Title
81392
    1CHL1    C3    1   2.269   1.569  10.035  0.2626  0.6530 -0.2960
    1CHL1    H3    2   2.348   1.646  10.028  0.2745  1.1861  3.5493
    1CHL1    O3    3   2.225   1.575  10.171  0.2782 -0.1301 -0.4570
    1CHL1   H3'    4   2.160   1.505  10.172  2.5046 -2.3815  1.7171
    1CHL1    C4    5   2.147   1.619   9.952  0.2927  0.0005 -0.4639
    1CHL1   H4A    6   2.063   1.555   9.985  0.5786 -0.6160 -0.9141
    1CHL1   H4B    7   2.121   1.723   9.982 -1.3714 -0.5463  0.0803
    1CHL1    C5    8   2.158   1.608   9.802 -0.1608 -0.1976  0.6232
    1CHL1    C6    9   2.158   1.720   9.720  0.1215  0.3666 -0.3959
    1CHL1    H6   10   2.133   1.821   9.756 -0.2156 -0.3620  1.5453
    1CHL1    C7   11   2.192   1.716   9.576  0.2414 -0.2449  0.6524
    1CHL1   H7A   12   2.126   1.786   9.520 -0.6011 -0.9999  0.6880
    1CHL1   H7B   13   2.299   1.740   9.556  0.0172  0.7272  0.5885
    1CHL1    C8   14   2.173   1.574   9.514 -0.1654 -0.3124  0.6677
    1CHL1    H8   15   2.067   1.543   9.500 -0.1719  0.4536 -1.2362
    1CHL1   C14   16   2.239   1.574   9.378  0.2362  0.1350  0.4102
    1CHL1   H14   17   2.345   1.608   9.382  0.0888  0.5207  1.2569
    1CHL1   C15   18   2.180   1.677   9.274 -0.1045  0.3982  0.4865
    1CHL1  H15A   19   2.070   1.681   9.292 -0.3872 -2.3202 -0.1709
    1CHL1  H15B   20   2.215   1.780   9.291 -0.3832  0.3777  1.2374
    1CHL1   C16   21   2.204   1.611   9.140  0.1074  0.2709 -0.0090
    1CHL1  H16A   22   2.107   1.574   9.100 -0.8454 -0.6200  2.9167
    1CHL1  H16B   23   2.271   1.672   9.076 -0.4304  0.0757 -0.7787
    1CHL1   C17   24   2.289   1.481   9.169 -0.3346  0.5806 -0.6302
    1CHL1   H17   25   2.394   1.508   9.193 -0.0042 -1.0082 -0.1346
    1CHL1   C13   26   2.246   1.433   9.314  0.0875  0.2517  0.0206
    1CHL1   C18   27   2.109   1.367   9.296  0.3755 -0.3141 -0.4445
    1CHL1  H18A   28   2.115   1.273   9.237 -0.2250 -0.1915 -0.7004
    1CHL1  H18B   29   2.057   1.350   9.392 -1.5890  1.5011 -1.1179
    1CHL1  H18C   30   2.045   1.438   9.239  1.2835  0.7287 -0.2008
    1CHL1   C12   31   2.339   1.351   9.404 -1.0290  0.2834  0.2730
    1CHL1  H12A   32   2.360   1.245   9.379 -1.0519  0.2462  0.4084
    1CHL1  H12B   33   2.434   1.409   9.405 -0.4787 -0.5947  0.0052
    1CHL1   C11   34   2.285   1.338   9.538 -0.1113 -0.3061 -1.0180
    1CHL1  H11A   35   2.190   1.280   9.535 -0.8227  0.7990 -0.5470
    1CHL1  H11B   36   2.363   1.283   9.596 -0.4762 -0.8328 -1.0220
    1CHL1    C9   37   2.254   1.482   9.603  0.0943 -0.1364  0.0188
    1CHL1    H9   38   2.354   1.530   9.603  1.1566 -2.1842  1.1093
    1CHL1   C10   39   2.204   1.470   9.752  0.6667 -0.0726  0.3850
    1CHL1   C19   40   2.086   1.362   9.759 -0.4731  0.1128  0.1421
    1CHL1  H19A   41   2.016   1.376   9.673 -2.8976  0.6674  2.0709
    1CHL1  H19B   42   2.125   1.258   9.761 -0.8596 -0.0337  0.3670
    1CHL1  H19C   43   2.029   1.374   9.854 -0.4968 -0.3825  0.1964
    1CHL1    C1   44   2.322   1.422   9.840 -0.6089 -0.6100 -0.2572
    1CHL1   H1A   45   2.350   1.318   9.814  0.3203 -0.3631 -0.2559
    1CHL1   H1B   46   2.411   1.475   9.799 -0.8153  0.2613  0.4009
    1CHL1    C2   47   2.304   1.430   9.993 -0.2736 -0.5905  0.1406
    1CHL1   H2A   48   2.403   1.398  10.030  1.4505  0.7785 -2.9224
    1CHL1   H2B   49   2.233   1.355  10.033 -0.5777 -0.0552  0.6215
    1CHL1   C20   50   2.291   1.381   9.051  0.1956 -0.8700 -0.8911
    1CHL1   H20   51   2.194   1.332   9.031 -0.6382  0.8386 -1.2442
    1CHL1   C21   52   2.402   1.275   9.060  0.5339 -0.1450 -0.4250
    1CHL1  H21A   53   2.381   1.213   9.150  1.5066 -1.1201 -0.8341
    1CHL1  H21B   54   2.505   1.317   9.062  0.4619  0.0211 -0.2377
    1CHL1  H21C   55   2.385   1.205   8.975 -3.8204 -0.1178  0.2358
    1CHL1   C22   56   2.305   1.453   8.915  0.0432  0.1081  0.2908
    1CHL1  H22A   57   2.294   1.377   8.834 -2.2575 -0.8216  1.4006
    1CHL1  H22B   58   2.213   1.512   8.897 -0.6219 -0.6712  1.0192
    1CHL1   C23   59   2.431   1.536   8.893 -0.5765  0.0775 -0.5246
    1CHL1  H23A   60   2.443   1.613   8.972 -0.3557 -0.7624  0.2837
    1CHL1  H23B   61   2.525   1.478   8.899 -1.0780 -0.6192  1.4244
    1CHL1   C24   62   2.440   1.584   8.744  0.2339 -0.4893  0.8005
    1CHL1  H24A   63   2.465   1.492   8.685  0.1101  1.0993 -1.9125
    1CHL1  H24B   64   2.356   1.642   8.698  0.4696 -0.2400  0.6819
    1CHL1   C25   65   2.568   1.672   8.720 -0.0244  0.6648 -0.2291
    1CHL1   H25   66   2.659   1.617   8.754 -0.5220  0.8952  1.6099
    1CHL1   C26   67   2.589   1.694   8.568 -0.1103  0.3081 -0.1316
    1CHL1  H26A   68   2.599   1.597   8.515  0.8148 -0.4163  1.3298
    1CHL1  H26B   69   2.497   1.746   8.531 -0.2531  0.0929 -0.0787
    1CHL1  H26C   70   2.678   1.757   8.547 -0.3447  0.7299  0.1126
    1CHL1   C27   71   2.556   1.808   8.793  0.0500  0.1506  0.1429
    1CHL1  H27A   72   2.471   1.861   8.744  0.1766 -1.1048 -1.5249
    1CHL1  H27B   73   2.535   1.789   8.900  2.5298 -0.4589  0.5803
    1CHL1  H27C   74   2.644   1.874   8.776 -1.2071  1.4050 -1.9441
    2CHL1    C3   75   4.051   0.876   9.919 -0.4356  0.9971 -0.1259
    2CHL1    H3   76   4.055   0.775   9.871  1.4320  0.8446  0.3023
    2CHL1    O3   77   4.098   0.869  10.056  0.0507  0.0197 -0.0129
    2CHL1   H3'   78   4.176   0.926  10.055  0.2601 -0.2379  0.8496
    2CHL1    C4   79   4.139   0.972   9.843  0.2277  0.2549 -0.5267
    2CHL1   H4A   80   4.137   1.074   9.887  1.5102 -1.0527  2.9549
    2CHL1   H4B   81   4.245   0.940   9.835  0.2738 -0.7665  2.5515
    2CHL1    C5   82   4.090   0.985   9.700  0.1707 -0.3564 -0.5276
    2CHL1    C6   83   4.171   0.953   9.599 -0.3139  0.2122  0.0959
    2CHL1    H6   84   4.269   0.907   9.616  0.0811  0.8830 -0.3133
    2CHL1    C7   85   4.126   0.956   9.455 -0.5111 -0.6298 -0.9991
    2CHL1   H7A   86   4.204   0.999   9.390 -0.1371  0.8246  0.3561
    2CHL1   H7B   87   4.124   0.848   9.429  1.7678 -0.9832  0.0804
    2CHL1    C8   88   3.991   1.034   9.434 -0.5330 -0.2847  0.0298
    2CHL1    H8   89   4.006   1.143   9.443 -0.8831 -0.1216 -1.2887
    2CHL1   C14   90   3.938   1.007   9.287  0.6536 -0.7628 -0.2827
    2CHL1   H14   91   3.928   0.896   9.282  1.0222 -0.8454  0.6487
    2CHL1   C15   92   4.031   1.041   9.165  0.3326  0.1562 -0.0695
    2CHL1  H15A   93   4.090   1.133   9.184  0.4003  0.3638 -1.2627
    2CHL1  H15B   94   4.111   0.964   9.170 -0.5206 -0.6748  2.3304
    2CHL1   C16   95   3.940   1.047   9.036  0.1431  0.1221 -1.1283
    2CHL1  H16A   96   3.958   1.146   8.988 -1.3313  0.7517 -0.4625
    2CHL1  H16B   97   3.964   0.969   8.961  1.6338  0.3748 -0.9295
    2CHL1   C17   98   3.792   1.034   9.093  0.5530 -0.2472 -0.3325
    2CHL1   H17   99   3.767   0.926   9.102  0.4439 -0.0699  2.5017
    2CHL1   C13  100   3.801   1.074   9.245  0.0289  0.1348 -0.1957
    2CHL1   C18  101   3.794   1.228   9.256  0.1138 -0.1910  0.4952
    2CHL1  H18A  102   3.806   1.253   9.364 -1.7400  2.5810  0.1830
    2CHL1  H18B  103   3.865   1.286   9.192 -1.7633  0.5270 -1.0374
    2CHL1  H18C  104   3.692   1.266   9.232  0.7586  3.0365  2.1843
    2CHL1   C12  105   3.698   1.020   9.346 -0.0889 -0.6027  0.2485
    2CHL1  H12A  106   3.607   1.081   9.330  0.7088  0.5060 -0.1684
    2CHL1  H12B  107   3.680   0.914   9.319 -1.4076 -0.4222  0.3322
    2CHL1   C11  108   3.740   1.020   9.500 -0.1623  0.7568  0.3992
    2CHL1  H11A  109   3.729   1.125   9.534  0.4912  1.2007 -0.6986
    2CHL1  H11B  110   3.668   0.953   9.552  1.3447 -1.7714 -0.5821
    2CHL1    C9  111   3.884   0.985   9.534 -0.7693  0.2046 -0.2637
    2CHL1    H9  112   3.901   0.875   9.525  0.9500  0.4779 -0.7593
    2CHL1   C10  113   3.938   1.012   9.678  1.0309 -0.5599 -0.1224
    2CHL1   C19  114   3.913   1.161   9.718  0.0318 -0.5961  0.5939
    2CHL1  H19A  115   3.939   1.180   9.824  1.2753 -2.3600  0.6664
    2CHL1  H19B  116   3.980   1.227   9.659 -1.3321 -1.4066 -2.0112
    2CHL1  H19C  117   3.809   1.198   9.706 -0.3140 -0.8083  2.5399
    2CHL1    C1  118   3.859   0.923   9.772  0.0584 -0.0536 -0.2849
    2CHL1   H1A  119   3.757   0.964   9.786  0.7752  1.5073  0.6301
    2CHL1   H1B  120   3.844   0.824   9.723  0.8760 -1.0303  1.3426
    2CHL1    C2  121   3.912   0.922   9.918 -0.0419 -0.0224  0.3980
    2CHL1   H2A  122   3.855   0.839   9.965  1.0009 -1.1468 -0.2728
    2CHL1   H2B  123   3.893   1.016   9.974 -1.9160  0.8826 -1.6280
    2CHL1   C20  124   3.686   1.097   9.001  0.0367 -0.7758 -0.0863
    2CHL1   H20  125   3.704   1.205   9.018 -1.5028 -0.9419  3.2379
    2CHL1   C21  126   3.552   1.054   9.055 -0.3263  0.6048  0.0716
    2CHL1  H21A  127   3.475   1.078   8.979 -2.0859 -2.5039  0.6787
    2CHL1  H21B  128   3.517   1.109   9.145 -0.5449  1.5078 -0.5563
    2CHL1  H21C  129   3.545   0.945   9.078 -1.0285  0.1997 -1.8378
    2CHL1   C22  130   3.697   1.063   8.848  0.6909 -0.6453 -1.0845
    2CHL1  H22A  131   3.801   1.033   8.824  1.0063  0.0203 -0.5803
    2CHL1  H22B  132   3.620   0.985   8.829 -3.7526  2.7925  0.8994
    2CHL1   C23  133   3.654   1.181   8.760  0.3266  0.0529  0.0827
    2CHL1  H23A  134   3.547   1.212   8.762  0.4001  0.3720 -0.5238
    2CHL1  H23B  135   3.703   1.274   8.796  0.0669  0.1095  0.2972
    2CHL1   C24  136   3.685   1.152   8.614  0.4287  0.5507  0.0097
    2CHL1  H24A  137   3.794   1.158   8.597  0.5909 -0.7777  0.5052
    2CHL1  H24B  138   3.666   1.045   8.589 -0.1374  0.7497 -0.4365
    2CHL1   C25  139   3.619   1.246   8.514  0.7916  0.2942  0.9201
    2CHL1   H25  140   3.632   1.352   8.544 -0.1491  0.6754  0.0242
    2CHL1   C26  141   3.686   1.222   8.376  0.7673 -0.6357 -0.3706
    2CHL1  H26A  142   3.658   1.305   8.307  2.0131 -0.1366 -0.3041
    2CHL1  H26B  143   3.797   1.218   8.375  0.7681 -0.8428 -1.5537
    2CHL1  H26C  144   3.663   1.120   8.339 -1.3661  0.0460 -1.0373
    2CHL1   C27  145   3.467   1.220   8.504  0.3570  0.0490  0.2116
    2CHL1  H27A  146   3.424   1.226   8.606  1.2034 -0.3991  0.6041
    2CHL1  H27B  147   3.423   1.287   8.427 -0.3883  1.1512  1.5652
    2CHL1  H27C  148   3.445   1.114   8.481  0.9814  0.1072 -0.7266
    3CHL1    C3  149   4.265   6.237  10.116  0.7452  0.5694 -0.2137
    3CHL1    H3  150   4.181   6.304  10.140 -0.6950 -1.4410  0.6579
    3CHL1    O3  151   4.311   6.201  10.246 -0.6410 -0.6941 -0.2415
    3CHL1   H3'  152   4.320   6.284  10.293  0.4083 -0.3076 -1.0781
    3CHL1    C4  153   4.211   6.105  10.057 -0.2756  0.3387  0.3428
    3CHL1   H4A  154   4.287   6.028  10.082  0.8925  1.2127 -0.4583
    3CHL1   H4B  155   4.130   6.061  10.120 -1.0570 -0.3221 -1.0698
    3CHL1    C5  156   4.186   6.111   9.907  0.9342  0.0792 -0.4861
    3CHL1    C6  157   4.072   6.063   9.851 -0.3247 -0.5623 -0.4379
    3CHL1    H6  158   3.993   6.022   9.916  0.5371 -0.9541  0.3917
    3CHL1    C7  159   4.059   6.045   9.708 -0.0905 -0.7807  0.4644
    3CHL1   H7A  160   4.015   5.944   9.690 -1.7118 -0.5881  2.7433
    3CHL1   H7B  161   3.984   6.113   9.662 -0.6153 -1.5146  0.2057
    3CHL1    C8  162   4.184   6.071   9.618  0.9004  0.2132 -0.1511
    3CHL1    H8  163   4.247   5.979   9.619  0.4893 -0.0891 -1.0417
    3CHL1   C14  164   4.138   6.104   9.474  0.6888  0.0805 -0.5326
    3CHL1   H14  165   4.081   6.200   9.470  1.5246  0.5923 -0.4050
    3CHL1   C15  166   4.043   6.002   9.399 -0.0104 -0.9887  0.0915
    3CHL1  H15A  167   4.067   5.896   9.424  1.0015 -0.4540  1.4846
    3CHL1  H15B  168   3.938   6.027   9.427 -0.5991 -2.6082 -0.5197
    3CHL1   C16  169   4.069   6.040   9.252 -0.1128 -0.1321  0.4081
    3CHL1  H16A  170   4.111   5.953   9.196 -1.0511  0.6998 -1.6777
    3CHL1  H16B  171   3.977   6.054   9.192  1.0646 -0.7914 -1.6664
    3CHL1   C17  172   4.177   6.154   9.247  0.3481  0.5583  0.2811
    3CHL1   H17  173   4.126   6.252   9.246 -0.5913  0.1315  2.1433
    3CHL1   C13  174   4.253   6.130   9.376 -0.2926 -0.0981 -0.5131
    3CHL1   C18  175   4.334   6.002   9.357  0.2519 -0.1508 -0.0822
    3CHL1  H18A  176   4.274   5.918   9.315  1.2883  0.1987 -2.4080
    3CHL1  H18B  177   4.416   6.009   9.283 -0.1076  0.7730 -0.4064
    3CHL1  H18C  178   4.387   5.979   9.452  1.4897  0.1996 -0.6758
    3CHL1   C12  179   4.337   6.252   9.430  0.6381 -0.2584  0.0244
    3CHL1  H12A  180   4.426   6.256   9.364 -1.0839 -0.8544 -2.4727
    3CHL1  H12B  181   4.279   6.345   9.412  0.3660 -0.0854  1.6655
    3CHL1   C11  182   4.377   6.232   9.577 -0.6444 -0.2114  0.2022
    3CHL1  H11A  183   4.442   6.143   9.564  0.7651  1.0157 -1.8539
    3CHL1  H11B  184   4.441   6.321   9.600  0.6398 -0.8917 -0.6023
    3CHL1    C9  185   4.261   6.187   9.676 -1.1001  0.4049  0.2305
    3CHL1    H9  186   4.183   6.266   9.673 -1.2981  0.2011 -2.0082
    3CHL1   C10  187   4.306   6.166   9.824  0.3580  0.2146  0.9450
    3CHL1   C19  188   4.415   6.048   9.827 -0.0922 -0.0036  0.2223
    3CHL1  H19A  189   4.511   6.092   9.792  1.1268 -0.4689  2.7403
    3CHL1  H19B  190   4.444   6.032   9.933 -3.9462  0.0282  1.4296
    3CHL1  H19C  191   4.386   5.950   9.783 -0.9522  0.3863 -0.0972
    3CHL1    C1  192   4.345   6.301   9.893 -0.0772 -0.1253 -0.9056
    3CHL1   H1A  193   4.420   6.349   9.826 -0.4761  1.2943 -0.3699
    3CHL1   H1B  194   4.260   6.369   9.871  0.6307  1.5101  1.1038
    3CHL1    C2  195   4.380   6.297  10.042  0.2271 -0.3236 -0.1953
    3CHL1   H2A  196   4.409   6.398  10.077  0.8589 -0.5128 -0.1700
    3CHL1   H2B  197   4.467   6.230  10.055  0.7154 -0.4533 -3.4120
    3CHL1   C20  198   4.249   6.153   9.107 -0.3311 -0.4479  0.5313
    3CHL1   H20  199   4.279   6.049   9.080  0.7267  0.7097 -3.3947
    3CHL1   C21  200   4.387   6.237   9.107  0.5157 -0.2596 -0.4238
    3CHL1  H21A  201   4.372   6.331   9.164 -5.0703 -1.3123  0.4154
    3CHL1  H21B  202   4.433   6.243   9.006 -1.1518 -0.1515 -1.2047
    3CHL1  H21C  203   4.452   6.175   9.172 -1.6444 -0.9282  1.2142
    3CHL1   C22  204   4.152   6.193   8.998 -0.0930  0.5996  0.1900
    3CHL1  H22A  205   4.071   6.118   8.991 -0.2402  0.6903  0.8542
    3CHL1  H22B  206   4.094   6.282   9.028  0.4123  0.0089  3.2202
    3CHL1   C23  207   4.213   6.229   8.862 -0.4131 -0.1648  0.0699
    3CHL1  H23A  208   4.280   6.318   8.863  0.6026 -0.9040  1.6436
    3CHL1  H23B  209   4.265   6.147   8.807 -0.0171  0.1646 -0.0504
    3CHL1   C24  210   4.093   6.260   8.761  0.0763  0.7159 -0.0969
    3CHL1  H24A  211   4.027   6.173   8.744 -0.2653  1.0840 -0.7010
    3CHL1  H24B  212   4.024   6.342   8.793 -1.2695 -0.1094 -0.8182
    3CHL1   C25  213   4.146   6.312   8.628  0.1298 -0.1652  0.3537
    3CHL1   H25  214   4.231   6.383   8.643  0.2022 -0.0024 -0.7870
    3CHL1   C26  215   4.198   6.197   8.538 -0.2010  1.0963  0.9833
    3CHL1  H26A  216   4.237   6.236   8.442  0.0379  0.5474  0.8514
    3CHL1  H26B  217   4.274   6.129   8.582  1.1092  0.3801 -2.1513
    3CHL1  H26C  218   4.123   6.122   8.505  0.6524  1.0228 -0.9105
    3CHL1   C27  219   4.028   6.379   8.549 -0.4571 -0.2990 -0.3828
    3CHL1  H27A  220   3.941   6.316   8.523 -0.0628 -0.8826 -0.3068
    3CHL1  H27B  221   3.998   6.468   8.608  2.1909  0.1733  0.4053
    3CHL1  H27C  222   4.068   6.416   8.452  3.9960 -1.8989  0.5866
    4CHL1    C3  223   3.349   2.162  10.350  0.1970 -1.0615  0.8967
    4CHL1    H3  224   3.252   2.122  10.315  0.8130 -0.0575 -2.2225
    4CHL1    O3  225   3.378   2.132  10.480 -0.6733  0.5379  0.2698
    4CHL1   H3'  226   3.471   2.156  10.476  0.6466 -3.7750 -1.5651
    4CHL1    C4  227   3.457   2.087  10.268  0.5289 -0.4652 -0.2785
    4CHL1   H4A  228   3.558   2.104  10.309 -0.0592 -0.8221  1.3777
    4CHL1   H4B  229   3.427   1.983  10.293 -0.4510 -0.3125 -0.7407
    4CHL1    C5  230   3.438   2.102  10.122  0.2067  0.0275  0.4925
    4CHL1    C6  231   3.436   2.001  10.039 -0.1487  0.1481 -0.3706
    4CHL1    H6  232   3.439   1.896  10.070 -0.9780 -0.3264 -1.8042
    4CHL1    C7  233   3.418   2.019   9.890 -0.7987  0.2407 -0.5692
    4CHL1   H7A  234   3.493   1.958   9.835 -1.0957 -1.2563  0.6416
    4CHL1   H7B  235   3.322   1.976   9.854 -0.5977 -0.3232 -0.4433
    4CHL1    C8  236   3.444   2.159   9.835  0.2820 -1.2883 -0.0302
    4CHL1    H8  237   3.554   2.172   9.840  0.2710 -0.5784 -1.1200
    4CHL1   C14  238   3.406   2.185   9.694  0.1696 -0.6951  0.0814
    4CHL1   H14  239   3.296   2.170   9.691 -0.1464  1.1262  0.8505
    4CHL1   C15  240   3.462   2.077   9.598 -0.2225  0.0342  0.4398
    4CHL1  H15A  241   3.570   2.055   9.616  0.1466 -0.3987 -2.0344
    4CHL1  H15B  242   3.412   1.978   9.590  1.4056 -0.7211 -1.2667
    4CHL1   C16  243   3.451   2.152   9.463  1.1944 -0.1980 -0.1326
    4CHL1  H16A  244   3.552   2.155   9.417  0.8367  2.4251 -0.9070
    4CHL1  H16B  245   3.378   2.100   9.398  0.2421  0.9749 -0.0488
    4CHL1   C17  246   3.402   2.301   9.498  0.0135 -0.9279  0.2365
    4CHL1   H17  247   3.291   2.295   9.495  0.0907 -2.2711 -1.3158
    4CHL1   C13  248   3.439   2.325   9.642 -0.5661 -0.3069  0.6281
    4CHL1   C18  249   3.591   2.366   9.648 -0.1505  0.0431  0.8368
    4CHL1  H18A  250   3.644   2.369   9.746  1.0557  1.2241  0.1757
    4CHL1  H18B  251   3.644   2.289   9.587 -0.7862  0.2363  0.0204
    4CHL1  H18C  252   3.598   2.472   9.617 -2.4758 -0.4675 -1.8874
    4CHL1   C12  253   3.351   2.428   9.725 -0.0440  0.8447 -0.2660
    4CHL1  H12A  254   3.366   2.530   9.684 -1.0988 -0.5161 -4.4897
    4CHL1  H12B  255   3.246   2.397   9.703  0.0802  0.4934 -0.3676
    4CHL1   C11  256   3.386   2.420   9.871  0.2089 -0.1942 -0.1048
    4CHL1  H11A  257   3.488   2.465   9.869 -0.4568  1.3478 -0.6021
    4CHL1  H11B  258   3.339   2.494   9.940 -0.7181 -0.0535 -0.8829
    4CHL1    C9  259   3.384   2.272   9.927 -0.1960  0.7584  0.5676
    4CHL1    H9  260   3.275   2.248   9.930 -0.3925  0.4357 -3.5520
    4CHL1   C10  261   3.423   2.248  10.076  0.6108 -0.2154  0.3554
    4CHL1   C19  262   3.568   2.301  10.103  0.2408 -0.3171  0.1135
    4CHL1  H19A  263   3.603   2.277  10.206  2.1544  2.1868  0.1460
    4CHL1  H19B  264   3.635   2.253  10.027  1.1779 -0.2879  0.9034
    4CHL1  H19C  265   3.576   2.411  10.089  0.6346 -0.6139 -2.5181
    4CHL1    C1  266   3.331   2.333  10.168 -0.8381 -0.5279  0.6382
    4CHL1   H1A  267   3.341   2.442  10.149 -2.8366 -0.0873  1.9095
    4CHL1   H1B  268   3.228   2.297  10.148 -0.3802 -1.7318  0.3422
    4CHL1    C2  269   3.349   2.311  10.323  0.0410  0.2731  0.9606
    4CHL1   H2A  270   3.268   2.355  10.384 -1.0121  1.0550 -0.9116
    4CHL1   H2B  271   3.434   2.363  10.372  0.8251 -0.1058  0.0353
    4CHL1   C20  272   3.437   2.409   9.388 -0.2275  1.3393 -0.5556
    4CHL1   H20  273   3.548   2.412   9.385 -0.1525  2.2739  1.4522
    4CHL1   C21  274   3.381   2.546   9.416  0.5593 -0.5398  0.3469
    4CHL1  H21A  275   3.440   2.612   9.483  0.7239  0.4404 -0.7314
    4CHL1  H21B  276   3.283   2.538   9.467  0.4606  0.3581  0.3070
    4CHL1  H21C  277   3.371   2.608   9.324  0.4161 -0.3921  0.4615
    4CHL1   C22  278   3.393   2.346   9.250 -0.4704  0.4296  0.3133
    4CHL1  H22A  279   3.442   2.248   9.228  0.1080  0.8427 -0.2929
    4CHL1  H22B  280   3.283   2.337   9.262 -0.5699  1.9235  0.6327
    4CHL1   C23  281   3.420   2.435   9.132 -0.3412 -0.0596 -0.5660
    4CHL1  H23A  282   3.350   2.521   9.126 -0.6523 -0.0717  1.8891
    4CHL1  H23B  283   3.517   2.488   9.136 -0.8986  1.6259 -4.6057
    4CHL1   C24  284   3.417   2.360   9.004 -0.0808  0.7572  0.5445
    4CHL1  H24A  285   3.497   2.284   8.990  0.6067  1.5760 -0.0731
    4CHL1  H24B  286   3.321   2.304   8.997  1.0105 -1.2541  0.8539
    4CHL1   C25  287   3.424   2.461   8.885 -0.2449  0.2718  0.7206
    4CHL1   H25  288   3.522   2.513   8.894  1.2278 -2.2271 -0.0046
    4CHL1   C26  289   3.435   2.380   8.754 -0.2906  0.6034 -0.6884
    4CHL1  H26A  290   3.531   2.325   8.753 -0.0418  1.0369 -2.2875
    4CHL1  H26B  291   3.355   2.303   8.750  0.5950 -0.2884 -2.1898
    4CHL1  H26C  292   3.420   2.446   8.666 -1.4165 -1.1671 -1.8871
    4CHL1   C27  293   3.311   2.561   8.869 -0.7364  1.0373 -1.1375
    4CHL1  H27A  294   3.306   2.611   8.770 -1.8311  5.0177  0.7136
    4CHL1  H27B  295   3.220   2.502   8.892 -0.1317  0.4739 -0.0999
    4CHL1  H27C  296   3.316   2.639   8.949  0.2830  0.4460 -0.5939
    5CHL1    C3  297   5.470   5.579  10.101  0.1740 -0.7047  0.5376
    5CHL1    H3  298   5.577   5.579  10.071  0.9383  0.8509  2.9773
    5CHL1    O3  299   5.459   5.570  10.247 -0.2754 -0.1312 -0.2183
    5CHL1   H3'  300   5.369   5.592  10.272  0.4213  1.6311  0.9313
    5CHL1    C4  301   5.412   5.706  10.033  0.5509 -0.0300 -0.1311
    5CHL1   H4A  302   5.309   5.723  10.071  0.8524  2.2977 -0.1899
    5CHL1   H4B  303   5.469   5.793  10.074  3.4583 -2.0290  0.4222
    5CHL1    C5  304   5.400   5.694   9.881 -0.0604 -0.3965  0.1039
    5CHL1    C6  305   5.435   5.794   9.807  0.5710 -0.2564  0.2405
    5CHL1    H6  306   5.471   5.883   9.859  0.3226 -1.5837  2.8646
    5CHL1    C7  307   5.442   5.796   9.655  0.4415  0.1674 -0.0240
    5CHL1   H7A  308   5.392   5.883   9.608 -1.1173 -1.6232 -1.8449
    5CHL1   H7B  309   5.549   5.806   9.627 -0.0072  4.8048 -0.8586
    5CHL1    C8  310   5.373   5.685   9.581  0.7473 -0.0759  0.5727
    5CHL1    H8  311   5.265   5.708   9.576  0.6602 -0.6863 -0.8489
    5CHL1   C14  312   5.424   5.664   9.441  0.1293 -0.1136 -0.3345
    5CHL1   H14  313   5.527   5.623   9.450  0.2224  0.1486 -0.1782
    5CHL1   C15  314   5.448   5.785   9.349 -0.5494  0.2996 -0.6285
    5CHL1  H15A  315   5.359   5.852   9.350 -0.1878  0.8216 -1.5615
    5CHL1  H15B  316   5.539   5.842   9.376  0.8522 -1.0272 -2.3022
    5CHL1   C16  317   5.458   5.715   9.208 -0.1020 -0.8761  0.2044
    5CHL1  H16A  318   5.401   5.771   9.130 -1.2240 -2.8872 -0.5032
    5CHL1  H16B  319   5.565   5.711   9.178  0.0395  0.1960  0.5318
    5CHL1   C17  320   5.403   5.570   9.218 -0.1842  0.3773 -0.3536
    5CHL1   H17  321   5.495   5.510   9.233  0.4635  0.8960 -2.0737
    5CHL1   C13  322   5.337   5.556   9.363 -0.4903 -0.5910 -0.5680
    5CHL1   C18  323   5.193   5.604   9.341 -0.7080 -0.7006  0.1068
    5CHL1  H18A  324   5.132   5.526   9.291  0.2471 -0.1731 -1.9604
    5CHL1  H18B  325   5.144   5.634   9.437  2.4743 -1.2505  2.0331
    5CHL1  H18C  326   5.191   5.696   9.279  1.2514 -0.7154 -0.0161
    5CHL1   C12  327   5.344   5.420   9.435  0.4096 -0.2829  0.2321
    5CHL1  H12A  328   5.276   5.348   9.384 -0.2474 -0.6649  1.5989
    5CHL1  H12B  329   5.454   5.401   9.429  0.3042 -0.6967 -0.4653
    5CHL1   C11  330   5.304   5.436   9.583 -0.4319  0.1545  0.1427
    5CHL1  H11A  331   5.194   5.452   9.581 -0.7489 -1.7514 -1.3807
    5CHL1  H11B  332   5.327   5.339   9.632  0.6729 -0.3362 -1.2579
    5CHL1    C9  333   5.375   5.554   9.660 -0.2278 -0.0534 -0.4788
    5CHL1    H9  334   5.484   5.535   9.661  0.0811  1.2487  3.1417
    5CHL1   C10  335   5.349   5.564   9.810  0.0453  0.1754  0.5362
    5CHL1   C19  336   5.192   5.566   9.832  0.2869 -0.0918  0.3960
    5CHL1  H19A  337   5.157   5.462   9.816 -0.3781 -0.3602  3.0690
    5CHL1  H19B  338   5.168   5.575   9.940  0.8537 -3.1036  0.8571
    5CHL1  H19C  339   5.138   5.642   9.772  0.1913 -0.4103  0.0759
    5CHL1    C1  340   5.423   5.452   9.882  0.7147  0.6476 -0.0952
    5CHL1   H1A  341   5.384   5.359   9.834 -1.5489  1.7326 -0.5071
    5CHL1   H1B  342   5.534   5.456   9.874  0.8288 -2.1763 -1.0150
    5CHL1    C2  343   5.410   5.447  10.036 -0.4325 -0.3399 -0.1543
    5CHL1   H2A  344   5.448   5.352  10.078 -0.7779 -0.3104  0.2213
    5CHL1   H2B  345   5.301   5.438  10.056  0.1461 -2.4028  2.4919
    5CHL1   C20  346   5.324   5.526   9.093  0.1252 -0.1986  0.4745
    5CHL1   H20  347   5.231   5.588   9.094  0.0617 -0.1874 -1.4315
    5CHL1   C21  348   5.308   5.375   9.104 -0.4785  0.3910 -0.7065
    5CHL1  H21A  349   5.246   5.344   9.017 -2.3881 -0.1879  0.7941
    5CHL1  H21B  350   5.262   5.335   9.197  1.5131 -0.2584  0.0551
    5CHL1  H21C  351   5.407   5.326   9.104 -0.0898  1.0800  1.6953
    5CHL1   C22  352   5.396   5.556   8.965  0.2829  0.4769  0.1295
    5CHL1  H22A  353   5.435   5.659   8.950  0.3648  0.2020 -1.9193
    5CHL1  H22B  354   5.487   5.491   8.960 -1.2589 -1.7035 -2.1718
    5CHL1   C23  355   5.323   5.534   8.823 -0.2953  0.4902  0.2950
    5CHL1  H23A  356   5.397   5.529   8.739  1.2022 -1.3821  1.6266
    5CHL1  H23B  357   5.286   5.429   8.828 -1.4890  0.8994  0.2383
    5CHL1   C24  358   5.220   5.635   8.778  0.1388  0.5024 -0.2238
    5CHL1  H24A  359   5.153   5.655   8.865  0.3181  0.8457 -0.1614
    5CHL1  H24B  360   5.271   5.733   8.766  1.1384  0.0512  0.1958
    5CHL1   C25  361   5.141   5.599   8.646  0.2798 -0.6383  0.0516
    5CHL1   H25  362   5.225   5.577   8.576 -0.8881 -1.5207 -1.1229
    5CHL1   C26  363   5.056   5.470   8.643  0.3706  0.6984 -0.2945
    5CHL1  H26A  364   5.118   5.382   8.673  1.2975  1.4152 -0.0666
    5CHL1  H26B  365   4.968   5.494   8.706  1.2259  0.0460  1.1841
    5CHL1  H26C  366   5.024   5.462   8.537 -1.0364  0.2302  0.1425
    5CHL1   C27  367   5.047   5.711   8.599 -0.9793  0.2626 -0.7316
    5CHL1  H27A  368   4.950   5.708   8.653  0.2281 -1.8694  1.5477
    5CHL1  H27B  369   5.088   5.814   8.587 -1.3489  0.5225  0.1218
    5CHL1  H27C  370   5.018   5.697   8.493  0.0453  1.9490 -1.2788
    6CHL1    C3  371   2.338   3.468  10.167 -0.0704 -0.0555  0.4819
    6CHL1    H3  372   2.425   3.532  10.141  0.4740 -1.4970 -1.4312
    6CHL1    O3  373   2.341   3.442  10.310 -0.0624  0.3651  0.2197
    6CHL1   H3'  374   2.339   3.522  10.361  1.2657  0.9865 -0.6365
    6CHL1    C4  375   2.211   3.531  10.128  0.1214 -0.3178 -0.4201
    6CHL1   H4A  376   2.126   3.461  10.138  0.5840 -0.9392 -0.7857
    6CHL1   H4B  377   2.189   3.609  10.204  2.2553 -1.3812  1.3858
    6CHL1    C5  378   2.214   3.583   9.982  0.0932 -0.2745  0.0532
    6CHL1    C6  379   2.201   3.718   9.959 -0.2297  0.2195 -0.0655
    6CHL1    H6  380   2.164   3.781  10.041  1.9580 -1.0433  2.0087
    6CHL1    C7  381   2.215   3.771   9.819  0.4624  0.4862 -0.7035
    6CHL1   H7A  382   2.125   3.836   9.807 -0.6306 -0.2573  2.4328
    6CHL1   H7B  383   2.312   3.822   9.798  1.5354 -1.2274 -0.0979
    6CHL1    C8  384   2.212   3.656   9.715  0.3750 -0.4971  0.7679
    6CHL1    H8  385   2.108   3.620   9.698 -0.9328  3.0498  0.4432
    6CHL1   C14  386   2.245   3.719   9.581 -0.2335 -0.0826 -0.0096
    6CHL1   H14  387   2.348   3.759   9.591  0.0197 -0.6534 -0.2373
    6CHL1   C15  388   2.150   3.834   9.528  0.0996 -0.1529  0.4924
    6CHL1  H15A  389   2.045   3.802   9.547  0.3819 -0.6689  1.2565
    6CHL1  H15B  390   2.174   3.928   9.581  1.7459  0.0502 -0.5276
    6CHL1   C16  391   2.180   3.840   9.374  0.0799 -0.4202 -0.0539
    6CHL1  H16A  392   2.085   3.818   9.320  0.3547  1.8695 -1.6290
    6CHL1  H16B  393   2.222   3.940   9.349 -1.5372  0.4961  0.7442
    6CHL1   C17  394   2.286   3.732   9.363  0.0240  0.1189  0.8577
    6CHL1   H17  395   2.385   3.779   9.381  0.1319  0.3889 -0.3353
    6CHL1   C13  396   2.246   3.624   9.467 -0.2395 -0.7403  0.3906
    6CHL1   C18  397   2.104   3.572   9.438  0.5495  0.1559  0.4410
    6CHL1  H18A  398   2.102   3.490   9.362 -1.4497  1.9221 -1.5578
    6CHL1  H18B  399   2.050   3.527   9.524 -1.7754 -0.9214 -1.4597
    6CHL1  H18C  400   2.027   3.634   9.389  1.2147 -0.3085 -1.2904
    6CHL1   C12  401   2.354   3.520   9.494 -0.5976 -0.5819 -0.3414
    6CHL1  H12A  402   2.357   3.448   9.410 -2.2309 -4.9188  2.9581
    6CHL1  H12B  403   2.448   3.577   9.505 -0.9629  0.0221 -0.2893
    6CHL1   C11  404   2.326   3.445   9.625 -0.4524 -0.2943 -0.5557
    6CHL1  H11A  405   2.229   3.394   9.606  0.7681 -2.3211 -1.5656
    6CHL1  H11B  406   2.396   3.361   9.640  0.1813  0.2324 -0.5316
    6CHL1    C9  407   2.304   3.536   9.749  0.5710  0.1419 -0.2936
    6CHL1    H9  408   2.403   3.581   9.770 -0.2652  0.7708  2.8915
    6CHL1   C10  409   2.248   3.471   9.881 -0.9313  0.4266 -0.4608
    6CHL1   C19  410   2.121   3.388   9.851 -0.6669 -0.0317 -0.6559
    6CHL1  H19A  411   2.039   3.443   9.800  0.3345  2.1650 -0.0171
    6CHL1  H19B  412   2.141   3.302   9.783 -0.9767 -2.5808  2.2596
    6CHL1  H19C  413   2.087   3.344   9.947 -1.7179 -0.0543 -1.0228
    6CHL1    C1  414   2.355   3.370   9.931 -0.2537  0.4199  0.4115
    6CHL1   H1A  415   2.366   3.275   9.875  2.6729  0.3771  0.8804
    6CHL1   H1B  416   2.449   3.426   9.913 -0.5141  0.3865 -1.1509
    6CHL1    C2  417   2.349   3.340  10.080  0.2718  0.3511 -0.0239
    6CHL1   H2A  418   2.442   3.282  10.099 -2.3581 -3.6223  1.9753
    6CHL1   H2B  419   2.267   3.266  10.095  0.1042  0.2272 -1.4577
    6CHL1   C20  420   2.321   3.677   9.219 -0.0876 -0.0081 -0.0519
    6CHL1   H20  421   2.406   3.607   9.230 -0.0463  0.0625  0.0789
    6CHL1   C21  422   2.393   3.796   9.140  0.4585  0.4688  0.3884
    6CHL1  H21A  423   2.453   3.755   9.057 -1.0784 -0.2626 -0.4040
    6CHL1  H21B  424   2.457   3.867   9.197 -1.0933  0.6231  2.0551
    6CHL1  H21C  425   2.319   3.861   9.089 -0.2258  0.3043  1.1434
    6CHL1   C22  426   2.226   3.599   9.125  0.5215  0.2316  0.5042
    6CHL1  H22A  427   2.228   3.496   9.166  2.4904 -0.8932 -2.1120
    6CHL1  H22B  428   2.135   3.659   9.107  1.3953  1.0095 -1.6128
    6CHL1   C23  429   2.277   3.569   8.980 -0.2273 -0.1617 -0.7362
    6CHL1  H23A  430   2.315   3.659   8.925  4.4528 -2.0889 -1.1306
    6CHL1  H23B  431   2.373   3.515   8.993 -0.0983  0.5940  1.9289
    6CHL1   C24  432   2.173   3.485   8.903 -0.7048  0.4459 -0.0946
    6CHL1  H24A  433   2.166   3.390   8.960  1.7009 -1.1201 -2.1951
    6CHL1  H24B  434   2.068   3.522   8.912 -0.8561 -0.1473  0.5982
    6CHL1   C25  435   2.200   3.468   8.749 -0.1159  0.5952  0.0934
    6CHL1   H25  436   2.224   3.564   8.698  2.2142  0.0170 -0.0134
    6CHL1   C26  437   2.322   3.383   8.729 -0.3974 -0.2158 -0.3709
    6CHL1  H26A  438   2.347   3.358   8.624  2.2262 -0.6020  0.2873
    6CHL1  H26B  439   2.414   3.435   8.762 -0.3961  1.6381 -3.0368
    6CHL1  H26C  440   2.323   3.291   8.792 -1.8559 -0.4349 -0.6238
    6CHL1   C27  441   2.089   3.391   8.685  0.6528  0.4650  0.3509
    6CHL1  H27A  442   1.995   3.449   8.696  1.6337  2.4372 -0.9163
    6CHL1  H27B  443   2.098   3.373   8.575 -1.3569  0.4908  0.1545
    6CHL1  H27C  444   2.071   3.292   8.730 -0.0172  0.8221  0.8839
    7CHL1    C3  445   0.375   6.326  10.316  0.5739  0.1400  0.0763
    7CHL1    H3  446   0.455   6.249  10.316  0.0485 -0.4149  0.5514
    7CHL1    O3  447   0.312   6.320  10.439 -0.0139  0.2118  0.2607
    7CHL1   H3'  448   0.253   6.394  10.453 -2.4802 -1.6657  0.4891
    7CHL1    C4  449   0.423   6.468  10.279 -0.0162  0.4073 -1.0726
    7CHL1   H4A  450   0.332   6.527  10.303  1.1971  1.9132 -0.0163
    7CHL1   H4B  451   0.499   6.522  10.339 -0.8299 -0.2033  0.5948
    7CHL1    C5  452   0.467   6.476  10.132  0.7599 -0.0164  0.6784
    7CHL1    C6  453   0.588   6.536  10.101  0.7347 -0.0966 -0.4448
    7CHL1    H6  454   0.651   6.577  10.182 -2.0044  1.9475  0.7904
    7CHL1    C7  455   0.629   6.557   9.952 -0.2350  0.3028 -0.6451
    7CHL1   H7A  456   0.656   6.662   9.930 -2.8245  0.9942 -0.8787
    7CHL1   H7B  457   0.722   6.499   9.938  0.8360  2.0473 -1.0369
    7CHL1    C8  458   0.529   6.515   9.845 -0.1377  0.1105 -0.4022
    7CHL1    H8  459   0.461   6.603   9.839  0.9753  1.0487  0.0793
    7CHL1   C14  460   0.595   6.487   9.714  0.3668 -0.4641  0.2752
    7CHL1   H14  461   0.652   6.393   9.733  1.6851  0.0133 -1.0514
    7CHL1   C15  462   0.699   6.584   9.659  0.0672  0.2624 -0.8901
    7CHL1  H15A  463   0.656   6.683   9.684 -3.2642 -0.8766 -1.5736
    7CHL1  H15B  464   0.798   6.577   9.709 -0.1169 -1.6185 -0.6930
    7CHL1   C16  465   0.707   6.550   9.512 -0.6508  0.1440  0.3609
    7CHL1  H16A  466   0.684   6.636   9.445  0.3883  1.0569  1.1373
    7CHL1  H16B  467   0.802   6.500   9.484  0.2267  1.1716  1.3940
    7CHL1   C17  468   0.605   6.440   9.482 -0.3284  0.1239  0.4530
    7CHL1   H17  469   0.656   6.344   9.506 -1.2844 -0.6665 -0.5758
    7CHL1   C13  470   0.506   6.448   9.595  0.2211  0.5449  0.7144
    7CHL1   C18  471   0.412   6.565   9.564  0.3230 -0.0907  0.1584
    7CHL1  H18A  472   0.328   6.549   9.493  0.5057  2.0707 -0.6069
    7CHL1  H18B  473   0.360   6.591   9.658  1.3053 -0.4632  0.8242
    7CHL1  H18C  474   0.477   6.651   9.539 -0.3956  0.5043  0.3173
    7CHL1   C12  475   0.424   6.327   9.643 -0.5179  0.4856  0.1608
    7CHL1  H12A  476   0.339   6.304   9.575 -0.4587  2.7058 -0.7386
    7CHL1  H12B  477   0.489   6.238   9.655 -2.9379 -1.6466 -1.4345
    7CHL1   C11  478   0.357   6.343   9.780  0.7072 -0.1968  0.9189
    7CHL1  H11A  479   0.276   6.417   9.758  0.0475 -1.1582  0.0335
    7CHL1  H11B  480   0.307   6.250   9.813 -2.5358  1.6363  1.6894
    7CHL1    C9  481   0.454   6.388   9.891  0.2582 -0.1647 -0.4555
    7CHL1    H9  482   0.538   6.318   9.913 -0.5391 -0.8231  0.5953
    7CHL1   C10  483   0.378   6.417  10.025 -0.4630 -0.4784  0.5769
    7CHL1   C19  484   0.268   6.522   9.999 -0.2595  0.4333  0.7233
    7CHL1  H19A  485   0.308   6.618   9.959 -1.1687 -0.1451 -1.7316
    7CHL1  H19B  486   0.193   6.474   9.932 -1.1361  2.9694 -0.2422
    7CHL1  H19C  487   0.215   6.545  10.094  0.4847 -2.0131  1.7987
    7CHL1    C1  488   0.312   6.287  10.068  0.2908 -0.3614  1.1234
    7CHL1   H1A  489   0.222   6.275  10.004  3.3042  0.4287 -3.7941
    7CHL1   H1B  490   0.381   6.199  10.063  0.9915  0.0695  2.6151
    7CHL1    C2  491   0.270   6.274  10.219 -0.3427  0.6959 -0.9221
    7CHL1   H2A  492   0.223   6.177  10.245 -1.2923  0.9713 -1.5557
    7CHL1   H2B  493   0.183   6.343  10.214  0.4085  1.5911 -2.9061
    7CHL1   C20  494   0.548   6.430   9.340 -0.0470  0.5164  0.1756
    7CHL1   H20  495   0.479   6.514   9.317 -0.1277  0.7601  1.2277
    7CHL1   C21  496   0.470   6.297   9.316  1.0293  0.3395  0.3686
    7CHL1  H21A  497   0.380   6.308   9.380  0.9124 -0.1404  0.2919
    7CHL1  H21B  498   0.527   6.207   9.345  0.1396 -0.4048 -0.1361
    7CHL1  H21C  499   0.443   6.284   9.209  0.8952  1.0166  0.3183
    7CHL1   C22  500   0.654   6.443   9.229 -0.3262  0.5651  0.3593
    7CHL1  H22A  501   0.722   6.528   9.251 -1.4157  0.8631  2.8359
    7CHL1  H22B  502   0.723   6.358   9.209 -1.5337 -0.2717 -0.3949
    7CHL1   C23  503   0.595   6.465   9.085 -0.1048  0.3620 -0.6756
    7CHL1  H23A  504   0.525   6.381   9.062 -0.4607  0.0781  1.2617
    7CHL1  H23B  505   0.542   6.562   9.082  2.1161  1.6164 -2.2608
    7CHL1   C24  506   0.712   6.460   8.982  0.5118  0.6254  0.1430
    7CHL1  H24A  507   0.802   6.517   9.016  0.2920  0.6358  0.7152
    7CHL1  H24B  508   0.748   6.358   8.958  1.6986  1.3093 -1.2155
    7CHL1   C25  509   0.686   6.520   8.839 -0.0735  0.0178  0.6885
    7CHL1   H25  510   0.642   6.622   8.852  1.0247  0.5208  0.5873
    7CHL1   C26  511   0.809   6.530   8.745 -0.2556 -1.0472  0.0428
    7CHL1  H26A  512   0.789   6.574   8.645  0.7704 -4.8994 -2.0741
    7CHL1  H26B  513   0.888   6.585   8.801 -1.3682 -2.6887  3.5170
    7CHL1  H26C  514   0.845   6.428   8.720 -0.0071 -1.0185  0.2720
    7CHL1   C27  515   0.575   6.440   8.761 -0.0653 -0.3544  1.1616
    7CHL1  H27A  516   0.479   6.427   8.815 -2.0047  2.0813 -1.3894
    7CHL1  H27B  517   0.551   6.492   8.666  1.4819 -1.2328  0.2471
    7CHL1  H27C  518   0.622   6.343   8.738  4.6303  2.1141 -1.1158
    8CHL1    C3  519   6.015   1.255  10.308  0.6127 -0.3148  0.1844
    8CHL1    H3  520   6.083   1.343  10.312  2.0983 -1.2099 -2.4419
    8CHL1    O3  521   5.993   1.211  10.441 -0.4296 -0.5050  0.4602
    8CHL1   H3'  522   5.952   1.125  10.423 -0.7737 -0.3837  0.6625
    8CHL1    C4  523   5.890   1.293  10.234 -0.4424 -0.1851 -1.2158
    8CHL1   H4A  524   5.804   1.223  10.231 -0.0254 -0.7570 -0.3375
    8CHL1   H4B  525   5.849   1.371  10.302  0.1081 -1.4556  0.6756
    8CHL1    C5  526   5.925   1.333  10.098  0.6757  0.0808 -0.4994
    8CHL1    C6  527   5.908   1.459  10.057  0.5238  0.5316 -1.1699
    8CHL1    H6  528   5.875   1.533  10.130 -1.5354 -0.1880 -1.3208
    8CHL1    C7  529   5.916   1.510   9.918 -0.4261 -0.3044 -0.1938
    8CHL1   H7A  530   5.837   1.583   9.888 -1.9276 -1.3637  1.0247
    8CHL1   H7B  531   6.015   1.559   9.902 -0.8172  0.8457  0.7954
    8CHL1    C8  532   5.912   1.387   9.824 -0.4900 -0.3553  0.0906
    8CHL1    H8  533   5.814   1.334   9.823  0.2053 -1.6942  0.0232
    8CHL1   C14  534   5.942   1.435   9.686  0.5178 -0.1463 -0.3748
    8CHL1   H14  535   6.043   1.481   9.679  0.8508 -0.5368  1.3538
    8CHL1   C15  536   5.842   1.538   9.626 -0.0883 -0.1461 -0.1306
    8CHL1  H15A  537   5.738   1.526   9.663 -0.2826  3.4586  0.8828
    8CHL1  H15B  538   5.857   1.638   9.671  0.2597 -1.4718  2.9611
    8CHL1   C16  539   5.858   1.520   9.476 -0.2075 -0.2701 -0.2368
    8CHL1  H16A  540   5.755   1.495   9.442 -0.7341  1.0017  0.3650
    8CHL1  H16B  541   5.879   1.616   9.424  0.1608 -0.3911 -0.3162
    8CHL1   C17  542   5.957   1.401   9.451 -0.7605  0.6176 -0.5373
    8CHL1   H17  543   6.064   1.432   9.453  0.0270 -1.9163 -0.3759
    8CHL1   C13  544   5.945   1.317   9.580  0.1031 -0.0223  0.5163
    8CHL1   C18  545   5.806   1.240   9.576 -0.3231  0.7391 -0.3794
    8CHL1  H18A  546   5.723   1.308   9.549 -1.4765 -0.4422  0.1088
    8CHL1  H18B  547   5.816   1.157   9.502  1.7366  0.5464  0.0599
    8CHL1  H18C  548   5.798   1.189   9.674  0.7346  1.7390  0.2475
    8CHL1   C12  549   6.059   1.219   9.608 -0.0079 -0.0014 -0.3921
    8CHL1  H12A  550   6.048   1.132   9.540 -1.8373  0.3550 -0.6044
    8CHL1  H12B  551   6.154   1.272   9.585 -0.4862 -0.3351 -3.5465
    8CHL1   C11  552   6.049   1.169   9.762 -0.1909 -0.1007 -0.4703
    8CHL1  H11A  553   5.979   1.084   9.747 -0.6578  0.7047 -3.6488
    8CHL1  H11B  554   6.151   1.127   9.776 -0.1665 -0.0455 -0.4831
    8CHL1    C9  555   6.013   1.277   9.864  0.0429  0.0725 -0.4758
    8CHL1    H9  556   6.107   1.334   9.881 -0.9354  1.1292  1.7308
    8CHL1   C10  557   5.974   1.222  10.005  0.1601 -0.0947  0.1652
    8CHL1   C19  558   5.885   1.100   9.991  0.3137  0.3633  0.0625
    8CHL1  H19A  559   5.852   1.077  10.095  0.8269 -1.3404 -0.1199
    8CHL1  H19B  560   5.800   1.128   9.925  0.1385  0.0616  0.1540
    8CHL1  H19C  561   5.937   1.008   9.957 -2.3171 -1.2636  0.1456
    8CHL1    C1  562   6.100   1.170  10.076  0.7502 -0.3650  0.8266
    8CHL1   H1A  563   6.123   1.072  10.029  0.4314  0.5807 -1.4316
    8CHL1   H1B  564   6.186   1.237  10.055  1.0436 -0.9833  0.0128
    8CHL1    C2  565   6.089   1.142  10.232  0.5233  0.7341  0.1163
    8CHL1   H2A  566   6.196   1.124  10.257  1.0927  1.4957 -1.6404
    8CHL1   H2B  567   6.027   1.053  10.254 -2.2056  2.7394  1.0906
    8CHL1   C20  568   5.941   1.341   9.307 -0.0327  0.0377  0.1568
    8CHL1   H20  569   5.835   1.312   9.293 -0.7513  2.2669  0.4790
    8CHL1   C21  570   6.032   1.214   9.293  1.0221 -0.0343  0.1009
    8CHL1  H21A  571   6.007   1.122   9.350 -0.3022  0.8769  1.0428
    8CHL1  H21B  572   6.122   1.243   9.351 -0.4098 -1.6098  3.3253
    8CHL1  H21C  573   6.047   1.180   9.188 -2.1757  0.7282 -0.7168
    8CHL1   C22  574   5.990   1.450   9.206 -0.7497 -0.3377  0.4815
    8CHL1  H22A  575   5.934   1.545   9.213  0.4095  0.5693 -1.5627
    8CHL1  H22B  576   6.099   1.470   9.215 -0.7211 -0.2125 -0.0628
    8CHL1   C23  577   5.966   1.403   9.061  0.0382  0.1087  0.0292
    8CHL1  H23A  578   6.010   1.305   9.029  1.4195  1.1943 -1.5701
    8CHL1  H23B  579   5.861   1.368   9.067 -0.4317  1.7093  1.5715
    8CHL1   C24  580   5.989   1.519   8.966 -0.0761  1.0135 -0.1963
    8CHL1  H24A  581   5.914   1.595   8.995  0.3042  1.2224  0.2623
    8CHL1  H24B  582   6.094   1.551   8.987  1.3214 -2.3872 -1.1312
    8CHL1   C25  583   5.958   1.484   8.820 -0.0384  0.0569 -0.1636
    8CHL1   H25  584   5.875   1.412   8.834  0.7680 -0.6077  1.6363
    8CHL1   C26  585   5.921   1.610   8.743  0.4320 -0.1547 -0.4988
    8CHL1  H26A  586   5.853   1.671   8.807  1.2116  1.1801 -0.9220
    8CHL1  H26B  587   6.010   1.672   8.721  0.4218 -1.0302 -3.3883
    8CHL1  H26C  588   5.863   1.588   8.651 -0.2587 -0.6984  0.0490
    8CHL1   C27  589   6.086   1.422   8.761 -0.7515  0.5176 -0.2001
    8CHL1  H27A  590   6.118   1.339   8.829  0.5441  0.6736 -0.6058
    8CHL1  H27B  591   6.061   1.374   8.664 -0.0539 -1.0716  0.3738
    8CHL1  H27C  592   6.155   1.508   8.752  1.5375 -1.0377  1.2982
    9CHL1    C3  593   1.765   3.585   9.956  0.1675 -0.0388 -0.0694
    9CHL1    H3  594   1.867   3.607   9.917 -0.1993  1.6356 -0.1617
    9CHL1    O3  595   1.768   3.558  10.095 -0.2619  0.1402 -0.2133
    9CHL1   H3'  596   1.679   3.530  10.116  0.2205 -0.4227  1.1774
    9CHL1    C4  597   1.684   3.718   9.924 -0.6511 -0.2462 -0.0803
    9CHL1   H4A  598   1.578   3.709   9.958 -0.9953  1.6951 -0.4995
    9CHL1   H4B  599   1.719   3.805   9.983  0.7839  0.0626 -1.3116
    9CHL1    C5  600   1.690   3.747   9.771  0.2470  0.4500 -0.2112
    9CHL1    C6  601   1.752   3.859   9.732  0.2431 -0.2638 -0.2693
    9CHL1    H6  602   1.798   3.928   9.804 -1.6462  0.7098  0.0674
    9CHL1    C7  603   1.763   3.898   9.587  0.5973 -0.5061 -0.3038
    9CHL1   H7A  604   1.727   4.001   9.565 -0.0461 -1.1535 -2.5451
    9CHL1   H7B  605   1.866   3.881   9.547 -0.0961 -1.3149 -1.8274
    9CHL1    C8  606   1.683   3.811   9.486 -0.8065 -0.1851  0.2922
    9CHL1    H8  607   1.579   3.848   9.492 -0.4924  0.7703 -0.0736
    9CHL1   C14  608   1.745   3.829   9.347  0.7769 -0.6566 -0.5490
    9CHL1   H14  609   1.847   3.787   9.362  0.2497 -1.6928  0.2344
    9CHL1   C15  610   1.751   3.967   9.288 -0.0006 -0.4219  0.1459
    9CHL1  H15A  611   1.660   4.028   9.304  0.7316  0.8104 -0.2454
    9CHL1  H15B  612   1.839   4.025   9.323  1.0233 -1.4511 -0.6685
    9CHL1   C16  613   1.765   3.944   9.139 -0.1178  0.9017  0.0601
    9CHL1  H16A  614   1.677   3.987   9.087 -0.2555 -1.7799 -2.1261
    9CHL1  H16B  615   1.859   3.978   9.090 -0.6359  1.5103 -0.5451
    9CHL1   C17  616   1.749   3.785   9.111  0.1307 -0.0840 -0.0464
    9CHL1   H17  617   1.851   3.739   9.104  0.8332  1.6266 -2.3241
    9CHL1   C13  618   1.686   3.738   9.242  0.1987 -0.8595 -0.1273
    9CHL1   C18  619   1.536   3.772   9.229 -1.0044 -0.3624 -0.7410
    9CHL1  H18A  620   1.489   3.698   9.161 -2.3080 -0.4591  0.2366
    9CHL1  H18B  621   1.480   3.751   9.323  0.3474  0.6463  0.3430
    9CHL1  H18C  622   1.523   3.880   9.206  0.8643 -0.6686 -3.8929
    9CHL1   C12  623   1.708   3.587   9.279 -0.2366 -0.4089  0.3867
    9CHL1  H12A  624   1.646   3.524   9.212 -2.5437  1.4887  0.5806
    9CHL1  H12B  625   1.814   3.554   9.273 -0.4716 -1.0241 -0.6559
    9CHL1   C11  626   1.649   3.564   9.425 -0.2868  0.2463 -0.1587
    9CHL1  H11A  627   1.539   3.576   9.416 -0.0378  1.3545 -2.3815
    9CHL1  H11B  628   1.664   3.462   9.468  0.9519  0.6402  0.3857
    9CHL1    C9  629   1.693   3.664   9.532  0.7217 -0.5976  0.0352
    9CHL1    H9  630   1.804   3.656   9.535  1.0058  1.8117 -1.1369
    9CHL1   C10  631   1.650   3.628   9.673  0.5410 -1.3226  0.1622
    9CHL1   C19  632   1.489   3.627   9.679 -0.5929 -0.5613  0.4530
    9CHL1  H19A  633   1.444   3.550   9.612 -2.0379  1.6519 -1.2861
    9CHL1  H19B  634   1.443   3.619   9.780 -2.3690  2.4234  0.0017
    9CHL1  H19C  635   1.441   3.717   9.634 -0.5120  0.1631  1.7723
    9CHL1    C1  636   1.703   3.494   9.728  0.4084  0.0623 -0.0362
    9CHL1   H1A  637   1.648   3.411   9.678  0.9005 -0.3194  0.0473
    9CHL1   H1B  638   1.810   3.489   9.697  0.3490  2.8036 -0.9214
    9CHL1    C2  639   1.697   3.472   9.879 -0.0140  0.1323  0.0427
    9CHL1   H2A  640   1.751   3.379   9.906  0.3235  0.5827  0.9460
    9CHL1   H2B  641   1.588   3.462   9.900  0.5975 -0.9121  3.1641
    9CHL1   C20  642   1.684   3.752   8.980  0.7928  0.4250 -0.2653
    9CHL1   H20  643   1.582   3.797   8.973 -0.1097 -1.5748 -0.7947
    9CHL1   C21  644   1.661   3.602   8.962 -0.4549  0.1862  0.0840
    9CHL1  H21A  645   1.570   3.574   9.018 -0.2807 -0.3497  0.1075
    9CHL1  H21B  646   1.740   3.541   9.011 -0.6638  0.0913  0.3034
    9CHL1  H21C  647   1.650   3.579   8.854  0.5642  0.0215  0.0068
    9CHL1   C22  648   1.761   3.828   8.863  0.1344  0.0959 -0.4914
    9CHL1  H22A  649   1.695   3.813   8.775 -0.6104  0.9642 -0.0985
    9CHL1  H22B  650   1.768   3.936   8.890  0.5621 -0.0765  0.1059
    9CHL1   C23  651   1.898   3.773   8.823 -0.1882  0.0202  0.6025
    9CHL1  H23A  652   1.967   3.784   8.910  1.8153  0.9554 -1.0292
    9CHL1  H23B  653   1.902   3.665   8.797  0.7455  0.5553 -1.6772
    9CHL1   C24  654   1.948   3.849   8.703  0.4246  0.6278  0.8142
    9CHL1  H24A  655   1.878   3.846   8.617  1.3973  0.8360 -0.0131
    9CHL1  H24B  656   1.944   3.957   8.729 -0.5349  1.0113 -0.7711
    9CHL1   C25  657   2.086   3.810   8.651 -0.6050 -0.2945 -0.1745
    9CHL1   H25  658   2.079   3.699   8.641 -1.5668 -0.0697 -2.7318
    9CHL1   C26  659   2.116   3.861   8.514 -0.2517  0.0981 -0.3251
    9CHL1  H26A  660   2.075   3.957   8.478  1.4689  1.2979  0.7689
    9CHL1  H26B  661   2.225   3.876   8.497 -0.5964  1.6031 -1.3887
    9CHL1  H26C  662   2.086   3.788   8.436 -1.2561 -0.0234  0.1620
    9CHL1   C27  663   2.187   3.869   8.754 -1.2673 -0.2028  0.4145
    9CHL1  H27A  664   2.174   3.820   8.853 -2.0410 -0.6643  0.0921
    9CHL1  H27B  665   2.290   3.838   8.727 -0.2028  0.8257  2.9472
    9CHL1  H27C  666   2.185   3.979   8.772 -0.0916  0.1313 -1.3149
   10CHL1    C3  667   1.215   1.727   9.976  0.2345  1.0666 -0.2085
   10CHL1    H3  668   1.170   1.828   9.984 -1.4520  0.4945 -1.7071
   10CHL1    O3  669   1.253   1.662  10.100 -0.2077 -0.0213 -0.1901
   10CHL1   H3'  670   1.177   1.669  10.158  0.5124  1.6167  0.6371
   10CHL1    C4  671   1.096   1.639   9.921 -0.1030  0.2989  0.4502
   10CHL1   H4A  672   1.141   1.538   9.906  0.8942  0.5432  1.6115
   10CHL1   H4B  673   1.024   1.641  10.006 -0.0176  2.0758  0.5048
   10CHL1    C5  674   1.044   1.685   9.788  0.7295 -0.1763  0.2518
   10CHL1    C6  675   0.916   1.732   9.771 -0.3139  0.0717 -0.2266
   10CHL1    H6  676   0.846   1.706   9.852 -1.3493  0.1634 -1.0707
   10CHL1    C7  677   0.861   1.795   9.649  0.0396 -0.2403  1.1722
   10CHL1   H7A  678   0.753   1.785   9.628  0.4716  0.0434 -1.6144
   10CHL1   H7B  679   0.872   1.905   9.662  2.2938 -0.1655 -0.6300
   10CHL1    C8  680   0.948   1.759   9.516 -0.2071 -0.4329 -0.1510
   10CHL1    H8  681   0.940   1.655   9.480  0.1157 -1.2816  2.1054
   10CHL1   C14  682   0.913   1.855   9.404 -0.7428  0.3583  0.3369
   10CHL1   H14  683   0.925   1.961   9.434 -2.9307  0.5435  0.7102
   10CHL1   C15  684   0.765   1.861   9.352 -0.4077  0.4431  0.4509
   10CHL1  H15A  685   0.721   1.759   9.358  0.4819  0.1377  3.3968
   10CHL1  H15B  686   0.702   1.932   9.410 -0.0493  2.0775 -1.0542
   10CHL1   C16  687   0.772   1.904   9.204  0.2417 -0.0503  0.2044
   10CHL1  H16A  688   0.742   1.820   9.138 -2.1921  0.3348  0.7090
   10CHL1  H16B  689   0.706   1.991   9.182 -1.3968 -1.2706  0.1245
   10CHL1   C17  690   0.927   1.929   9.176  0.0085 -0.0379 -0.1902
   10CHL1   H17  691   0.955   2.032   9.208 -2.4851  0.0981  1.8338
   10CHL1   C13  692   1.004   1.841   9.281  0.0264 -0.4058 -0.5392
   10CHL1   C18  693   0.998   1.700   9.218  0.3918 -0.3216 -0.4398
   10CHL1  H18A  694   1.082   1.685   9.147  0.1323 -0.6480 -0.6835
   10CHL1  H18B  695   1.009   1.619   9.294  0.6512 -1.1893 -1.3755
   10CHL1  H18C  696   0.896   1.684   9.177 -0.0916  2.3029 -0.4213
   10CHL1   C12  697   1.143   1.884   9.315 -0.0222  0.6154  0.2384
   10CHL1  H12A  698   1.210   1.879   9.227  0.7886  3.8200  0.5501
   10CHL1  H12B  699   1.145   1.989   9.351  0.6042  1.4880 -2.1924
   10CHL1   C11  700   1.201   1.805   9.436  0.1929  0.6473  0.2592
   10CHL1  H11A  701   1.225   1.702   9.401  1.9561  1.4019 -0.9362
   10CHL1  H11B  702   1.290   1.858   9.475 -1.2902  2.6346  1.0845
   10CHL1    C9  703   1.100   1.792   9.553  0.9668 -0.5611  0.0260
   10CHL1    H9  704   1.089   1.898   9.584  0.2662 -0.1863 -1.4011
   10CHL1   C10  705   1.151   1.710   9.677  0.4421  0.3336  0.2278
   10CHL1   C19  706   1.192   1.580   9.613 -0.6520 -0.6076  0.4074
   10CHL1  H19A  707   1.114   1.549   9.541 -0.3973 -0.0601 -0.1148
   10CHL1  H19B  708   1.286   1.598   9.557 -1.4339  0.1035 -0.7068
   10CHL1  H19C  709   1.199   1.502   9.692 -0.0837 -0.0666  0.8984
   10CHL1    C1  710   1.272   1.783   9.741  0.2319 -0.1603  0.2027
   10CHL1   H1A  711   1.358   1.784   9.670 -1.0360 -0.5829 -1.3908
   10CHL1   H1B  712   1.238   1.887   9.759 -0.7669 -0.5456  0.6422
   10CHL1    C2  713   1.327   1.720   9.870  0.9496  0.0914  0.5578
   10CHL1   H2A  714   1.411   1.780   9.912  1.3779 -0.0168 -0.1239
   10CHL1   H2B  715   1.347   1.611   9.864 -1.6455 -0.5208  1.6166
   10CHL1   C20  716   0.984   1.920   9.031  0.0838  0.2635  0.1275
   10CHL1   H20  717   1.089   1.882   9.030  0.6510  1.6517 -2.5315
   10CHL1   C21  718   0.999   2.074   8.982  0.1055  1.0934 -0.2548
   10CHL1  H21A  719   0.902   2.119   8.951 -0.6966  0.6429  1.4318
   10CHL1  H21B  720   1.075   2.069   8.902  1.2914 -1.3359  0.9055
   10CHL1  H21C  721   1.058   2.131   9.056  3.0593 -0.7238 -1.0446
   10CHL1   C22  722   0.898   1.841   8.929  0.0761  0.7777 -0.2284
   10CHL1  H22A  723   0.886   1.738   8.969 -1.0012  1.5245  1.4854
   10CHL1  H22B  724   0.795   1.883   8.928 -0.4543 -0.5025 -0.6631
   10CHL1   C23  725   0.962   1.822   8.790  0.5161 -0.4694  0.1299
   10CHL1  H23A  726   0.964   1.926   8.751  1.5786 -0.9899 -1.2804
   10CHL1  H23B  727   1.063   1.778   8.785  0.2293 -1.2585  1.0114
   10CHL1   C24  728   0.867   1.744   8.700 -0.2053  0.8281 -0.3514
   10CHL1  H24A  729   0.857   1.640   8.740 -1.1429  0.8038 -0.6180
   10CHL1  H24B  730   0.767   1.792   8.693 -0.5203 -0.0122 -2.5250
   10CHL1   C25  731   0.906   1.723   8.550 -0.1413  0.4220 -0.5335
   10CHL1   H25  732   0.893   1.824   8.505  1.5070 -0.4496 -3.2013
   10CHL1   C26  733   1.047   1.662   8.529 -0.7931 -0.2663  0.2385
   10CHL1  H26A  734   1.052   1.552   8.547  2.9767 -1.2732 -4.7993
   10CHL1  H26B  735   1.073   1.676   8.422 -0.2548  2.7033  0.6960
   10CHL1  H26C  736   1.123   1.724   8.580 -2.3289  2.4735 -0.6169
   10CHL1   C27  737   0.819   1.620   8.476 -0.4999 -0.3369 -0.3928
   10CHL1  H27A  738   0.849   1.604   8.370 -0.3570 -2.6627 -0.0532
   10CHL1  H27B  739   0.822   1.524   8.531 -1.2417  0.5229  1.2133
   10CHL1  H27C  740   0.712   1.650   8.477 -1.0363 -1.8145  3.4758
   11CHL1    C3  741   3.004   4.549   9.975  0.2002 -0.5927  0.6804
   11CHL1    H3  742   2.901   4.589   9.961  1.2992  1.7951 -1.3865
   11CHL1    O3  743   3.030   4.533  10.114  0.1035  0.4763 -0.0434
   11CHL1   H3'  744   3.122   4.509  10.113 -0.7791 -3.5111 -0.5303
   11CHL1    C4  745   3.005   4.405   9.910 -0.4028 -0.5992  0.5895
   11CHL1   H4A  746   3.098   4.351   9.937  0.5315 -0.3033 -1.8098
   11CHL1   H4B  747   2.921   4.357   9.964 -0.6853  0.8461  1.5051
   11CHL1    C5  748   2.984   4.406   9.764  1.1301  0.6197  0.6056
   11CHL1    C6  749   2.876   4.349   9.702  0.2991  0.0830 -0.3586
   11CHL1    H6  750   2.798   4.300   9.762  1.6251  0.9335  2.2188
   11CHL1    C7  751   2.853   4.358   9.558 -0.4779 -0.0566  0.5983
   11CHL1   H7A  752   2.820   4.260   9.516  1.3336  0.1072 -1.3914
   11CHL1   H7B  753   2.763   4.419   9.535 -0.7611 -0.4956  0.5358
   11CHL1    C8  754   2.981   4.395   9.478  0.3549 -0.0817 -0.2838
   11CHL1    H8  755   3.044   4.304   9.486 -0.7659 -0.8449  0.1215
   11CHL1   C14  756   2.945   4.426   9.330  0.0723 -0.0616  0.3344
   11CHL1   H14  757   2.881   4.515   9.338 -1.2687 -0.8961 -0.6567
   11CHL1   C15  758   2.857   4.320   9.259  0.1262 -0.0346  0.0295
   11CHL1  H15A  759   2.903   4.222   9.285  0.0757 -0.1240 -0.2094
   11CHL1  H15B  760   2.749   4.328   9.284  0.1035 -2.0314  0.7224
   11CHL1   C16  761   2.878   4.346   9.106 -0.5307  0.1551  0.1288
   11CHL1  H16A  762   2.910   4.248   9.064 -0.6019 -1.0827  2.7407
   11CHL1  H16B  763   2.785   4.374   9.052 -0.3444 -0.2833 -0.4272
   11CHL1   C17  764   2.981   4.462   9.099 -0.5392 -0.5703 -0.0622
   11CHL1   H17  765   2.925   4.558   9.092  0.3690  0.0496  0.9844
   11CHL1   C13  766   3.060   4.464   9.232 -0.0740 -1.0883 -0.3245
   11CHL1   C18  767   3.169   4.363   9.219 -0.1834 -0.4123  0.3006
   11CHL1  H18A  768   3.223   4.340   9.313  0.0701 -0.9163  0.0382
   11CHL1  H18B  769   3.134   4.267   9.174 -2.4440  0.5036 -0.0482
   11CHL1  H18C  770   3.254   4.390   9.153  0.5565 -0.7544  1.0959
   11CHL1   C12  771   3.114   4.595   9.297  0.5030  0.4392  0.2956
   11CHL1  H12A  772   3.190   4.650   9.239  0.8300 -0.2529  0.0591
   11CHL1  H12B  773   3.031   4.666   9.316  1.1085  1.3735 -0.4901
   11CHL1   C11  774   3.160   4.566   9.441 -0.5287  0.5665  0.6357
   11CHL1  H11A  775   3.252   4.503   9.446 -0.9491 -0.1771 -0.4396
   11CHL1  H11B  776   3.198   4.660   9.485 -0.3562  1.0754 -0.5626
   11CHL1    C9  777   3.049   4.516   9.543 -0.2139  0.4430  0.9871
   11CHL1    H9  778   2.965   4.588   9.547 -1.0546 -0.3229 -1.2151
   11CHL1   C10  779   3.098   4.489   9.683  0.7316 -0.3534  0.6113
   11CHL1   C19  780   3.232   4.434   9.692 -0.5009 -0.0161 -0.1486
   11CHL1  H19A  781   3.238   4.360   9.610  1.4601  1.3761 -1.3654
   11CHL1  H19B  782   3.313   4.508   9.675 -1.7661  1.4350 -0.1085
   11CHL1  H19C  783   3.249   4.380   9.788 -0.3723 -0.5364 -0.4607
   11CHL1    C1  784   3.095   4.629   9.755 -0.6165  0.5228 -0.1380
   11CHL1   H1A  785   3.167   4.704   9.715 -2.4794  1.9301 -1.0223
   11CHL1   H1B  786   2.996   4.680   9.743 -0.3543  0.6966 -1.8900
   11CHL1    C2  787   3.116   4.618   9.905 -0.8503 -0.4230  0.5320
   11CHL1   H2A  788   3.114   4.721   9.948 -0.8762 -0.2253  0.0640
   11CHL1   H2B  789   3.204   4.555   9.930 -0.9737 -1.2793 -1.0499
   11CHL1   C20  790   3.062   4.471   8.965 -0.1897  0.1960  0.3244
   11CHL1   H20  791   3.129   4.383   8.954  0.9915  0.9437  1.1852
   11CHL1   C21  792   3.148   4.601   8.972 -0.2772 -1.3089 -0.6265
   11CHL1  H21A  793   3.229   4.587   9.047  0.7706  1.3273 -1.1368
   11CHL1  H21B  794   3.079   4.685   8.994  0.9210  0.4438 -3.0899
   11CHL1  H21C  795   3.201   4.613   8.875  1.3112 -1.2467  0.2177
   11CHL1   C22  796   2.960   4.472   8.848  0.0856 -0.0011 -1.0334
   11CHL1  H22A  797   2.884   4.391   8.855  1.8823 -1.6842  0.6879
   11CHL1  H22B  798   2.892   4.559   8.846  2.4618  2.0035 -0.1863
   11CHL1   C23  799   3.036   4.457   8.712  1.1691  0.1015 -0.1784
   11CHL1  H23A  800   3.062   4.556   8.669 -1.6106  0.4556 -1.2668
   11CHL1  H23B  801   3.129   4.396   8.718  0.3247 -1.1489  0.5417
   11CHL1   C24  802   2.946   4.391   8.615  0.6303  0.2572 -0.0162
   11CHL1  H24A  803   2.952   4.283   8.640 -0.0457 -0.2284 -1.7679
   11CHL1  H24B  804   2.839   4.422   8.617  0.8468  1.0683  3.1014
   11CHL1   C25  805   2.998   4.408   8.476  0.0026  0.4906  0.2338
   11CHL1   H25  806   3.106   4.384   8.478  0.1233  0.6693 -1.9712
   11CHL1   C26  807   2.927   4.306   8.383  0.2197  0.1468 -0.2042
   11CHL1  H26A  808   2.986   4.315   8.290  0.4840  0.4475 -0.0040
   11CHL1  H26B  809   2.940   4.200   8.416 -1.8744 -0.2825 -0.5825
   11CHL1  H26C  810   2.818   4.330   8.386  0.5637  1.7957 -0.4440
   11CHL1   C27  811   2.975   4.545   8.425 -0.4270  0.2698  0.4256
   11CHL1  H27A  812   3.010   4.562   8.321 -1.1797 -2.6213 -0.3739
   11CHL1  H27B  813   2.870   4.577   8.409  0.0335  0.8533 -1.7333
   11CHL1  H27C  814   3.026   4.629   8.477  2.3576 -2.4997  2.5820
   12CHL1    C3  815   6.121   6.584  10.061 -0.4587 -0.3369 -1.0532
   12CHL1    H3  816   6.094   6.479  10.037 -0.6149 -0.3853 -0.6844
   12CHL1    O3  817   6.100   6.600  10.201 -0.0297 -0.3930  0.5129
   12CHL1   H3'  818   6.097   6.692  10.230  0.1979 -1.1116  3.0929
   12CHL1    C4  819   6.264   6.619  10.039  0.0616  0.0466  0.2404
   12CHL1   H4A  820   6.283   6.722  10.077 -2.3856  0.4114  0.5903
   12CHL1   H4B  821   6.331   6.546  10.089  1.4899  0.9604 -0.2386
   12CHL1    C5  822   6.280   6.599   9.886  0.1930 -0.4544  0.3828
   12CHL1    C6  823   6.366   6.510   9.834 -0.1625  0.1551  0.1576
   12CHL1    H6  824   6.420   6.444   9.904 -1.1010 -0.7470  0.0637
   12CHL1    C7  825   6.408   6.508   9.684 -0.9609  0.6589  0.0936
   12CHL1   H7A  826   6.518   6.503   9.673 -1.2172 -1.4428 -2.5405
   12CHL1   H7B  827   6.380   6.410   9.641 -1.6497  1.0739 -0.4279
   12CHL1    C8  828   6.358   6.628   9.598 -0.2537 -0.6689 -0.6037
   12CHL1    H8  829   6.432   6.705   9.629 -1.5664 -0.1700  1.5817
   12CHL1   C14  830   6.370   6.599   9.447  0.1396  0.3688 -0.6127
   12CHL1   H14  831   6.300   6.514   9.431  2.2151 -2.1813  2.5916
   12CHL1   C15  832   6.509   6.556   9.403  0.0891 -0.5556 -0.1620
   12CHL1  H15A  833   6.586   6.613   9.459 -1.5805 -0.1854  1.8994
   12CHL1  H15B  834   6.528   6.447   9.413 -1.2019 -0.9198 -1.3590
   12CHL1   C16  835   6.507   6.592   9.258  0.3253  0.0143 -0.3817
   12CHL1  H16A  836   6.598   6.647   9.224  0.4492 -0.1366 -0.2982
   12CHL1  H16B  837   6.514   6.500   9.196 -0.1766 -0.8021  0.7495
   12CHL1   C17  838   6.373   6.675   9.221  0.2254  0.2373 -0.5592
   12CHL1   H17  839   6.296   6.601   9.193  0.0177  0.7446 -1.3673
   12CHL1   C13  840   6.324   6.721   9.356  0.1835  0.7949 -0.5477
   12CHL1   C18  841   6.408   6.842   9.388  0.6351  0.1027  0.5032
   12CHL1  H18A  842   6.394   6.878   9.492 -1.8127 -1.9544  0.9931
   12CHL1  H18B  843   6.517   6.834   9.371  0.6109 -1.7153  1.0300
   12CHL1  H18C  844   6.368   6.928   9.330 -1.3915 -0.7309  0.5487
   12CHL1   C12  845   6.178   6.745   9.388 -0.5394  0.4931 -0.6697
   12CHL1  H12A  846   6.142   6.836   9.334  0.7493  0.2998 -1.9064
   12CHL1  H12B  847   6.110   6.661   9.362 -0.6996  0.1943  0.6368
   12CHL1   C11  848   6.158   6.775   9.539  0.1935  0.1409  1.0239
   12CHL1  H11A  849   6.206   6.873   9.560  1.0469 -0.3063  1.1941
   12CHL1  H11B  850   6.050   6.783   9.563 -0.4581 -0.6538 -1.4002
   12CHL1    C9  851   6.215   6.671   9.636  0.3925  0.0757 -0.0557
   12CHL1    H9  852   6.147   6.585   9.617  1.6905 -0.7385 -1.1931
   12CHL1   C10  853   6.197   6.692   9.789 -0.1421  0.1867 -0.4674
   12CHL1   C19  854   6.240   6.840   9.806 -0.4944 -0.3988  0.6175
   12CHL1  H19A  855   6.250   6.857   9.916 -1.5736  0.7030  0.5672
   12CHL1  H19B  856   6.326   6.863   9.740 -0.9235 -0.9344 -0.1301
   12CHL1  H19C  857   6.150   6.899   9.782 -2.9356 -2.6457  3.4870
   12CHL1    C1  858   6.054   6.674   9.832  0.5877 -0.0552 -0.0725
   12CHL1   H1A  859   5.988   6.745   9.778  0.1819 -1.8569 -2.0564
   12CHL1   H1B  860   6.020   6.578   9.786 -0.1128 -0.6575  1.6256
   12CHL1    C2  861   6.026   6.678   9.983  0.6367 -0.1910  0.6997
   12CHL1   H2A  862   5.917   6.661   9.998  0.5879  0.9021  1.7307
   12CHL1   H2B  863   6.046   6.783  10.013 -1.0290  0.4109 -0.1237
   12CHL1   C20  864   6.389   6.758   9.097 -0.8234  0.5153 -0.0290
   12CHL1   H20  865   6.476   6.825   9.113 -1.5057  1.5410 -0.4896
   12CHL1   C21  866   6.265   6.850   9.080  0.3266  0.1108  0.2291
   12CHL1  H21A  867   6.260   6.932   9.155 -2.1239 -0.1779  0.4699
   12CHL1  H21B  868   6.173   6.792   9.103  1.3882 -0.9025  2.2007
   12CHL1  H21C  869   6.267   6.898   8.980 -1.7787  1.1912  0.6462
   12CHL1   C22  870   6.406   6.669   8.976  0.4972  0.9505 -0.2166
   12CHL1  H22A  871   6.483   6.593   8.999 -2.1455 -1.0469  3.0334
   12CHL1  H22B  872   6.311   6.611   8.972  0.4055  1.1279 -0.6991
   12CHL1   C23  873   6.434   6.740   8.847  0.5028  0.3592  0.6518
   12CHL1  H23A  874   6.341   6.780   8.803  0.7123  0.8730  0.6635
   12CHL1  H23B  875   6.503   6.826   8.859  1.4807 -0.4785  1.2855
   12CHL1   C24  876   6.466   6.632   8.739 -0.1453 -0.4343 -0.0419
   12CHL1  H24A  877   6.567   6.586   8.746 -0.2638 -0.9556 -1.4433
   12CHL1  H24B  878   6.385   6.557   8.745 -0.0369 -0.6102 -0.6643
   12CHL1   C25  879   6.469   6.686   8.596 -0.9286  0.3671 -0.2418
   12CHL1   H25  880   6.552   6.760   8.599 -2.3028  1.9844  3.1366
   12CHL1   C26  881   6.507   6.570   8.497  0.1494  0.1871 -0.2540
   12CHL1  H26A  882   6.423   6.497   8.495 -1.5486  2.0201  0.5797
   12CHL1  H26B  883   6.523   6.615   8.397 -4.9348  0.8062 -1.0701
   12CHL1  H26C  884   6.595   6.510   8.525 -1.6622 -2.6336 -0.1843
   12CHL1   C27  885   6.346   6.756   8.543  0.0090  0.8137 -0.5611
   12CHL1  H27A  886   6.370   6.791   8.441  3.5603 -0.9127 -0.4671
   12CHL1  H27B  887   6.255   6.693   8.534 -0.0158  0.3405  2.1595
   12CHL1  H27C  888   6.330   6.849   8.602 -0.2759  0.1592  0.4218
   13CHL1    C3  889   5.788   2.668   9.682 -0.5813 -0.0060  0.2220
   13CHL1    H3  890   5.808   2.581   9.616  0.4955  0.0888  0.4039
   13CHL1    O3  891   5.794   2.614   9.814  0.2611  0.0263 -0.0663
   13CHL1   H3'  892   5.757   2.670   9.882  0.0757  0.2011 -0.3145
   13CHL1    C4  893   5.879   2.787   9.661  0.1568 -0.6959 -0.8048
   13CHL1   H4A  894   5.849   2.855   9.743 -0.4979  0.3707 -1.9071
   13CHL1   H4B  895   5.981   2.751   9.687 -0.4111 -0.4671  2.0120
   13CHL1    C5  896   5.874   2.863   9.530 -0.3957  0.0142 -0.4095
   13CHL1    C6  897   5.981   2.895   9.455 -0.3383 -0.5411  0.2304
   13CHL1    H6  898   6.081   2.855   9.480  0.3535 -0.3258 -2.0111
   13CHL1    C7  899   5.967   2.984   9.327  0.3003 -0.3397  0.1076
   13CHL1   H7A  900   6.043   3.065   9.322 -0.4022  0.2354 -3.5099
   13CHL1   H7B  901   5.999   2.913   9.248  0.1341 -3.1580  2.4103
   13CHL1    C8  902   5.827   3.053   9.314  0.5286 -0.2476 -0.1080
   13CHL1    H8  903   5.819   3.140   9.382  2.3695 -0.1667  0.0513
   13CHL1   C14  904   5.806   3.111   9.175 -0.6488  0.1511  0.1746
   13CHL1   H14  905   5.806   3.029   9.099 -2.8615 -3.7484  3.9460
   13CHL1   C15  906   5.912   3.207   9.131 -0.2160  0.4592  0.7269
   13CHL1  H15A  907   5.928   3.292   9.200 -1.2954  1.6292 -0.3981
   13CHL1  H15B  908   6.002   3.151   9.100 -1.7489 -1.7585  0.0319
   13CHL1   C16  909   5.852   3.257   9.000  0.1399 -0.4778  0.4724
   13CHL1  H16A  910   5.879   3.364   8.988 -0.5284  0.2379  3.9846
   13CHL1  H16B  911   5.880   3.193   8.914  0.1491  0.4885 -0.2608
   13CHL1   C17  912   5.690   3.238   9.003 -0.3787 -0.0586  0.5619
   13CHL1   H17  913   5.674   3.151   8.937  1.0978  1.6968 -2.3318
   13CHL1   C13  914   5.672   3.180   9.143  0.4573 -0.0823 -0.3349
   13CHL1   C18  915   5.640   3.294   9.245  0.5091 -0.2163  0.7912
   13CHL1  H18A  916   5.727   3.363   9.241 -0.2271  0.6942 -2.5491
   13CHL1  H18B  917   5.546   3.347   9.221  1.3371 -0.0410 -2.4728
   13CHL1  H18C  918   5.626   3.264   9.351 -0.8565  0.0164  0.7031
   13CHL1   C12  919   5.575   3.059   9.150 -0.0180  0.7057  0.4729
   13CHL1  H12A  920   5.471   3.088   9.123  0.0534  1.2609  0.7737
   13CHL1  H12B  921   5.596   2.971   9.086 -1.6397  0.2449  0.5182
   13CHL1   C11  922   5.578   2.988   9.288  0.2470  0.1367  0.1837
   13CHL1  H11A  923   5.534   3.060   9.361  1.5537  2.7226 -1.4093
   13CHL1  H11B  924   5.514   2.898   9.285 -1.0366  1.0293 -1.5162
   13CHL1    C9  925   5.718   2.946   9.344  0.1663  0.1623  0.0001
   13CHL1    H9  926   5.747   2.862   9.277 -1.1561  0.3908 -0.9104
   13CHL1   C10  927   5.725   2.893   9.492 -0.0757 -0.3547  0.3643
   13CHL1   C19  928   5.664   2.992   9.594  0.4998 -0.0957 -0.5116
   13CHL1  H19A  929   5.701   3.097   9.592  0.7832 -0.2044 -1.2309
   13CHL1  H19B  930   5.555   3.008   9.579  0.4080 -1.3676 -1.3827
   13CHL1  H19C  931   5.682   2.971   9.702  2.1487  0.7373 -0.5847
   13CHL1    C1  932   5.636   2.760   9.504 -0.1058 -0.1138 -0.8828
   13CHL1   H1A  933   5.529   2.790   9.495  0.2783  1.5911 -0.1307
   13CHL1   H1B  934   5.665   2.686   9.426 -0.1859 -0.9945 -0.0884
   13CHL1    C2  935   5.646   2.707   9.652 -0.3644  0.1314  0.7474
   13CHL1   H2A  936   5.582   2.616   9.655  0.0292 -0.1665  0.2165
   13CHL1   H2B  937   5.607   2.781   9.726 -0.8644 -0.9638  1.6017
   13CHL1   C20  938   5.608   3.362   8.959  0.3581  0.1375 -0.1569
   13CHL1   H20  939   5.608   3.440   9.038 -1.1205 -1.0473  1.0982
   13CHL1   C21  940   5.458   3.317   8.952 -0.5109 -0.0236 -0.3121
   13CHL1  H21A  941   5.434   3.281   9.054  2.8900  3.4106  1.9712
   13CHL1  H21B  942   5.453   3.227   8.887 -3.2433 -0.3253  0.2163
   13CHL1  H21C  943   5.382   3.394   8.925 -1.0573 -0.5992 -0.4427
   13CHL1   C22  944   5.651   3.413   8.822 -1.0777 -0.6054  0.7284
   13CHL1  H22A  945   5.755   3.445   8.844 -1.3123  1.0542 -0.4514
   13CHL1  H22B  946   5.638   3.327   8.752 -0.0354 -0.1890  0.0011
   13CHL1   C23  947   5.575   3.533   8.767  0.5453  0.3135 -0.0824
   13CHL1  H23A  948   5.465   3.520   8.762  0.6566 -0.3046 -1.3016
   13CHL1  H23B  949   5.594   3.611   8.844 -0.3623 -2.3747  3.0535
   13CHL1   C24  950   5.618   3.579   8.633 -0.2148  0.4572 -0.2956
   13CHL1  H24A  951   5.727   3.597   8.635  0.0647 -1.0991 -0.3121
   13CHL1  H24B  952   5.613   3.502   8.552  2.9648  0.7364 -0.8848
   13CHL1   C25  953   5.550   3.715   8.594 -0.0085 -1.0701  0.0726
   13CHL1   H25  954   5.540   3.782   8.682  0.4667 -2.2606  1.0635
   13CHL1   C26  955   5.636   3.785   8.486 -0.0103  0.3671  0.4264
   13CHL1  H26A  956   5.629   3.724   8.393  1.1064 -1.0384  1.2136
   13CHL1  H26B  957   5.594   3.887   8.476 -1.6545 -0.4670 -1.8563
   13CHL1  H26C  958   5.737   3.793   8.533  0.0862  0.3252  0.2259
   13CHL1   C27  959   5.404   3.699   8.545 -0.3657  0.4749  0.2047
   13CHL1  H27A  960   5.345   3.664   8.632 -1.3354  0.2950 -0.5030
   13CHL1  H27B  961   5.363   3.793   8.502 -2.1667 -0.2881  0.1651
   13CHL1  H27C  962   5.392   3.620   8.468  0.9895  2.2811 -1.9830
   14CHL1    C3  963   5.938   6.123  10.184 -0.1731 -0.3422 -0.2089
   14CHL1    H3  964   6.000   6.036  10.155  0.0686 -0.7387  1.4181
   14CHL1    O3  965   5.977   6.150  10.320  0.2493 -0.4805  0.3108
   14CHL1   H3'  966   6.063   6.192  10.323  1.0707 -2.0253 -0.2897
   14CHL1    C4  967   5.996   6.246  10.102  0.5161 -0.4578 -0.3042
   14CHL1   H4A  968   5.952   6.338  10.146  1.4585 -0.2514  0.2361
   14CHL1   H4B  969   6.105   6.257  10.117  0.4939 -0.1454 -0.3585
   14CHL1    C5  970   5.965   6.239   9.962 -0.4751 -0.1494 -0.1382
   14CHL1    C6  971   6.066   6.252   9.873  0.1904  0.1583  0.6685
   14CHL1    H6  972   6.167   6.260   9.917  0.4158 -1.2465  0.4842
   14CHL1    C7  973   6.050   6.258   9.727 -0.5055 -1.0722 -0.3037
   14CHL1   H7A  974   6.113   6.341   9.689  0.4191 -0.7469  1.8048
   14CHL1   H7B  975   6.100   6.165   9.694 -0.3406 -0.9076 -0.5178
   14CHL1    C8  976   5.900   6.263   9.684 -0.1670  0.2273 -0.3661
   14CHL1    H8  977   5.867   6.368   9.699 -2.1967 -0.5097  0.7760
   14CHL1   C14  978   5.895   6.227   9.543 -0.4662  0.2501  0.1814
   14CHL1   H14  979   5.942   6.127   9.534  2.0460  1.4562 -1.4340
   14CHL1   C15  980   5.970   6.304   9.428 -0.3777 -1.1213  0.6875
   14CHL1  H15A  981   5.963   6.412   9.454  0.5802 -1.3914  2.2512
   14CHL1  H15B  982   6.078   6.278   9.424  1.1051  3.9741  0.9844
   14CHL1   C16  983   5.894   6.267   9.295  0.5139 -0.7416  0.0956
   14CHL1  H16A  984   5.870   6.361   9.239  2.4120 -1.2379 -1.7004
   14CHL1  H16B  985   5.954   6.203   9.227  0.8470  1.7815 -2.2049
   14CHL1   C17  986   5.763   6.186   9.336 -0.7260 -0.0835 -0.1941
   14CHL1   H17  987   5.796   6.080   9.333 -3.6201 -1.1246  1.2588
   14CHL1   C13  988   5.749   6.214   9.486  0.2708 -0.2654  0.4328
   14CHL1   C18  989   5.678   6.349   9.497 -0.7084 -0.0101  0.1027
   14CHL1  H18A  990   5.714   6.419   9.418 -0.3393 -0.3198 -0.0073
   14CHL1  H18B  991   5.568   6.346   9.476 -0.4183  1.2677 -1.9841
   14CHL1  H18C  992   5.698   6.397   9.595  2.7930 -0.8044 -0.1109
   14CHL1   C12  993   5.670   6.105   9.564 -0.1223  0.3260 -0.5674
   14CHL1  H12A  994   5.565   6.119   9.530 -0.3188  0.6885  0.1531
   14CHL1  H12B  995   5.710   6.006   9.535  0.4241  0.3855 -0.0400
   14CHL1   C11  996   5.676   6.131   9.713 -0.0627  0.4518 -0.9911
   14CHL1  H11A  997   5.615   6.220   9.738 -0.4155  0.4080 -1.6940
   14CHL1  H11B  998   5.635   6.051   9.778 -1.3892  2.0189  0.1788
   14CHL1    C9  999   5.816   6.173   9.773  0.6111  0.3634 -0.5851
   14CHL1    H9 1000   5.874   6.078   9.771  1.6436  0.9547  0.2295
   14CHL1   C10 1001   5.820   6.218   9.925 -0.1703  0.2141  0.5796
   14CHL1   C19 1002   5.741   6.352   9.945 -0.1668  0.2078  0.4678
   14CHL1  H19A 1003   5.797   6.433   9.896 -1.0826  0.3859 -0.3203
   14CHL1  H19B 1004   5.636   6.346   9.908 -0.2749 -0.0109  0.8047
   14CHL1  H19C 1005   5.730   6.378  10.052  4.0277 -0.4524  1.2083
   14CHL1    C1 1006   5.746   6.107  10.009  0.6201 -0.1661 -0.4754
   14CHL1   H1A 1007   5.636   6.115   9.998  0.3979 -2.2338 -0.0995
   14CHL1   H1B 1008   5.769   6.010   9.959  0.0337  0.3412 -1.7714
   14CHL1    C2 1009   5.789   6.094  10.157 -0.5102 -0.0502  0.6593
   14CHL1   H2A 1010   5.763   5.993  10.196 -2.2195 -0.3152 -1.0429
   14CHL1   H2B 1011   5.726   6.165  10.214 -2.3410 -1.1947  0.1455
   14CHL1   C20 1012   5.665   6.214   9.224  0.0390  0.0944  0.0524
   14CHL1   H20 1013   5.638   6.322   9.226  1.7879  0.5770 -0.4174
   14CHL1   C21 1014   5.535   6.149   9.259  0.5393  0.1992 -0.0643
   14CHL1  H21A 1015   5.482   6.133   9.162 -0.3836 -0.7080  0.5703
   14CHL1  H21B 1016   5.478   6.203   9.338  0.9684  1.3949 -0.5395
   14CHL1  H21C 1017   5.546   6.048   9.302 -0.4176 -0.2457 -0.8351
   14CHL1   C22 1018   5.723   6.186   9.081  0.4938  0.2320  0.3579
   14CHL1  H22A 1019   5.832   6.198   9.068  0.6737 -0.5505  1.0935
   14CHL1  H22B 1020   5.713   6.078   9.061 -0.8182  0.2297  0.8947
   14CHL1   C23 1021   5.651   6.273   8.980  0.1534 -0.8401 -0.6116
   14CHL1  H23A 1022   5.541   6.270   8.996  0.1466  2.8496  1.1869
   14CHL1  H23B 1023   5.680   6.377   9.006 -0.6505 -1.0599  1.3533
   14CHL1   C24 1024   5.692   6.240   8.839  0.1010  0.7936 -0.3146
   14CHL1  H24A 1025   5.802   6.229   8.828  0.0451 -2.7316  1.4549
   14CHL1  H24B 1026   5.651   6.139   8.818 -2.2910  1.3768  1.1850
   14CHL1   C25 1027   5.647   6.342   8.729 -0.9700  0.4086 -0.2645
   14CHL1   H25 1028   5.688   6.441   8.761 -0.6564 -0.1804  1.2589
   14CHL1   C26 1029   5.706   6.301   8.589  0.3062  0.6020 -0.0080
   14CHL1  H26A 1030   5.667   6.360   8.504  1.1086 -1.6018 -2.0349
   14CHL1  H26B 1031   5.817   6.304   8.585  0.4558 -2.2985  0.0218
   14CHL1  H26C 1032   5.689   6.194   8.564  1.0854  0.6999 -1.0267
   14CHL1   C27 1033   5.490   6.350   8.727  0.0644  0.0708  0.0809
   14CHL1  H27A 1034   5.462   6.248   8.693  2.0408 -0.3924 -0.2777
   14CHL1  H27B 1035   5.449   6.369   8.828  0.0493 -0.9900  0.2855
   14CHL1  H27C 1036   5.444   6.421   8.654 -2.0063 -0.9689  0.3042
   15CHL1    C3 1037   6.344   5.159  10.022 -0.2223 -0.2054  0.1256
   15CHL1    H3 1038   6.452   5.167  10.046  0.0442 -3.7380  0.7226
   15CHL1    O3 1039   6.282   5.113  10.143 -0.0109  0.4196 -0.2855
   15CHL1   H3' 1040   6.195   5.153  10.146 -0.7210 -0.9695 -1.2239
   15CHL1    C4 1041   6.279   5.282   9.970  0.2006 -0.0852 -1.1372
   15CHL1   H4A 1042   6.170   5.263   9.962  0.2305 -0.7131 -0.2473
   15CHL1   H4B 1043   6.288   5.357  10.051  0.9957  0.5922 -1.8393
   15CHL1    C5 1044   6.332   5.344   9.842  0.1148 -0.2506  0.4955
   15CHL1    C6 1045   6.389   5.467   9.816  0.0035 -0.2392  0.2069
   15CHL1    H6 1046   6.411   5.539   9.896  2.8527 -0.8148  0.0534
   15CHL1    C7 1047   6.417   5.521   9.679 -0.3880 -0.5660  0.6946
   15CHL1   H7A 1048   6.375   5.623   9.663  0.4137 -0.5603 -1.7617
   15CHL1   H7B 1049   6.528   5.524   9.686 -0.4709  2.9702  2.8247
   15CHL1    C8 1050   6.364   5.436   9.560  0.0469 -0.3996 -0.2210
   15CHL1    H8 1051   6.258   5.458   9.538  0.2595  0.2106 -0.6607
   15CHL1   C14 1052   6.437   5.469   9.428 -0.0941  0.3749  0.1472
   15CHL1   H14 1053   6.544   5.449   9.448  0.6756  2.0891 -1.8932
   15CHL1   C15 1054   6.426   5.608   9.366  0.2944 -0.3375  0.5226
   15CHL1  H15A 1055   6.320   5.638   9.377  0.1236 -0.0319 -1.4921
   15CHL1  H15B 1056   6.501   5.683   9.400 -1.6149  2.4319 -0.9327
   15CHL1   C16 1057   6.446   5.593   9.218  0.5329 -0.4944  0.1296
   15CHL1  H16A 1058   6.360   5.640   9.164 -0.6971  1.4390  3.4487
   15CHL1  H16B 1059   6.537   5.650   9.188  1.1454 -0.6436  1.6248
   15CHL1   C17 1060   6.463   5.443   9.184  0.4113 -0.7409  1.0106
   15CHL1   H17 1061   6.571   5.419   9.185  0.9035  1.2788  2.1009
   15CHL1   C13 1062   6.406   5.372   9.310 -0.0510 -0.4193  0.2144
   15CHL1   C18 1063   6.246   5.359   9.288  0.8934  0.0149 -0.3784
   15CHL1  H18A 1064   6.237   5.279   9.212 -0.0819 -1.9091  1.6495
   15CHL1  H18B 1065   6.194   5.329   9.382 -0.7573 -3.2659 -2.1752
   15CHL1  H18C 1066   6.203   5.458   9.262  0.7216  0.6115  1.9667
   15CHL1   C12 1067   6.454   5.233   9.347 -0.2337 -0.1509  0.2514
   15CHL1  H12A 1068   6.420   5.168   9.264 -1.5886  2.1240 -1.0396
   15CHL1  H12B 1069   6.565   5.219   9.350 -0.2202 -0.3209 -0.8011
   15CHL1   C11 1070   6.390   5.179   9.478 -0.1333 -0.7543  0.0588
   15CHL1  H11A 1071   6.285   5.145   9.461 -0.6890  1.1753 -0.6236
   15CHL1  H11B 1072   6.453   5.092   9.507  4.3729  1.0676 -3.1840
   15CHL1    C9 1073   6.390   5.285   9.593  0.7556  0.2650 -0.7052
   15CHL1    H9 1074   6.496   5.301   9.621  0.1549  1.0311  1.3259
   15CHL1   C10 1075   6.318   5.243   9.726  0.0498  0.8018 -0.6983
   15CHL1   C19 1076   6.165   5.234   9.690 -0.1395  1.0457  0.2606
   15CHL1  H19A 1077   6.101   5.205   9.776  1.6553 -0.2024  1.2397
   15CHL1  H19B 1078   6.131   5.330   9.646  0.9966  1.4942  0.3332
   15CHL1  H19C 1079   6.168   5.155   9.612  1.3513  2.2937 -1.0174
   15CHL1    C1 1080   6.374   5.105   9.770 -0.2793 -0.6476 -0.0298
   15CHL1   H1A 1081   6.356   5.029   9.691  2.0046 -1.1778 -0.1110
   15CHL1   H1B 1082   6.485   5.108   9.767 -0.0761  0.3425  3.4463
   15CHL1    C2 1083   6.323   5.051   9.909 -0.0203  0.4033  0.0105
   15CHL1   H2A 1084   6.384   4.963   9.941  0.1026 -0.3136 -2.0101
   15CHL1   H2B 1085   6.217   5.019   9.913  0.6005 -1.8297  0.1022
   15CHL1   C20 1086   6.407   5.410   9.041  0.7286  1.2120 -0.1970
   15CHL1   H20 1087   6.297   5.425   9.036  0.2260 -1.8077 -0.2888
   15CHL1   C21 1088   6.437   5.267   8.998 -0.0819 -0.7214  0.9612
   15CHL1  H21A 1089   6.535   5.240   9.042  3.3526  1.6496 -4.2514
   15CHL1  H21B 1090   6.445   5.249   8.889  2.5237 -1.2565  1.1758
   15CHL1  H21C 1091   6.364   5.194   9.039 -3.3587  1.2737 -0.8230
   15CHL1   C22 1092   6.465   5.504   8.931 -0.9665  0.1950 -0.1266
   15CHL1  H22A 1093   6.456   5.606   8.975  1.5766  1.1322 -1.5667
   15CHL1  H22B 1094   6.565   5.465   8.901 -1.0414 -1.4782  1.6104
   15CHL1   C23 1095   6.380   5.521   8.805  0.4534  1.2615 -0.3576
   15CHL1  H23A 1096   6.375   5.428   8.745 -1.6930  2.8002 -2.7514
   15CHL1  H23B 1097   6.279   5.546   8.844  1.3783  1.8806  1.7729
   15CHL1   C24 1098   6.435   5.619   8.706 -0.0768 -0.4653 -0.2748
   15CHL1  H24A 1099   6.443   5.718   8.756  0.6629  0.8837 -2.8750
   15CHL1  H24B 1100   6.531   5.577   8.669  0.1972 -0.8756  0.8583
   15CHL1   C25 1101   6.343   5.627   8.584 -0.2262  0.1470  0.0690
   15CHL1   H25 1102   6.308   5.525   8.559  1.0583  0.2045 -2.2012
   15CHL1   C26 1103   6.228   5.727   8.607  0.3569 -0.6486  0.2940
   15CHL1  H26A 1104   6.161   5.680   8.683  0.5558 -2.6930 -0.7161
   15CHL1  H26B 1105   6.256   5.834   8.620 -0.6951 -0.1047 -1.5954
   15CHL1  H26C 1106   6.164   5.724   8.517  0.2648  0.9262  0.2766
   15CHL1   C27 1107   6.429   5.671   8.456  0.5249  0.4144  0.7596
   15CHL1  H27A 1108   6.510   5.597   8.438  0.0034 -0.2031  0.9283
   15CHL1  H27B 1109   6.367   5.680   8.365  2.1430  0.5858 -0.3595
   15CHL1  H27C 1110   6.477   5.769   8.478  1.8262  0.3792 -1.5562
   16CHL1    C3 1111   0.548   4.911  10.302 -0.1081 -0.2383  0.1771
   16CHL1    H3 1112   0.504   5.013  10.307  0.2929 -0.0334 -0.3461
   16CHL1    O3 1113   0.529   4.851  10.432  0.1424  0.1047 -0.2569
   16CHL1   H3' 1114   0.602   4.792  10.451 -0.7903 -1.4924 -1.3506
   16CHL1    C4 1115   0.467   4.831  10.199  0.0267  0.2332  0.5573
   16CHL1   H4A 1116   0.490   4.729  10.236 -0.3744 -0.2425 -0.4727
   16CHL1   H4B 1117   0.363   4.839  10.239  0.3648 -0.4972  1.6400
   16CHL1    C5 1118   0.489   4.858  10.053 -0.4305  0.3772  0.5211
   16CHL1    C6 1119   0.387   4.880   9.967 -0.2626  0.0532  0.0526
   16CHL1    H6 1120   0.285   4.873  10.006  0.0882  1.5304  1.3266
   16CHL1    C7 1121   0.405   4.910   9.822 -0.3266 -0.3542 -0.4583
   16CHL1   H7A 1122   0.330   4.852   9.763  0.4590 -1.4623 -0.3923
   16CHL1   H7B 1123   0.393   5.018   9.797  0.6878 -0.0253  0.4351
   16CHL1    C8 1124   0.548   4.875   9.778 -0.4726 -0.3343  0.1797
   16CHL1    H8 1125   0.548   4.764   9.769  1.2752 -0.3031 -0.8635
   16CHL1   C14 1126   0.573   4.933   9.638 -0.0605  0.0099  1.0389
   16CHL1   H14 1127   0.576   5.042   9.662  1.1257 -0.1959  1.8919
   16CHL1   C15 1128   0.462   4.920   9.527 -0.1735 -0.0685  0.1821
   16CHL1  H15A 1129   0.404   4.826   9.524  0.8930 -0.7282 -2.4469
   16CHL1  H15B 1130   0.388   5.002   9.538 -1.3622 -1.1637  0.5497
   16CHL1   C16 1131   0.534   4.947   9.391 -0.4521  0.3968  0.2820
   16CHL1  H16A 1132   0.529   4.869   9.312  0.6600 -0.6663  1.2137
   16CHL1  H16B 1133   0.484   5.032   9.340 -2.9225 -0.8750  0.4377
   16CHL1   C17 1134   0.687   4.973   9.428 -0.2099 -0.2940 -0.6095
   16CHL1   H17 1135   0.704   5.078   9.461 -0.5744 -0.5659  0.4943
   16CHL1   C13 1136   0.707   4.897   9.569  0.0156 -0.4015  0.0660
   16CHL1   C18 1137   0.723   4.743   9.556  0.3563  0.0855 -0.2420
   16CHL1  H18A 1138   0.633   4.703   9.505 -0.3266 -2.2541  2.5393
   16CHL1  H18B 1139   0.819   4.719   9.506  0.7820 -0.6585  0.9001
   16CHL1  H18C 1140   0.725   4.697   9.657 -0.4652 -0.5825 -0.5172
   16CHL1   C12 1141   0.818   4.948   9.672 -0.0534  0.1755 -0.2659
   16CHL1  H12A 1142   0.916   4.913   9.633  0.6747  2.1437 -0.3292
   16CHL1  H12B 1143   0.820   5.059   9.665 -2.1545  0.2467 -0.3886
   16CHL1   C11 1144   0.802   4.897   9.816 -0.6064  0.6506 -0.2315
   16CHL1  H11A 1145   0.833   4.790   9.814  3.7591  1.6481  1.9060
   16CHL1  H11B 1146   0.880   4.955   9.870  2.5036  1.6472 -5.2337
   16CHL1    C9 1147   0.656   4.927   9.872 -0.9767  0.5598 -0.6851
   16CHL1    H9 1148   0.657   5.038   9.877 -0.9029  0.5365 -0.0748
   16CHL1   C10 1149   0.634   4.864  10.014 -0.3892  0.2010  0.0201
   16CHL1   C19 1150   0.686   4.717  10.020 -0.7160 -0.8479  0.1671
   16CHL1  H19A 1151   0.796   4.723  10.002 -0.6461  4.7149  0.6744
   16CHL1  H19B 1152   0.668   4.657  10.112  0.9784 -1.2980  0.2385
   16CHL1  H19C 1153   0.641   4.666   9.933 -1.4708 -0.1733  0.1545
   16CHL1    C1 1154   0.718   4.946  10.119  0.3485 -0.4275 -0.0204
   16CHL1   H1A 1155   0.821   4.923  10.086  0.1639  2.0840 -2.7801
   16CHL1   H1B 1156   0.695   5.049  10.085 -1.0920 -0.4066  0.9004
   16CHL1    C2 1157   0.693   4.921  10.262 -0.2141 -0.3271  0.0919
   16CHL1   H2A 1158   0.742   4.995  10.330 -0.4156  0.2724 -0.4056
   16CHL1   H2B 1159   0.745   4.825  10.284  1.4922  0.4874 -0.2296
   16CHL1   C20 1160   0.780   4.941   9.313 -0.4570 -0.9411  0.5148
   16CHL1   H20 1161   0.764   4.834   9.290 -1.4676 -1.1237  1.9148
   16CHL1   C21 1162   0.930   4.960   9.354  0.2151  0.0266  0.1863
   16CHL1  H21A 1163   0.950   4.911   9.452  0.0631 -1.0214 -0.2944
   16CHL1  H21B 1164   0.954   5.068   9.367 -0.9308  0.2190  0.8298
   16CHL1  H21C 1165   0.985   4.902   9.277 -2.1413 -0.3993 -1.2785
   16CHL1   C22 1166   0.744   5.024   9.186 -0.1843  0.0286  0.3947
   16CHL1  H22A 1167   0.635   5.024   9.164  0.1050  1.1712 -1.1829
   16CHL1  H22B 1168   0.774   5.130   9.202  0.7304  0.0010 -0.9775
   16CHL1   C23 1169   0.817   4.974   9.055  0.5296 -0.6176 -0.5685
   16CHL1  H23A 1170   0.924   4.965   9.082  0.1017 -0.3341  1.4412
   16CHL1  H23B 1171   0.781   4.873   9.027 -0.5148  0.1952 -2.3309
   16CHL1   C24 1172   0.790   5.075   8.941 -0.3292  0.4441  0.4196
   16CHL1  H24A 1173   0.687   5.113   8.927 -0.1412 -0.0394 -2.9818
   16CHL1  H24B 1174   0.853   5.165   8.961 -1.4630  1.7440 -1.5263
   16CHL1   C25 1175   0.833   5.018   8.801 -0.5230 -0.4859 -0.9307
   16CHL1   H25 1176   0.940   4.990   8.800 -0.4398 -0.2321 -0.0442
   16CHL1   C26 1177   0.749   4.905   8.741  0.4505  0.1140 -0.2020
   16CHL1  H26A 1178   0.650   4.920   8.789  0.3249 -2.1550  0.3663
   16CHL1  H26B 1179   0.740   4.924   8.632  2.0866  3.6053  0.1223
   16CHL1  H26C 1180   0.792   4.810   8.779  1.5809  0.8782  0.4845
   16CHL1   C27 1181   0.827   5.135   8.700  0.2700  0.5241  0.4894
   16CHL1  H27A 1182   0.873   5.229   8.738 -0.9502  1.1539  0.4580
   16CHL1  H27B 1183   0.883   5.105   8.609 -0.2281 -0.7055  0.5816
   16CHL1  H27C 1184   0.726   5.151   8.657 -0.0063 -0.2679  0.8365
   17CHL1    C3 1185   0.769   2.233  10.168 -0.3629  0.2567  0.0256
   17CHL1    H3 1186   0.840   2.314  10.197  0.4807 -0.8612  1.1674
   17CHL1    O3 1187   0.737   2.176  10.296  0.4646 -0.1191  1.0341
   17CHL1   H3' 1188   0.695   2.093  10.270 -0.8418  0.3006  1.7131
   17CHL1    C4 1189   0.640   2.293  10.101 -1.3902 -0.3465 -0.7960
   17CHL1   H4A 1190   0.561   2.216  10.095 -0.2300 -1.5665 -0.8875
   17CHL1   H4B 1191   0.608   2.381  10.160  2.4255  0.9227 -0.3561
   17CHL1    C5 1192   0.669   2.337   9.958  0.0616  0.7459 -0.5359
   17CHL1    C6 1193   0.644   2.461   9.916  0.0968  0.3339  0.5361
   17CHL1    H6 1194   0.608   2.536   9.988 -1.0228 -1.0319  1.4550
   17CHL1    C7 1195   0.665   2.506   9.778 -0.4022 -0.1187 -0.0434
   17CHL1   H7A 1196   0.589   2.584   9.757  0.1023  0.5435  0.5392
   17CHL1   H7B 1197   0.767   2.551   9.782 -0.2374 -0.4635 -0.2646
   17CHL1    C8 1198   0.668   2.387   9.677 -0.0118  0.4547 -0.1864
   17CHL1    H8 1199   0.564   2.351   9.662  0.7116 -1.1500 -1.6894
   17CHL1   C14 1200   0.706   2.438   9.540  0.2076  0.7091 -0.5561
   17CHL1   H14 1201   0.808   2.480   9.551  1.0861 -1.3215 -0.5305
   17CHL1   C15 1202   0.618   2.540   9.474 -0.0603  0.5273  0.4163
   17CHL1  H15A 1203   0.510   2.515   9.480  0.2286 -1.4110 -1.5099
   17CHL1  H15B 1204   0.629   2.646   9.506 -1.4109  1.4096 -1.8404
   17CHL1   C16 1205   0.632   2.523   9.321  0.1055  0.1180  0.8160
   17CHL1  H16A 1206   0.540   2.470   9.286 -1.5003  4.0693 -1.8091
   17CHL1  H16B 1207   0.659   2.613   9.261  1.3975 -0.4528  0.5214
   17CHL1   C17 1208   0.738   2.412   9.301 -0.1747  0.4657  0.8070
   17CHL1   H17 1209   0.840   2.454   9.313  0.1607  0.3415 -1.1949
   17CHL1   C13 1210   0.726   2.324   9.431  0.0478 -0.0551 -0.0363
   17CHL1   C18 1211   0.608   2.233   9.430  0.1013 -0.4169 -0.3641
   17CHL1  H18A 1212   0.596   2.168   9.519 -0.9990 -0.3118 -0.4265
   17CHL1  H18B 1213   0.512   2.287   9.417  0.6112  1.3746  2.4190
   17CHL1  H18C 1214   0.617   2.168   9.340  1.4627  0.4768 -0.9185
   17CHL1   C12 1215   0.848   2.242   9.484 -0.3713  0.2859 -0.2075
   17CHL1  H12A 1216   0.858   2.156   9.413 -2.4158  1.2283 -1.7460
   17CHL1  H12B 1217   0.941   2.302   9.480 -1.2346  1.6482 -0.3500
   17CHL1   C11 1218   0.830   2.177   9.626  0.0766  0.0134 -0.1435
   17CHL1  H11A 1219   0.765   2.087   9.627  0.9059 -0.6083  1.1608
   17CHL1  H11B 1220   0.928   2.138   9.660 -0.0627  0.3443  0.6890
   17CHL1    C9 1221   0.771   2.281   9.729  0.5842 -0.4540 -0.3415
   17CHL1    H9 1222   0.853   2.356   9.738 -0.3159  0.9562 -2.8570
   17CHL1   C10 1223   0.733   2.226   9.869  0.1088  0.2891 -0.9974
   17CHL1   C19 1224   0.621   2.118   9.843 -0.0411 -0.1137 -1.2028
   17CHL1  H19A 1225   0.556   2.097   9.931 -1.5690  0.8575 -2.0605
   17CHL1  H19B 1226   0.547   2.147   9.765 -1.4154 -0.6746 -0.1562
   17CHL1  H19C 1227   0.669   2.022   9.813 -0.5742 -0.8625  0.2250
   17CHL1    C1 1228   0.858   2.164   9.934 -0.3335  0.1896 -0.5086
   17CHL1   H1A 1229   0.896   2.080   9.874 -2.2207 -0.0591 -1.4244
   17CHL1   H1B 1230   0.947   2.231   9.934 -0.8517  0.8910 -1.4483
   17CHL1    C2 1231   0.830   2.118  10.088 -0.3209 -0.4036  0.2400
   17CHL1   H2A 1232   0.934   2.099  10.123  0.5114  0.9993 -1.2629
   17CHL1   H2B 1233   0.759   2.035  10.074  0.2782 -1.1400  1.4195
   17CHL1   C20 1234   0.745   2.345   9.160  0.4015 -0.4630 -0.1222
   17CHL1   H20 1235   0.810   2.255   9.166 -1.0168 -1.4572  1.1877
   17CHL1   C21 1236   0.807   2.448   9.057  0.3503 -0.1859  0.1304
   17CHL1  H21A 1237   0.880   2.515   9.106  1.0684 -0.1433 -0.9726
   17CHL1  H21B 1238   0.728   2.512   9.012  1.1028  1.0127  0.4739
   17CHL1  H21C 1239   0.867   2.391   8.983  0.4035  2.0081 -1.6274
   17CHL1   C22 1240   0.614   2.289   9.092 -0.2224 -0.3261 -1.0307
   17CHL1  H22A 1241   0.551   2.241   9.170 -0.1264  2.0136  0.5820
   17CHL1  H22B 1242   0.546   2.373   9.069 -0.7338 -0.9418 -1.8122
   17CHL1   C23 1243   0.631   2.197   8.967 -0.2289 -0.5370 -0.7327
   17CHL1  H23A 1244   0.651   2.262   8.879 -2.9934  0.3815 -0.7736
   17CHL1  H23B 1245   0.714   2.131   9.001  0.3456  0.7269  0.4030
   17CHL1   C24 1246   0.504   2.109   8.939 -0.4544 -0.0386 -0.2614
   17CHL1  H24A 1247   0.498   2.055   9.036  1.7740  3.0444  1.8301
   17CHL1  H24B 1248   0.404   2.155   8.927 -1.4766 -1.7759  1.2290
   17CHL1   C25 1249   0.527   2.031   8.807 -0.0482 -0.2845 -0.1781
   17CHL1   H25 1250   0.635   2.013   8.789 -0.2712 -0.2248 -1.7861
   17CHL1   C26 1251   0.447   1.896   8.800 -0.0961  0.0548  0.3280
   17CHL1  H26A 1252   0.495   1.839   8.717 -1.2200  1.9765 -1.7738
   17CHL1  H26B 1253   0.445   1.838   8.894 -1.0370 -1.1477 -0.4134
   17CHL1  H26C 1254   0.343   1.920   8.769 -1.1012 -2.4710  1.5389
   17CHL1   C27 1255   0.492   2.116   8.683 -0.5440 -0.7493 -0.4065
   17CHL1  H27A 1256   0.519   2.064   8.588 -0.3539  0.2322 -0.9021
   17CHL1  H27B 1257   0.384   2.140   8.685 -0.5167 -0.6247 -0.4368
   17CHL1  H27C 1258   0.541   2.216   8.683  0.2767 -1.1425 -0.3592
   18CHL1    C3 1259   1.068   1.193  10.166 -0.0607 -0.3111  0.0616
   18CHL1    H3 1260   1.152   1.122  10.181  0.9508  0.8591  0.0842
   18CHL1    O3 1261   1.028   1.248  10.288 -0.5283  0.2017 -0.2214
   18CHL1   H3' 1262   0.949   1.289  10.252 -0.4201 -3.1307 -5.3310
   18CHL1    C4 1263   1.120   1.308  10.079  0.3298 -0.3579  0.6681
   18CHL1   H4A 1264   1.040   1.384  10.070 -2.4632 -3.3677 -4.5861
   18CHL1   H4B 1265   1.202   1.361  10.133  1.6553 -2.8607  1.2882
   18CHL1    C5 1266   1.157   1.271   9.940 -0.4076  0.6141 -0.0428
   18CHL1    C6 1267   1.284   1.295   9.891  0.4566 -0.5988  0.1490
   18CHL1    H6 1268   1.349   1.358   9.954  0.1257  0.4432 -0.5232
   18CHL1    C7 1269   1.335   1.261   9.748  0.5258 -0.0961  0.3913
   18CHL1   H7A 1270   1.370   1.352   9.694 -0.9375  0.0425 -0.3772
   18CHL1   H7B 1271   1.415   1.184   9.748  0.3540 -0.2983  1.8032
   18CHL1    C8 1272   1.226   1.202   9.660  0.0886  0.1850  0.2205
   18CHL1    H8 1273   1.169   1.288   9.618  1.0104  0.9204  0.4421
   18CHL1   C14 1274   1.283   1.129   9.533  0.4917  0.3233 -0.5547
   18CHL1   H14 1275   1.347   1.050   9.579  2.0448  1.5105 -0.6021
   18CHL1   C15 1276   1.388   1.204   9.448  0.9150  0.6683  0.1508
   18CHL1  H15A 1277   1.342   1.300   9.416 -2.4020  1.1135  5.0276
   18CHL1  H15B 1278   1.486   1.229   9.494  0.3055  0.4439  1.6297
   18CHL1   C16 1279   1.405   1.103   9.330 -0.8322 -0.2950 -0.7520
   18CHL1  H16A 1280   1.388   1.156   9.234 -3.6998  2.1081  0.9230
   18CHL1  H16B 1281   1.506   1.056   9.330 -0.0518  1.3103 -1.2605
   18CHL1   C17 1282   1.291   0.997   9.344  0.6004  0.2748 -0.0384
   18CHL1   H17 1283   1.338   0.916   9.404  0.3666  0.4016  0.3180
   18CHL1   C13 1284   1.186   1.062   9.435 -0.4821 -0.0002  0.9532
   18CHL1   C18 1285   1.099   1.175   9.361  0.1759 -0.0184 -0.2921
   18CHL1  H18A 1286   1.163   1.235   9.293  1.7655 -2.5102 -1.1205
   18CHL1  H18B 1287   1.012   1.137   9.304 -1.6625  0.7822  1.8367
   18CHL1  H18C 1288   1.058   1.242   9.439 -0.4820 -1.0089  0.2337
   18CHL1   C12 1289   1.090   0.965   9.513  0.8705  0.0993 -0.0947
   18CHL1  H12A 1290   1.002   0.928   9.456  0.0513  0.6870  0.7579
   18CHL1  H12B 1291   1.154   0.883   9.552 -0.6613 -0.1014  2.2083
   18CHL1   C11 1292   1.024   1.042   9.634 -0.4987  0.0342 -0.0495
   18CHL1  H11A 1293   0.964   1.121   9.585 -0.4333  0.5922  0.7515
   18CHL1  H11B 1294   0.954   0.972   9.685 -0.0272 -1.4973 -1.4173
   18CHL1    C9 1295   1.130   1.108   9.734 -0.4728  0.1828 -0.7524
   18CHL1    H9 1296   1.202   1.026   9.759  2.4926  2.0114 -2.5943
   18CHL1   C10 1297   1.068   1.177   9.861 -0.1721 -0.1448  0.3248
   18CHL1   C19 1298   0.954   1.269   9.819 -0.2615 -0.1990 -0.1265
   18CHL1  H19A 1299   0.985   1.334   9.735 -0.4791  0.4985  0.3278
   18CHL1  H19B 1300   0.879   1.195   9.784 -1.8650  0.7292  1.2453
   18CHL1  H19C 1301   0.904   1.319   9.904 -3.6090 -2.0846 -0.8249
   18CHL1    C1 1302   1.010   1.065   9.953 -0.1614  0.3061  0.1588
   18CHL1   H1A 1303   0.937   0.996   9.905 -1.8826  0.8204  1.9111
   18CHL1   H1B 1304   1.093   0.995   9.974 -0.3031 -0.3683 -1.4049
   18CHL1    C2 1305   0.960   1.113  10.095 -0.1903 -0.6615  0.2285
   18CHL1   H2A 1306   0.933   1.025  10.156 -1.8144 -0.7525 -0.5609
   18CHL1   H2B 1307   0.866   1.173  10.090  0.2024 -0.1347 -1.7020
   18CHL1   C20 1308   1.248   0.932   9.215 -0.1811 -0.2986  0.2709
   18CHL1   H20 1309   1.179   1.001   9.161 -0.5048 -0.4307  0.5140
   18CHL1   C21 1310   1.167   0.807   9.243 -0.1345 -0.3493  0.8122
   18CHL1  H21A 1311   1.150   0.751   9.149 -3.6323 -0.0604  1.1384
   18CHL1  H21B 1312   1.068   0.832   9.289  0.8192  1.4346  2.0208
   18CHL1  H21C 1313   1.207   0.733   9.316 -0.4746 -0.0611  1.3002
   18CHL1   C22 1314   1.361   0.894   9.111  1.1575 -0.1922 -0.1254
   18CHL1  H22A 1315   1.449   0.840   9.152  1.3304  0.2108  0.0274
   18CHL1  H22B 1316   1.310   0.826   9.038  0.3846  0.8609 -0.5951
   18CHL1   C23 1317   1.423   1.004   9.019 -0.3796 -0.6101  0.1058
   18CHL1  H23A 1318   1.334   1.068   8.998 -0.7799 -1.4179 -0.7538
   18CHL1  H23B 1319   1.502   1.061   9.072 -0.0814  2.3118 -3.1184
   18CHL1   C24 1320   1.492   0.953   8.891 -0.5389  0.6842 -0.6328
   18CHL1  H24A 1321   1.574   0.882   8.917 -1.4469 -0.0096  0.4215
   18CHL1  H24B 1322   1.419   0.887   8.839  0.4695  0.4378 -1.7836
   18CHL1   C25 1323   1.536   1.058   8.798  0.0385 -0.2315 -0.3306
   18CHL1   H25 1324   1.583   1.141   8.855 -0.0083 -0.0477 -0.5573
   18CHL1   C26 1325   1.643   0.994   8.699 -0.4583 -0.0573 -0.3155
   18CHL1  H26A 1326   1.714   0.934   8.759 -3.1593 -0.1316  3.1955
   18CHL1  H26B 1327   1.597   0.927   8.624  0.6132 -0.8115 -0.3144
   18CHL1  H26C 1328   1.702   1.071   8.645  5.5309 -2.6075  1.7264
   18CHL1   C27 1329   1.411   1.115   8.728  0.3768 -0.0896  0.3176
   18CHL1  H27A 1330   1.331   1.129   8.804  0.4213 -1.5334  0.6728
   18CHL1  H27B 1331   1.437   1.205   8.669  0.2048 -0.3065 -0.0955
   18CHL1  H27C 1332   1.369   1.037   8.662  2.0387 -0.9896  0.2811
   19CHL1    C3 1333   5.421   4.424  10.013  0.0257  0.7584  0.2126
   19CHL1    H3 1334   5.325   4.466   9.975 -0.0792 -0.8640 -1.4576
   19CHL1    O3 1335   5.393   4.381  10.144 -0.6750 -0.0395 -0.0236
   19CHL1   H3' 1336   5.397   4.286  10.130 -0.4697  0.3892 -3.6421
   19CHL1    C4 1337   5.467   4.311   9.929 -0.3683  0.3799  0.7521
   19CHL1   H4A 1338   5.565   4.275   9.965 -0.0847 -0.4319 -0.7631
   19CHL1   H4B 1339   5.384   4.238   9.944 -1.3592  1.3368  0.0987
   19CHL1    C5 1340   5.478   4.349   9.785 -0.3940  0.6126  0.0779
   19CHL1    C6 1341   5.415   4.288   9.691  1.0510 -0.6290 -0.2720
   19CHL1    H6 1342   5.368   4.195   9.726  2.1121 -1.2751 -0.4957
   19CHL1    C7 1343   5.424   4.321   9.548 -0.3289 -0.7016  0.2017
   19CHL1   H7A 1344   5.428   4.229   9.485 -0.9470 -0.7169  0.1764
   19CHL1   H7B 1345   5.330   4.367   9.510 -0.5382 -3.6171 -3.4059
   19CHL1    C8 1346   5.545   4.417   9.516 -0.1836 -0.9433  0.2656
   19CHL1    H8 1347   5.633   4.350   9.522 -1.2259 -2.2893  1.1519
   19CHL1   C14 1348   5.537   4.488   9.380  1.0260  0.6813 -0.3538
   19CHL1   H14 1349   5.443   4.547   9.383  1.9272  2.1634 -0.5285
   19CHL1   C15 1350   5.528   4.385   9.258 -0.7871 -0.3707 -0.0706
   19CHL1  H15A 1351   5.622   4.326   9.260  1.4882  2.9117 -1.6171
   19CHL1  H15B 1352   5.442   4.315   9.266 -0.4451 -0.7256  0.5593
   19CHL1   C16 1353   5.534   4.481   9.137  0.0842 -0.9090 -0.4040
   19CHL1  H16A 1354   5.610   4.435   9.070 -0.0084 -0.8857 -0.5258
   19CHL1  H16B 1355   5.442   4.499   9.077  0.5035 -0.0812 -0.8229
   19CHL1   C17 1356   5.588   4.621   9.196 -0.1554 -0.2015  0.8705
   19CHL1   H17 1357   5.509   4.693   9.226  0.7077  0.6639  1.1333
   19CHL1   C13 1358   5.641   4.587   9.342  0.7673  0.5504  0.6272
   19CHL1   C18 1359   5.783   4.518   9.343  0.0683 -0.5956  0.3269
   19CHL1  H18A 1360   5.788   4.441   9.264 -0.1942 -0.4100  0.1236
   19CHL1  H18B 1361   5.852   4.602   9.319  0.3100 -0.8745  0.0404
   19CHL1  H18C 1362   5.810   4.469   9.438 -1.5533 -1.5482  0.3414
   19CHL1   C12 1363   5.633   4.703   9.449  0.5574  0.3988  0.4958
   19CHL1  H12A 1364   5.708   4.782   9.426  0.1909 -0.0560 -2.8342
   19CHL1  H12B 1365   5.538   4.759   9.437  1.3407  2.0120  1.4697
   19CHL1   C11 1366   5.635   4.652   9.588 -0.9697 -0.1223  0.4215
   19CHL1  H11A 1367   5.740   4.621   9.610 -1.1270 -0.4463  0.7164
   19CHL1  H11B 1368   5.619   4.749   9.640 -1.1173  1.6375 -2.6578
   19CHL1    C9 1369   5.547   4.533   9.625  0.2104  0.7421 -0.1629
   19CHL1    H9 1370   5.443   4.571   9.621  0.4129  1.1557 -2.6673
   19CHL1   C10 1371   5.568   4.475   9.767  0.0819  0.3072  0.3388
   19CHL1   C19 1372   5.714   4.432   9.791  0.0431 -0.0343 -0.6897
   19CHL1  H19A 1373   5.792   4.511   9.793 -0.2837  0.2867  0.9254
   19CHL1  H19B 1374   5.738   4.385   9.889  2.7893  0.8445 -0.8553
   19CHL1  H19C 1375   5.738   4.358   9.711 -1.6090 -1.1106 -0.2226
   19CHL1    C1 1376   5.541   4.583   9.873 -0.0745 -0.5345 -0.8826
   19CHL1   H1A 1377   5.626   4.655   9.869 -1.1404  0.8021 -0.0562
   19CHL1   H1B 1378   5.450   4.643   9.853 -0.8947 -0.7513  1.8259
   19CHL1    C2 1379   5.528   4.534  10.015 -0.2839 -0.3549 -0.6092
   19CHL1   H2A 1380   5.497   4.609  10.090 -2.3326 -2.4147  0.7391
   19CHL1   H2B 1381   5.624   4.487  10.046  1.4641  2.8975 -0.5549
   19CHL1   C20 1382   5.683   4.694   9.102 -0.1998  0.0555  0.2641
   19CHL1   H20 1383   5.782   4.648   9.118 -1.0089 -0.8678  3.4256
   19CHL1   C21 1384   5.686   4.838   9.149 -0.4748 -0.1777 -0.2981
   19CHL1  H21A 1385   5.746   4.902   9.080 -0.0575 -1.4090 -1.1258
   19CHL1  H21B 1386   5.747   4.853   9.240 -0.8942 -0.7644  0.0895
   19CHL1  H21C 1387   5.591   4.895   9.138 -0.7120 -0.5579 -0.2520
   19CHL1   C22 1388   5.658   4.673   8.947 -0.1743 -0.2713 -0.0011
   19CHL1  H22A 1389   5.745   4.714   8.891 -0.5227 -0.0962 -0.4168
   19CHL1  H22B 1390   5.642   4.570   8.909 -1.0687 -1.0800  2.4182
   19CHL1   C23 1391   5.532   4.737   8.886 -0.8638 -0.3512  0.2541
   19CHL1  H23A 1392   5.446   4.691   8.938  0.4459 -0.7789  2.1477
   19CHL1  H23B 1393   5.526   4.848   8.890  0.9480 -0.1841 -0.4361
   19CHL1   C24 1394   5.526   4.697   8.745  0.2872  0.2033  0.3136
   19CHL1  H24A 1395   5.553   4.591   8.728  0.1671  0.5514 -2.5188
   19CHL1  H24B 1396   5.424   4.722   8.711 -0.4755  0.4158  2.5804
   19CHL1   C25 1397   5.620   4.769   8.653  0.2148  0.2972  0.4080
   19CHL1   H25 1398   5.724   4.743   8.680 -1.3220 -2.2989  4.7396
   19CHL1   C26 1399   5.600   4.718   8.509  0.1450 -0.0714  0.3312
   19CHL1  H26A 1400   5.505   4.756   8.465  0.5896 -0.9350 -1.4823
   19CHL1  H26B 1401   5.681   4.750   8.441 -1.0010 -0.1458 -1.1115
   19CHL1  H26C 1402   5.588   4.607   8.509  0.9775 -0.1697  0.8761
   19CHL1   C27 1403   5.623   4.924   8.654  0.0265 -0.1880  0.2173
   19CHL1  H27A 1404   5.525   4.972   8.633  0.0308 -0.0461  0.5229
   19CHL1  H27B 1405   5.660   4.961   8.751 -1.8254  0.7523  0.6045
   19CHL1  H27C 1406   5.688   4.961   8.571 -1.5058  0.2991 -0.8199
   20CHL1    C3 1407   2.094   5.066  10.404 -0.3764 -0.0882 -0.3907
   20CHL1    H3 1408   2.155   4.974  10.412  0.8342  0.6756 -0.5476
   20CHL1    O3 1409   2.035   5.108  10.528  0.1712 -0.3202 -0.4031
   20CHL1   H3' 1410   1.988   5.191  10.523 -0.7246 -0.8573 -1.5949
   20CHL1    C4 1411   2.176   5.183  10.348 -0.4400  0.1607  0.2337
   20CHL1   H4A 1412   2.119   5.278  10.355 -1.0924 -0.3006  1.5800
   20CHL1   H4B 1413   2.261   5.189  10.418 -0.2275 -0.7414  0.0677
   20CHL1    C5 1414   2.224   5.166  10.209 -0.2681  0.5361  0.7068
   20CHL1    C6 1415   2.353   5.180  10.177  1.1728  0.0622  0.2475
   20CHL1    H6 1416   2.424   5.197  10.260 -0.9814 -1.2762  2.5165
   20CHL1    C7 1417   2.403   5.171  10.037 -0.8360  0.0094 -0.6369
   20CHL1   H7A 1418   2.488   5.240  10.018 -1.2330  1.9939  3.7199
   20CHL1   H7B 1419   2.452   5.073  10.020  0.4919  0.7776 -1.4086
   20CHL1    C8 1420   2.290   5.193   9.926  0.4936 -0.1835 -0.4937
   20CHL1    H8 1421   2.263   5.301   9.922  1.3894  0.0229 -1.4056
   20CHL1   C14 1422   2.346   5.158   9.787  0.0081 -0.3469 -0.5411
   20CHL1   H14 1423   2.368   5.050   9.797 -1.2625 -0.5678  0.0983
   20CHL1   C15 1424   2.468   5.225   9.740 -0.2309 -0.5814  0.1336
   20CHL1  H15A 1425   2.450   5.333   9.760 -0.3057 -0.9207  2.0607
   20CHL1  H15B 1426   2.563   5.185   9.779  0.1233 -1.2076 -1.2890
   20CHL1   C16 1427   2.472   5.188   9.588  0.2944  0.3883 -0.3777
   20CHL1  H16A 1428   2.486   5.287   9.538 -2.7625  1.8134  1.2788
   20CHL1  H16B 1429   2.558   5.124   9.561  1.7823  2.4965 -0.9548
   20CHL1   C17 1430   2.336   5.124   9.556  0.1127 -0.4400  0.4907
   20CHL1   H17 1431   2.356   5.015   9.568  2.4086  0.0620  1.8642
   20CHL1   C13 1432   2.243   5.166   9.676  0.1180 -0.0549 -0.3169
   20CHL1   C18 1433   2.194   5.305   9.665 -0.0771 -0.3816 -0.2162
   20CHL1  H18A 1434   2.112   5.313   9.591  1.3208  3.1529 -1.5836
   20CHL1  H18B 1435   2.138   5.334   9.756  2.9524  1.8943  1.0903
   20CHL1  H18C 1436   2.276   5.372   9.634 -1.1336  1.5572  1.0021
   20CHL1   C12 1437   2.122   5.076   9.712  0.5948  0.2442  0.0654
   20CHL1  H12A 1438   2.052   5.097   9.629 -1.0115  0.4409  1.4295
   20CHL1  H12B 1439   2.144   4.967   9.710 -1.4711 -0.2105  0.2195
   20CHL1   C11 1440   2.060   5.105   9.849  0.9542  0.0987 -0.3500
   20CHL1  H11A 1441   2.012   5.204   9.837  1.7157  0.9149  2.4953
   20CHL1  H11B 1442   1.988   5.026   9.878 -0.3447  1.0811 -0.8261
   20CHL1    C9 1443   2.168   5.108   9.961 -1.3707  0.3363 -0.2127
   20CHL1    H9 1444   2.209   5.005   9.969  0.9073  1.2532  0.8124
   20CHL1   C10 1445   2.110   5.136  10.105 -0.7370 -0.0217 -0.2005
   20CHL1   C19 1446   2.021   5.257  10.091  0.7481 -0.4797 -0.6084
   20CHL1  H19A 1447   2.077   5.348  10.059  0.0709  0.6191  1.1615
   20CHL1  H19B 1448   1.938   5.243  10.018  0.2134  1.5849 -0.4698
   20CHL1  H19C 1449   1.973   5.275  10.189  0.3681 -1.6299 -0.5772
   20CHL1    C1 1450   2.035   5.008  10.160 -0.5690  0.1770 -0.0993
   20CHL1   H1A 1451   1.950   4.993  10.090 -0.0080 -0.3887 -0.6672
   20CHL1   H1B 1452   2.103   4.920  10.162 -2.0050 -0.9662 -0.0035
   20CHL1    C2 1453   1.981   5.025  10.304 -0.4175  0.2077 -0.4111
   20CHL1   H2A 1454   1.944   4.928  10.343 -2.0604  1.4170  1.2125
   20CHL1   H2B 1455   1.889   5.086  10.316 -0.0326  0.7370 -0.0742
   20CHL1   C20 1456   2.281   5.135   9.415  0.5604 -0.3380  0.9199
   20CHL1   H20 1457   2.204   5.213   9.400  0.9120  0.0344  1.0452
   20CHL1   C21 1458   2.216   5.002   9.377 -0.7931  0.0984  0.9588
   20CHL1  H21A 1459   2.162   5.013   9.281  0.7720  0.6951  0.1128
   20CHL1  H21B 1460   2.155   4.961   9.460  1.6088 -3.4778  1.1900
   20CHL1  H21C 1461   2.296   4.927   9.362  2.2789  2.9074  1.9834
   20CHL1   C22 1462   2.389   5.188   9.313  0.1179 -0.2762 -0.0444
   20CHL1  H22A 1463   2.419   5.291   9.341  1.1793 -1.1448  2.2553
   20CHL1  H22B 1464   2.479   5.122   9.317 -0.0294 -0.4515  0.5111
   20CHL1   C23 1465   2.349   5.202   9.163  0.0081 -0.9286 -0.3136
   20CHL1  H23A 1466   2.436   5.214   9.095 -0.0431  1.2700 -0.0707
   20CHL1  H23B 1467   2.301   5.105   9.140 -2.1464  0.4364 -1.9798
   20CHL1   C24 1468   2.253   5.317   9.146  0.2513  0.5105  0.4694
   20CHL1  H24A 1469   2.163   5.295   9.208  0.1900 -0.8072 -0.0503
   20CHL1  H24B 1470   2.300   5.403   9.198  0.0671 -0.0186  1.5459
   20CHL1   C25 1471   2.218   5.359   9.009  1.0114 -0.2568  0.5551
   20CHL1   H25 1472   2.180   5.462   9.021  0.9036 -0.0551 -1.2595
   20CHL1   C26 1473   2.341   5.391   8.914  0.7969 -0.1200  0.1114
   20CHL1  H26A 1474   2.319   5.440   8.817 -0.0437 -0.7718 -0.0336
   20CHL1  H26B 1475   2.416   5.455   8.966  1.3680  1.5601 -2.6067
   20CHL1  H26C 1476   2.395   5.296   8.895 -0.2670 -0.7463  0.1429
   20CHL1   C27 1477   2.115   5.275   8.933  0.6270  0.3044  0.1384
   20CHL1  H27A 1478   2.007   5.289   8.957  0.2129  0.9512 -1.9088
   20CHL1  H27B 1479   2.118   5.312   8.829  1.7089  0.6643  0.2827
   20CHL1  H27C 1480   2.144   5.167   8.934  2.3418  0.7297  0.8150
   21CHL1    C3 1481   0.143   0.695  10.174 -0.0474 -0.4286  0.0150
   21CHL1    H3 1482   0.035   0.714  10.158  0.5097  2.9999 -0.5716
   21CHL1    O3 1483   0.158   0.695  10.314  0.3592  0.2197  0.5775
   21CHL1   H3' 1484   0.249   0.721  10.332  1.4358 -1.7719 -1.3912
   21CHL1    C4 1485   0.194   0.563  10.120 -0.0375 -0.5538  0.5354
   21CHL1   H4A 1486   0.295   0.542  10.162  0.1864  3.2930  2.3499
   21CHL1   H4B 1487   0.136   0.482  10.169  1.1697 -2.3304 -0.8319
   21CHL1    C5 1488   0.185   0.553   9.969  0.2686  0.1808 -0.3374
   21CHL1    C6 1489   0.117   0.453   9.911  0.5048 -0.5783 -0.4338
   21CHL1    H6 1490   0.067   0.383   9.980  0.0499  1.5303  1.5237
   21CHL1    C7 1491   0.102   0.439   9.763  0.6340  0.3763  0.2539
   21CHL1   H7A 1492   0.101   0.333   9.731  3.3655  1.1941 -3.1356
   21CHL1   H7B 1493  -0.001   0.475   9.739 -0.1892  0.3578  3.3416
   21CHL1    C8 1494   0.200   0.524   9.678  0.7142  0.9105 -0.2125
   21CHL1    H8 1495   0.300   0.477   9.688 -0.0338 -0.1448  4.3295
   21CHL1   C14 1496   0.150   0.525   9.534  0.3417 -0.0081 -0.3136
   21CHL1   H14 1497   0.055   0.583   9.539  1.9592  2.6891  1.7213
   21CHL1   C15 1498   0.126   0.396   9.456 -0.4777  0.0980 -0.8798
   21CHL1  H15A 1499   0.195   0.318   9.495 -1.2521 -0.7026 -1.0949
   21CHL1  H15B 1500   0.025   0.357   9.480  0.4020 -1.3616  0.7146
   21CHL1   C16 1501   0.128   0.440   9.303 -0.2395  0.0933  0.1075
   21CHL1  H16A 1502   0.212   0.392   9.250 -0.3139  1.0533 -0.9234
   21CHL1  H16B 1503   0.031   0.407   9.259 -0.6054 -0.1092  1.0467
   21CHL1   C17 1504   0.155   0.596   9.308  0.0315  0.0628  0.3100
   21CHL1   H17 1505   0.064   0.656   9.330  0.6911  0.8802  0.8780
   21CHL1   C13 1506   0.231   0.620   9.439 -0.8645 -0.0656 -0.8936
   21CHL1   C18 1507   0.380   0.570   9.434  0.1640  0.1756 -0.6005
   21CHL1  H18A 1508   0.437   0.568   9.530  0.0922  0.2910 -0.5550
   21CHL1  H18B 1509   0.383   0.466   9.396 -2.3996  0.2019 -1.0130
   21CHL1  H18C 1510   0.421   0.640   9.358  3.7117 -0.5635  0.4124
   21CHL1   C12 1511   0.232   0.762   9.499 -0.4370 -0.3553 -0.0166
   21CHL1  H12A 1512   0.298   0.824   9.435 -3.0475  1.0516 -1.5542
   21CHL1  H12B 1513   0.128   0.800   9.491 -0.7582 -0.7716  1.8799
   21CHL1   C11 1514   0.281   0.756   9.640 -0.2877  0.1624  0.5699
   21CHL1  H11A 1515   0.389   0.734   9.637 -0.1943  0.6843 -1.0865
   21CHL1  H11B 1516   0.283   0.863   9.671 -1.3614  0.5562 -0.6084
   21CHL1    C9 1517   0.206   0.663   9.735 -0.1960  0.0265 -0.1522
   21CHL1    H9 1518   0.101   0.701   9.740 -0.9235 -2.0798  2.4418
   21CHL1   C10 1519   0.245   0.671   9.887 -0.0327  0.2743  0.5912
   21CHL1   C19 1520   0.403   0.638   9.892  0.8835 -0.2582  0.1462
   21CHL1  H19A 1521   0.442   0.655   9.995  1.0934  2.8212 -0.3725
   21CHL1  H19B 1522   0.413   0.530   9.868 -0.3809 -0.3124 -0.1963
   21CHL1  H19C 1523   0.464   0.706   9.829 -0.9503  0.3139 -1.1125
   21CHL1    C1 1524   0.202   0.813   9.958  0.0958 -0.4432  0.4915
   21CHL1   H1A 1525   0.264   0.895   9.916 -1.0409  0.4134  0.4463
   21CHL1   H1B 1526   0.094   0.827   9.936 -0.0422 -0.3640  1.2023
   21CHL1    C2 1527   0.219   0.817  10.115  0.1875  0.1901 -0.6623
   21CHL1   H2A 1528   0.173   0.914  10.143 -2.6425 -0.3329 -3.0428
   21CHL1   H2B 1529   0.327   0.821  10.141 -0.1806 -1.7169  1.4794
   21CHL1   C20 1530   0.211   0.652   9.174  0.1487  0.5457  0.3824
   21CHL1   H20 1531   0.258   0.751   9.194  0.9787  0.5811 -1.4951
   21CHL1   C21 1532   0.087   0.669   9.077  0.6894  0.5244 -0.7866
   21CHL1  H21A 1533   0.101   0.734   8.988  1.0491  1.3555 -0.1374
   21CHL1  H21B 1534   0.009   0.725   9.134 -1.0246 -0.7835 -1.7371
   21CHL1  H21C 1535   0.044   0.567   9.066  1.9348 -0.4106  2.0032
   21CHL1   C22 1536   0.312   0.569   9.085 -0.3711 -0.1143 -0.1991
   21CHL1  H22A 1537   0.389   0.532   9.156  0.3249 -1.1200 -1.4256
   21CHL1  H22B 1538   0.268   0.473   9.051  2.2835 -1.1665 -0.9015
   21CHL1   C23 1539   0.363   0.647   8.956 -0.6885  0.9204 -0.0356
   21CHL1  H23A 1540   0.276   0.677   8.895  0.6446  2.4828 -1.2553
   21CHL1  H23B 1541   0.415   0.740   8.986  1.5958  1.1397 -4.0317
   21CHL1   C24 1542   0.447   0.566   8.860  0.2535  0.6278 -0.2279
   21CHL1  H24A 1543   0.512   0.514   8.934 -2.5229 -0.5696  1.5381
   21CHL1  H24B 1544   0.393   0.487   8.803  0.5604  1.4859 -1.7429
   21CHL1   C25 1545   0.517   0.649   8.750  0.3814 -0.7975  0.5662
   21CHL1   H25 1546   0.568   0.740   8.788 -1.1670  1.0733 -1.5053
   21CHL1   C26 1547   0.624   0.563   8.678 -0.1909 -0.0359  0.0036
   21CHL1  H26A 1548   0.704   0.521   8.743  0.5176 -1.1726 -1.5408
   21CHL1  H26B 1549   0.566   0.492   8.615 -0.1423 -1.2557  1.2853
   21CHL1  H26C 1550   0.672   0.634   8.608 -0.2563  2.2902  2.2012
   21CHL1   C27 1551   0.410   0.716   8.659  0.0138  0.6375  0.3162
   21CHL1  H27A 1552   0.451   0.767   8.569 -1.7638  1.2268 -0.1930
   21CHL1  H27B 1553   0.344   0.635   8.622 -1.0250  1.7300 -0.2782
   21CHL1  H27C 1554   0.353   0.795   8.712 -1.9286 -0.0852 -0.6111
   22CHL1    C3 1555   6.482   0.872  10.071  0.1506  0.6218  0.0407
   22CHL1    H3 1556   6.417   0.792  10.029 -1.2188  2.7265 -2.1328
   22CHL1    O3 1557   6.502   0.857  10.211  0.4351  0.7877  0.3869
   22CHL1   H3' 1558   6.559   0.933  10.228  0.2678  1.8245 -3.0230
   22CHL1    C4 1559   6.616   0.852   9.988 -0.0754 -0.3541  0.7239
   22CHL1   H4A 1560   6.685   0.921  10.041 -0.9105  0.9494  0.1684
   22CHL1   H4B 1561   6.645   0.748  10.015 -0.0176 -0.4110  0.4480
   22CHL1    C5 1562   6.607   0.874   9.832  0.6685  0.6759  0.0421
   22CHL1    C6 1563   6.642   0.784   9.739 -0.6845 -0.3606  0.3914
   22CHL1    H6 1564   6.693   0.697   9.782  0.0746  0.0511  0.3484
   22CHL1    C7 1565   6.631   0.793   9.587 -0.5538 -0.1528 -0.0465
   22CHL1   H7A 1566   6.728   0.771   9.536  0.1605  2.9229 -0.1839
   22CHL1   H7B 1567   6.543   0.728   9.566  0.4762 -1.9386  0.9074
   22CHL1    C8 1568   6.608   0.945   9.553  0.8426 -0.5039 -0.1257
   22CHL1    H8 1569   6.701   1.001   9.574 -0.4361  2.2527 -1.3745
   22CHL1   C14 1570   6.573   0.962   9.408  0.7430  0.5585  0.1154
   22CHL1   H14 1571   6.474   0.915   9.391 -0.1538  2.0084  1.0557
   22CHL1   C15 1572   6.659   0.904   9.298  0.3399  0.0262 -0.1844
   22CHL1  H15A 1573   6.764   0.927   9.326 -0.0632  0.2339  1.1806
   22CHL1  H15B 1574   6.638   0.795   9.292 -1.9533  0.3379  1.2110
   22CHL1   C16 1575   6.615   0.983   9.168  0.1397  0.8258  0.6082
   22CHL1  H16A 1576   6.711   1.016   9.123  0.3729 -1.8695 -1.1172
   22CHL1  H16B 1577   6.571   0.905   9.102  2.6491 -1.5159  1.5092
   22CHL1   C17 1578   6.512   1.094   9.213 -0.6469 -0.6000  0.3615
   22CHL1   H17 1579   6.410   1.049   9.208 -0.4877 -0.8728 -1.0739
   22CHL1   C13 1580   6.536   1.112   9.368  0.5151  0.8237  0.2771
   22CHL1   C18 1581   6.668   1.201   9.368 -0.7044 -0.0107 -0.1825
   22CHL1  H18A 1582   6.745   1.168   9.296  1.0024 -1.0550  2.0022
   22CHL1  H18B 1583   6.654   1.309   9.345  0.4050 -0.0931 -1.3263
   22CHL1  H18C 1584   6.704   1.206   9.473  2.3144  0.1647 -1.1197
   22CHL1   C12 1585   6.426   1.167   9.450  0.2928  0.4061 -0.1098
   22CHL1  H12A 1586   6.412   1.276   9.433  0.5176  0.5422  0.5292
   22CHL1  H12B 1587   6.333   1.112   9.428  0.7567 -0.4044 -0.0896
   22CHL1   C11 1588   6.461   1.161   9.592 -0.6657  0.1058 -0.1282
   22CHL1  H11A 1589   6.545   1.226   9.622 -1.4569 -0.1680  2.9444
   22CHL1  H11B 1590   6.376   1.194   9.655  0.5653  0.7295  1.2591
   22CHL1    C9 1591   6.491   1.011   9.643  0.4732 -0.5892 -0.3037
   22CHL1    H9 1592   6.404   0.942   9.635  0.2205 -0.3451  0.2911
   22CHL1   C10 1593   6.537   1.006   9.794  1.0466  0.5296  0.0085
   22CHL1   C19 1594   6.642   1.110   9.830 -0.6380 -0.5693  0.0178
   22CHL1  H19A 1595   6.589   1.204   9.856  2.6752  1.3488  0.4293
   22CHL1  H19B 1596   6.683   1.090   9.931 -0.8379 -1.6725 -0.1107
   22CHL1  H19C 1597   6.724   1.121   9.756 -1.9599 -0.7297 -1.5256
   22CHL1    C1 1598   6.409   1.030   9.880 -0.1662 -1.0308  0.3562
   22CHL1   H1A 1599   6.366   1.131   9.864 -0.1138 -0.9797  0.5293
   22CHL1   H1B 1600   6.327   0.965   9.844 -0.4664 -0.4597 -0.0012
   22CHL1    C2 1601   6.420   1.008  10.029  0.6156  0.6860 -0.2199
   22CHL1   H2A 1602   6.318   1.000  10.072  1.0205 -2.9596  0.3584
   22CHL1   H2B 1603   6.464   1.092  10.086 -0.6851  1.6683 -0.5992
   22CHL1   C20 1604   6.512   1.211   9.123  0.4778  0.4458 -0.3531
   22CHL1   H20 1605   6.590   1.288   9.143  0.2470  0.7931 -0.7628
   22CHL1   C21 1606   6.377   1.278   9.131 -0.0652  0.1394  0.4097
   22CHL1  H21A 1607   6.359   1.318   9.233  0.0442 -0.5269  0.6950
   22CHL1  H21B 1608   6.284   1.220   9.109 -1.2943  2.1401  0.0567
   22CHL1  H21C 1609   6.378   1.364   9.061 -0.1085 -1.5186 -1.7342
   22CHL1   C22 1610   6.525   1.180   8.972 -0.2695  0.3019 -0.1855
   22CHL1  H22A 1611   6.630   1.146   8.958  0.2316  1.7080  0.0418
   22CHL1  H22B 1612   6.455   1.104   8.932 -0.0570  0.2283 -0.4236
   22CHL1   C23 1613   6.515   1.304   8.883  1.0431 -0.6384  0.0038
   22CHL1  H23A 1614   6.409   1.333   8.868  1.3186  0.0848 -0.5636
   22CHL1  H23B 1615   6.559   1.393   8.932 -1.2549 -0.5224  2.0985
   22CHL1   C24 1616   6.583   1.280   8.749 -0.7712  0.0919 -0.1866
   22CHL1  H24A 1617   6.679   1.334   8.764  0.0582 -0.9722 -1.4575
   22CHL1  H24B 1618   6.612   1.173   8.737 -0.6039 -0.2184  2.2933
   22CHL1   C25 1619   6.517   1.341   8.630 -0.0362 -0.5781  0.4019
   22CHL1   H25 1620   6.513   1.450   8.654  1.7486 -0.4054 -0.0133
   22CHL1   C26 1621   6.595   1.322   8.506 -0.1539  0.5350  0.0363
   22CHL1  H26A 1622   6.691   1.377   8.506  0.0559  0.1832  0.7070
   22CHL1  H26B 1623   6.597   1.212   8.491 -1.1401  0.7550 -2.1190
   22CHL1  H26C 1624   6.546   1.368   8.418  2.6022 -0.6801 -2.2897
   22CHL1   C27 1625   6.370   1.304   8.609 -0.4797 -0.2383  0.6182
   22CHL1  H27A 1626   6.312   1.393   8.578 -0.9676 -0.0351  2.0573
   22CHL1  H27B 1627   6.360   1.229   8.527 -1.9616 -0.3793  0.9091
   22CHL1  H27C 1628   6.320   1.262   8.699  0.8036  0.5463  1.7361
   23CHL1    C3 1629   2.697   3.071   9.930  0.3181  0.3611  0.0749
   23CHL1    H3 1630   2.589   3.048   9.913  0.3026 -0.0176  0.6694
   23CHL1    O3 1631   2.733   3.044  10.068 -0.6237  0.1523 -0.3149
   23CHL1   H3' 1632   2.775   3.128  10.090  0.4147 -0.1470 -1.1112
   23CHL1    C4 1633   2.781   2.982   9.842  0.0711  0.1768  0.3124
   23CHL1   H4A 1634   2.887   3.005   9.865  0.4308 -1.3534  0.2883
   23CHL1   H4B 1635   2.768   2.875   9.870  3.3316  0.0262  1.7022
   23CHL1    C5 1636   2.751   3.014   9.701  0.6657 -0.7535 -0.1684
   23CHL1    C6 1637   2.721   2.917   9.615  0.1324 -0.5105 -0.1419
   23CHL1    H6 1638   2.720   2.814   9.655  0.0717 -1.1168 -1.6134
   23CHL1    C7 1639   2.694   2.931   9.469 -0.0515  0.5547 -0.2417
   23CHL1   H7A 1640   2.754   2.851   9.421  2.6283  0.4120  3.0479
   23CHL1   H7B 1641   2.592   2.900   9.436  0.5419 -0.4936 -1.1741
   23CHL1    C8 1642   2.734   3.072   9.418  0.4977  0.0500  0.6326
   23CHL1    H8 1643   2.844   3.069   9.402  0.5398 -1.6720  1.0527
   23CHL1   C14 1644   2.670   3.100   9.284  0.6255 -0.7695  1.4884
   23CHL1   H14 1645   2.561   3.115   9.301  0.6068 -0.9496  1.5303
   23CHL1   C15 1646   2.695   2.990   9.175 -0.1825 -0.7895 -0.6638
   23CHL1  H15A 1647   2.799   2.950   9.183  1.1327  2.5594  0.5132
   23CHL1  H15B 1648   2.613   2.915   9.170 -0.1227 -0.9143  0.0814
   23CHL1   C16 1649   2.693   3.066   9.043  0.5521  0.4339 -0.0014
   23CHL1  H16A 1650   2.793   3.072   8.995  0.5733 -1.6811 -0.2846
   23CHL1  H16B 1651   2.617   3.017   8.979  0.1559 -1.5517  1.8962
   23CHL1   C17 1652   2.655   3.215   9.078 -0.2383 -0.0696  0.2157
   23CHL1   H17 1653   2.544   3.208   9.068 -0.3474 -0.4275  1.6085
   23CHL1   C13 1654   2.710   3.233   9.220 -0.4294 -0.1462  0.3992
   23CHL1   C18 1655   2.865   3.261   9.209 -0.0832  0.7497  0.3500
   23CHL1  H18A 1656   2.884   3.365   9.176  1.5652 -0.2825 -2.2095
   23CHL1  H18B 1657   2.912   3.247   9.309  0.4552 -0.0802 -0.0048
   23CHL1  H18C 1658   2.918   3.196   9.136  0.4171  2.8278 -1.2134
   23CHL1   C12 1659   2.653   3.338   9.316 -0.4021  0.3405 -0.6578
   23CHL1  H12A 1660   2.679   3.441   9.283  1.3839 -0.1470 -0.8685
   23CHL1  H12B 1661   2.543   3.329   9.318 -0.4508  0.7526 -1.3682
   23CHL1   C11 1662   2.709   3.323   9.456  0.9613 -0.5030 -0.0640
   23CHL1  H11A 1663   2.814   3.361   9.454  1.6762 -1.7580  4.2611
   23CHL1  H11B 1664   2.657   3.385   9.532  2.4890  2.0401 -0.9450
   23CHL1    C9 1665   2.693   3.182   9.519  0.0611  0.3870  0.7453
   23CHL1    H9 1666   2.587   3.160   9.541  0.1346  0.0915  0.8085
   23CHL1   C10 1667   2.755   3.168   9.661  0.0729 -0.2584  0.1867
   23CHL1   C19 1668   2.907   3.213   9.653 -0.5398  0.1186  0.2926
   23CHL1  H19A 1669   2.952   3.166   9.563 -0.7197  0.4072  0.0513
   23CHL1  H19B 1670   2.913   3.322   9.633 -3.6586  0.4631  0.7429
   23CHL1  H19C 1671   2.956   3.198   9.751  0.1895  2.5730  0.3662
   23CHL1    C1 1672   2.673   3.252   9.769 -0.1279  0.4765  0.0559
   23CHL1   H1A 1673   2.670   3.360   9.746  0.8824  0.7217  1.0175
   23CHL1   H1B 1674   2.566   3.222   9.755 -0.2667 -0.0389  1.8851
   23CHL1    C2 1675   2.710   3.224   9.910 -0.3941  0.0777 -0.0402
   23CHL1   H2A 1676   2.660   3.277   9.994  2.4256  2.6389  0.2082
   23CHL1   H2B 1677   2.817   3.247   9.928 -0.7090 -0.6455  3.7558
   23CHL1   C20 1678   2.698   3.312   8.953 -0.1129  0.7637 -0.4802
   23CHL1   H20 1679   2.809   3.312   8.950 -0.0539 -0.1275  0.8789
   23CHL1   C21 1680   2.649   3.453   8.995 -0.3406 -0.4668  0.9181
   23CHL1  H21A 1681   2.639   3.511   8.901 -1.4106 -1.1362  0.5969
   23CHL1  H21B 1682   2.727   3.502   9.058  0.0430 -1.6876  1.4138
   23CHL1  H21C 1683   2.546   3.443   9.037 -0.4044 -0.0437  0.8696
   23CHL1   C22 1684   2.647   3.267   8.813  0.3979  0.2820 -0.1542
   23CHL1  H22A 1685   2.654   3.157   8.797  2.0558 -0.0214  2.1168
   23CHL1  H22B 1686   2.540   3.286   8.835  0.6666  3.2532 -0.9234
   23CHL1   C23 1687   2.699   3.340   8.687  0.9265  0.4361 -0.7748
   23CHL1  H23A 1688   2.647   3.299   8.598 -0.2036  1.6383 -0.7081
   23CHL1  H23B 1689   2.666   3.446   8.694 -2.2368 -0.3048 -2.4059
   23CHL1   C24 1690   2.855   3.330   8.657 -0.1291  0.5013  0.3648
   23CHL1  H24A 1691   2.912   3.409   8.710 -0.9831 -0.4083  2.8206
   23CHL1  H24B 1692   2.894   3.228   8.678  2.2311  1.6286  1.8138
   23CHL1   C25 1693   2.886   3.336   8.499  0.1391 -0.7543  0.5830
   23CHL1   H25 1694   2.811   3.408   8.459  0.4532  0.2123  1.6461
   23CHL1   C26 1695   3.035   3.371   8.490 -0.1400 -0.1671 -0.0324
   23CHL1  H26A 1696   3.099   3.320   8.565  1.4293  0.3265 -0.9828
   23CHL1  H26B 1697   3.076   3.354   8.388 -2.1329  2.6415 -1.4437
   23CHL1  H26C 1698   3.038   3.479   8.519  2.2080 -0.1788 -0.0169
   23CHL1   C27 1699   2.857   3.203   8.425  0.5119 -0.5122 -0.2993
   23CHL1  H27A 1700   2.750   3.176   8.414  0.5858 -2.8515  3.1690
   23CHL1  H27B 1701   2.893   3.223   8.322  3.1829 -0.2970  0.6034
   23CHL1  H27C 1702   2.913   3.119   8.471 -0.9154 -0.0654  2.4057
   24CHL1    C3 1703   6.015   5.591  10.104 -0.6748  0.0419  0.4752
   24CHL1    H3 1704   6.125   5.581  10.092 -0.2588  1.0077  2.9479
   24CHL1    O3 1705   5.987   5.593  10.240  0.2724 -0.0902  0.0218
   24CHL1   H3' 1706   5.895   5.621  10.237  0.2424 -0.0923  0.8744
   24CHL1    C4 1707   5.983   5.736  10.042  0.1600  1.2537  0.4044
   24CHL1   H4A 1708   5.880   5.756  10.080 -0.2348  0.2225 -0.0848
   24CHL1   H4B 1709   6.050   5.805  10.098  0.6803  1.1761 -0.1102
   24CHL1    C5 1710   6.002   5.744   9.892  0.4772  0.3448  0.1003
   24CHL1    C6 1711   6.071   5.837   9.835 -1.1587 -0.4195  0.7432
   24CHL1    H6 1712   6.127   5.913   9.890 -1.9144 -0.2478  1.2908
   24CHL1    C7 1713   6.100   5.840   9.688  0.0067  0.3530 -0.0430
   24CHL1   H7A 1714   6.108   5.946   9.656  0.3776  0.5212  0.5973
   24CHL1   H7B 1715   6.201   5.799   9.667  0.0457  0.3225  0.2047
   24CHL1    C8 1716   5.986   5.775   9.609 -0.1898 -0.3389 -0.5444
   24CHL1    H8 1717   5.896   5.840   9.619  0.2079  0.1963 -0.3781
   24CHL1   C14 1718   6.033   5.759   9.469 -0.0036 -0.0363  0.3774
   24CHL1   H14 1719   6.129   5.703   9.462 -0.3648 -0.6836  0.5606
   24CHL1   C15 1720   6.063   5.891   9.391 -0.2670  0.2055  0.0371
   24CHL1  H15A 1721   5.981   5.966   9.391 -0.4980 -0.0448 -0.0615
   24CHL1  H15B 1722   6.150   5.949   9.430 -1.2908  1.8464 -0.0265
   24CHL1   C16 1723   6.084   5.839   9.245 -0.0772  0.0378 -0.1098
   24CHL1  H16A 1724   6.039   5.907   9.169 -0.6437 -0.4038 -0.1844
   24CHL1  H16B 1725   6.192   5.827   9.224 -0.1193  1.3154 -1.1742
   24CHL1   C17 1726   6.017   5.698   9.236  0.6505  0.0394  0.5293
   24CHL1   H17 1727   6.094   5.621   9.260  1.0600 -0.0815 -1.0704
   24CHL1   C13 1728   5.943   5.685   9.368 -0.4345 -0.3516 -0.7823
   24CHL1   C18 1729   5.809   5.765   9.364 -0.2880 -0.0129 -0.1233
   24CHL1  H18A 1730   5.804   5.856   9.300 -0.7529  1.2306  1.6122
   24CHL1  H18B 1731   5.736   5.703   9.308  1.6369 -3.3197  0.7572
   24CHL1  H18C 1732   5.761   5.784   9.462 -1.4452 -2.7297 -0.0821
   24CHL1   C12 1733   5.914   5.545   9.426  0.1258  0.3251  0.6081
   24CHL1  H12A 1734   5.838   5.486   9.372  1.1009 -0.3585 -0.0486
   24CHL1  H12B 1735   6.007   5.485   9.422 -0.9413 -1.3967  0.9249
   24CHL1   C11 1736   5.865   5.554   9.574  0.7364 -0.6854 -0.9288
   24CHL1  H11A 1737   5.762   5.596   9.570  1.3492  1.0466  0.4215
   24CHL1  H11B 1738   5.868   5.450   9.613  1.8331  0.0122  0.9745
   24CHL1    C9 1739   5.954   5.637   9.667  0.1506 -0.2122  0.6783
   24CHL1    H9 1740   6.049   5.579   9.662  0.5611  0.5138 -0.3707
   24CHL1   C10 1741   5.922   5.638   9.811  0.2321  0.4827  0.2023
   24CHL1   C19 1742   5.775   5.667   9.830 -0.1646  0.2205  0.0650
   24CHL1  H19A 1743   5.742   5.764   9.788  0.3398  1.8683  3.2098
   24CHL1  H19B 1744   5.717   5.591   9.774  1.3550 -1.0315  0.0987
   24CHL1  H19C 1745   5.739   5.654   9.934 -2.0833 -4.2460 -0.9226
   24CHL1    C1 1746   5.948   5.500   9.877  0.3610 -0.1587  0.9105
   24CHL1   H1A 1747   5.880   5.422   9.835  0.6701  0.0987 -0.0961
   24CHL1   H1B 1748   6.049   5.475   9.839  0.0873  0.8568 -0.5527
   24CHL1    C2 1749   5.935   5.485  10.028 -0.4405  1.0032 -0.0458
   24CHL1   H2A 1750   5.969   5.383  10.057  2.1661  0.8336 -3.1497
   24CHL1   H2B 1751   5.829   5.509  10.052 -0.0982  1.5158  1.0242
   24CHL1   C20 1752   5.937   5.666   9.108  0.0467 -0.5665 -0.6222
   24CHL1   H20 1753   5.858   5.590   9.125 -2.9718  2.4269 -0.2696
   24CHL1   C21 1754   6.043   5.610   9.008  0.8376  0.2975 -0.4382
   24CHL1  H21A 1755   6.117   5.689   8.984  2.0836 -0.0520  1.9869
   24CHL1  H21B 1756   5.992   5.573   8.916 -0.0209  0.4435 -0.0367
   24CHL1  H21C 1757   6.108   5.531   9.050  0.7712  0.9859  1.0363
   24CHL1   C22 1758   5.875   5.783   9.023 -0.2390  1.1249  0.2702
   24CHL1  H22A 1759   5.827   5.854   9.093 -0.6526 -0.6282  1.8517
   24CHL1  H22B 1760   5.966   5.834   8.984 -0.4309  1.7759  0.6549
   24CHL1   C23 1761   5.767   5.737   8.919 -0.2368  0.0673 -0.2651
   24CHL1  H23A 1762   5.825   5.668   8.854  1.3812  0.6034  0.5437
   24CHL1  H23B 1763   5.694   5.683   8.984  0.1445  0.4783  0.5165
   24CHL1   C24 1764   5.706   5.848   8.842 -0.1357 -0.2898 -0.6335
   24CHL1  H24A 1765   5.665   5.927   8.909 -0.0384 -0.7367 -0.0395
   24CHL1  H24B 1766   5.778   5.900   8.775  0.7949 -1.5191 -0.6205
   24CHL1   C25 1767   5.594   5.813   8.745 -0.3465 -0.0016 -0.5869
   24CHL1   H25 1768   5.531   5.749   8.811 -0.7583  0.2029 -0.7844
   24CHL1   C26 1769   5.508   5.938   8.702 -0.8022  0.0686 -0.4275
   24CHL1  H26A 1770   5.441   5.912   8.617 -0.6125 -2.5196  0.1180
   24CHL1  H26B 1771   5.451   5.964   8.793  2.1185 -0.4986  1.7006
   24CHL1  H26C 1772   5.573   6.025   8.681  0.3584 -0.5211  0.6562
   24CHL1   C27 1773   5.653   5.743   8.622 -0.2857  0.0982  0.1153
   24CHL1  H27A 1774   5.696   5.808   8.543 -0.7035 -1.4813 -1.4911
   24CHL1  H27B 1775   5.724   5.663   8.654 -1.6923 -0.7127  1.2977
   24CHL1  H27C 1776   5.576   5.691   8.561  2.4086  1.0385 -4.5988
   25CHL1    C3 1777   0.667   5.855  10.292  0.0961 -0.0815  0.2811
   25CHL1    H3 1778   0.652   5.748  10.266  1.4786 -0.3059  0.3173
   25CHL1    O3 1779   0.660   5.882  10.431 -0.3497 -0.0169 -0.1459
   25CHL1   H3' 1780   0.728   5.823  10.464  0.4657 -0.3873 -2.3433
   25CHL1    C4 1781   0.807   5.884  10.248 -0.7959  0.2329  0.2071
   25CHL1   H4A 1782   0.843   5.983  10.284 -0.3013 -0.0589  0.5149
   25CHL1   H4B 1783   0.864   5.812  10.310 -0.9024 -0.5819 -0.6218
   25CHL1    C5 1784   0.816   5.863  10.100 -0.4756  0.3686  0.1328
   25CHL1    C6 1785   0.904   5.778  10.049  0.4026  0.0514  0.0408
   25CHL1    H6 1786   0.972   5.730  10.122 -0.3839  1.5335  1.8179
   25CHL1    C7 1787   0.932   5.753   9.903  0.0596  0.0538  0.3952
   25CHL1   H7A 1788   1.039   5.733   9.879 -0.5615 -0.0498 -2.7484
   25CHL1   H7B 1789   0.882   5.660   9.867  1.4288 -0.3285 -0.6225
   25CHL1    C8 1790   0.880   5.870   9.816  0.3074  0.1548 -0.7096
   25CHL1    H8 1791   0.950   5.955   9.833 -0.3897  0.6580 -0.3308
   25CHL1   C14 1792   0.887   5.838   9.664 -0.1725 -0.1994 -0.3347
   25CHL1   H14 1793   0.819   5.754   9.641 -0.4067 -0.3348  0.7843
   25CHL1   C15 1794   1.024   5.798   9.608  0.6684 -0.1830  0.6922
   25CHL1  H15A 1795   1.091   5.885   9.622 -0.3777  1.0687 -1.5104
   25CHL1  H15B 1796   1.077   5.705   9.636 -1.2995 -1.1367  1.4367
   25CHL1   C16 1797   0.993   5.808   9.454 -0.1702  0.7066  0.5476
   25CHL1  H16A 1798   1.085   5.849   9.406  0.4181  1.7865  2.4657
   25CHL1  H16B 1799   0.973   5.708   9.412  1.5164  0.2912  0.6713
   25CHL1   C17 1800   0.869   5.898   9.435  0.7674  0.6494 -1.0193
   25CHL1   H17 1801   0.790   5.825   9.409  3.2122 -2.8328  0.5380
   25CHL1   C13 1802   0.836   5.958   9.572 -0.2645 -0.1923  0.2646
   25CHL1   C18 1803   0.920   6.083   9.594 -1.0751 -0.2281 -0.0739
   25CHL1  H18A 1804   0.900   6.170   9.528 -0.6975  1.4915  1.9857
   25CHL1  H18B 1805   0.925   6.121   9.698  2.4040  0.0848 -0.2382
   25CHL1  H18C 1806   1.026   6.057   9.572 -1.3276 -1.1768 -0.2327
   25CHL1   C12 1807   0.690   5.987   9.614 -0.1397  0.1969 -0.0422
   25CHL1  H12A 1808   0.642   6.066   9.552 -1.5794 -0.8156 -0.2665
   25CHL1  H12B 1809   0.629   5.896   9.597 -0.2496  0.0972  0.8442
   25CHL1   C11 1810   0.677   6.029   9.760  0.2715  0.1716 -0.2005
   25CHL1  H11A 1811   0.714   6.133   9.776 -0.7683  0.5579 -0.2598
   25CHL1  H11B 1812   0.568   6.036   9.780  0.0294 -0.1418 -1.3756
   25CHL1    C9 1813   0.737   5.916   9.856  0.2507  0.1244 -0.6538
   25CHL1    H9 1814   0.675   5.824   9.842 -0.5812  0.5186  0.3921
   25CHL1   C10 1815   0.728   5.953  10.008  0.7341  0.8088 -0.0890
   25CHL1   C19 1816   0.791   6.099  10.028 -0.6662  0.1322 -0.9516
   25CHL1  H19A 1817   0.898   6.112  10.001  0.0993 -3.1013  0.1192
   25CHL1  H19B 1818   0.724   6.176   9.984 -1.7347  0.2156  0.7345
   25CHL1  H19C 1819   0.784   6.123  10.136  2.2594 -0.0099 -0.6325
   25CHL1    C1 1820   0.589   5.945  10.065  0.3391 -0.3362  0.9920
   25CHL1   H1A 1821   0.532   6.024  10.013  1.3298 -0.0042  0.3873
   25CHL1   H1B 1822   0.542   5.845  10.050  0.1331 -0.0504 -0.4513
   25CHL1    C2 1823   0.574   5.952  10.221 -0.0946 -0.0154 -0.1683
   25CHL1   H2A 1824   0.470   5.926  10.251  0.5124 -0.2745  1.8208
   25CHL1   H2B 1825   0.589   6.054  10.261 -0.8597 -0.2067  0.6484
   25CHL1   C20 1826   0.883   5.993   9.312 -0.4830  0.1828  0.3142
   25CHL1   H20 1827   0.959   6.073   9.326  0.7563 -1.3783  3.4734
   25CHL1   C21 1828   0.745   6.065   9.304 -0.1293  0.2134  0.1796
   25CHL1  H21A 1829   0.749   6.150   9.375 -1.0213  0.4726 -0.0764
   25CHL1  H21B 1830   0.658   6.001   9.329 -0.0410  0.5663  1.4229
   25CHL1  H21C 1831   0.716   6.109   9.206 -0.5839 -0.8862 -0.2003
   25CHL1   C22 1832   0.912   5.914   9.184 -0.5057  0.0661  0.2530
   25CHL1  H22A 1833   1.005   5.855   9.193 -0.5925 -0.0362  0.4843
   25CHL1  H22B 1834   0.824   5.848   9.171 -0.8184  0.6069 -0.4727
   25CHL1   C23 1835   0.922   5.998   9.058 -0.4563 -0.2045 -0.1514
   25CHL1  H23A 1836   0.923   5.920   8.979 -1.6272 -0.0935 -0.2963
   25CHL1  H23B 1837   0.827   6.056   9.051  0.1790  0.6492 -2.4518
   25CHL1   C24 1838   1.037   6.100   9.041 -0.5648 -0.5076  0.5140
   25CHL1  H24A 1839   1.026   6.168   9.128  1.8094 -0.8452  1.1452
   25CHL1  H24B 1840   1.133   6.044   9.048  0.1195  0.5659 -0.0493
   25CHL1   C25 1841   1.026   6.186   8.911 -0.0061 -0.1021 -0.2103
   25CHL1   H25 1842   0.931   6.242   8.901  0.7090  0.8054 -2.4540
   25CHL1   C26 1843   1.141   6.297   8.916 -0.1184  0.2326  0.7728
   25CHL1  H26A 1844   1.137   6.358   9.009 -0.9006  0.1770  0.7810
   25CHL1  H26B 1845   1.234   6.238   8.900 -1.5649 -1.5271 -1.9726
   25CHL1  H26C 1846   1.123   6.361   8.827 -0.5838 -0.4390  0.3668
   25CHL1   C27 1847   1.036   6.097   8.780 -0.1620  0.3891 -0.0147
   25CHL1  H27A 1848   0.948   6.029   8.777 -0.3370  0.6255 -0.4019
   25CHL1  H27B 1849   1.043   6.158   8.687 -2.1140  1.4259  0.4614
   25CHL1  H27C 1850   1.120   6.026   8.796 -1.6679 -1.1200  1.6419
   26CHL1    C3 1851   0.278   1.654  10.008 -0.5640  1.1433 -0.2562
   26CHL1    H3 1852   0.346   1.568   9.992 -0.5069  0.9960  0.7130
   26CHL1    O3 1853   0.269   1.678  10.145  0.0717 -0.4859  0.3233
   26CHL1   H3' 1854   0.208   1.611  10.177  0.4592 -0.2939  1.5281
   26CHL1    C4 1855   0.316   1.778   9.922  0.4829 -0.1870  0.4153
   26CHL1   H4A 1856   0.245   1.861   9.943 -0.8759 -1.2220  0.0421
   26CHL1   H4B 1857   0.409   1.819   9.966 -0.3570  0.3445  1.7876
   26CHL1    C5 1858   0.319   1.753   9.769  0.2573  0.7033 -0.1576
   26CHL1    C6 1859   0.420   1.790   9.688  0.3654  0.0883  0.5139
   26CHL1    H6 1860   0.506   1.845   9.730 -0.6051  1.3176  0.9689
   26CHL1    C7 1861   0.425   1.765   9.537  0.0558 -0.0997 -0.5253
   26CHL1   H7A 1862   0.477   1.849   9.486  1.4136 -0.8731 -0.4576
   26CHL1   H7B 1863   0.496   1.681   9.522 -0.3235 -0.4318 -0.4504
   26CHL1    C8 1864   0.286   1.733   9.483 -0.2736 -0.7565 -0.1960
   26CHL1    H8 1865   0.237   1.832   9.484  1.4512  0.1417  1.4218
   26CHL1   C14 1866   0.291   1.679   9.341  0.7556  0.2100 -0.0503
   26CHL1   H14 1867   0.339   1.579   9.352  1.8317  0.7673  0.4028
   26CHL1   C15 1868   0.384   1.738   9.229 -0.3179  0.0249  0.0551
   26CHL1  H15A 1869   0.394   1.848   9.229 -0.3777  0.0285 -0.5580
   26CHL1  H15B 1870   0.489   1.700   9.238 -0.2542  0.6155  3.0267
   26CHL1   C16 1871   0.329   1.701   9.096  0.0628 -0.1627  0.7669
   26CHL1  H16A 1872   0.288   1.783   9.034 -1.9100 -0.0975  2.0534
   26CHL1  H16B 1873   0.403   1.649   9.032  0.0527 -0.3768  0.9262
   26CHL1   C17 1874   0.214   1.600   9.132  1.3121 -0.5485  0.1941
   26CHL1   H17 1875   0.259   1.501   9.158 -0.6920 -1.4532  0.3815
   26CHL1   C13 1876   0.159   1.650   9.274 -0.2383  0.2726 -0.5463
   26CHL1   C18 1877   0.080   1.773   9.251  0.1453 -0.2867 -0.1631
   26CHL1  H18A 1878  -0.016   1.741   9.206  0.6596 -1.1323 -0.6857
   26CHL1  H18B 1879   0.065   1.839   9.339  0.2043 -0.2229 -0.2004
   26CHL1  H18C 1880   0.137   1.840   9.184  1.7233 -0.1597  1.2358
   26CHL1   C12 1881   0.082   1.551   9.358 -0.1582 -0.4660 -0.1000
   26CHL1  H12A 1882  -0.015   1.540   9.304 -0.8261 -0.3547  1.0359
   26CHL1  H12B 1883   0.135   1.453   9.364  0.1366 -0.3000 -0.0264
   26CHL1   C11 1884   0.063   1.602   9.504  1.2720  0.1938  0.8005
   26CHL1  H11A 1885  -0.004   1.686   9.477 -0.2879 -1.6768 -1.6135
   26CHL1  H11B 1886   0.004   1.527   9.561 -1.5647  2.0128  0.4380
   26CHL1    C9 1887   0.198   1.644   9.570  0.3505  0.1704  0.0707
   26CHL1    H9 1888   0.243   1.542   9.576 -0.8245 -0.3247  0.7687
   26CHL1   C10 1889   0.187   1.684   9.713 -0.6004  0.0713 -0.3703
   26CHL1   C19 1890   0.067   1.793   9.720  0.3540  0.2448  0.5469
   26CHL1  H19A 1891   0.080   1.869   9.641 -2.4419  1.3395  0.9979
   26CHL1  H19B 1892  -0.031   1.747   9.697  1.0861  0.4324 -3.6528
   26CHL1  H19C 1893   0.060   1.847   9.818 -0.4583  0.4041  0.4075
   26CHL1    C1 1894   0.154   1.559   9.804  0.1523  0.4477 -0.0600
   26CHL1   H1A 1895   0.064   1.508   9.764  1.0137 -1.1222 -0.0833
   26CHL1   H1B 1896   0.244   1.494   9.807 -2.0121 -2.7609  1.9684
   26CHL1    C2 1897   0.138   1.599   9.956 -0.2370  0.0767 -0.2160
   26CHL1   H2A 1898   0.118   1.499  10.000  0.4934 -1.6763 -3.5372
   26CHL1   H2B 1899   0.050   1.666   9.963 -1.1232 -1.0682 -0.0475
   26CHL1   C20 1900   0.111   1.579   9.011  0.2130 -0.0709 -0.3849
   26CHL1   H20 1901   0.057   1.674   8.988 -1.3943 -1.2483 -1.7504
   26CHL1   C21 1902  -0.002   1.469   9.041  0.0155 -0.1914  0.1809
   26CHL1  H21A 1903  -0.069   1.495   9.125  0.8548 -0.5740  0.9850
   26CHL1  H21B 1904   0.053   1.375   9.065  2.7892  1.0603 -0.8285
   26CHL1  H21C 1905  -0.063   1.449   8.950 -1.2797  0.4981  0.8765
   26CHL1   C22 1906   0.186   1.545   8.884  0.2964 -0.5396 -0.4758
   26CHL1  H22A 1907   0.269   1.616   8.865 -1.5128  1.6530 -0.5832
   26CHL1  H22B 1908   0.240   1.448   8.887 -0.6620 -1.0810  0.2405
   26CHL1   C23 1909   0.100   1.535   8.760 -0.3169 -0.6764  0.3819
   26CHL1  H23A 1910   0.061   1.431   8.753  0.3780 -1.0532  1.7350
   26CHL1  H23B 1911   0.021   1.613   8.764  1.1883  0.8636  1.6817
   26CHL1   C24 1912   0.181   1.558   8.627  0.1642 -0.0011 -0.3586
   26CHL1  H24A 1913   0.223   1.661   8.627 -0.6116  0.4037 -3.0974
   26CHL1  H24B 1914   0.267   1.488   8.621  1.2280  1.2339 -0.0082
   26CHL1   C25 1915   0.098   1.544   8.503  0.3781  0.3792 -0.0009
   26CHL1   H25 1916   0.060   1.440   8.491 -1.2277  0.7567  1.3476
   26CHL1   C26 1917  -0.028   1.636   8.512 -0.2477 -0.6045  0.1857
   26CHL1  H26A 1918  -0.080   1.636   8.414 -0.5853 -2.3163  0.3345
   26CHL1  H26B 1919  -0.100   1.616   8.594  0.6190  1.3529  1.4815
   26CHL1  H26C 1920   0.000   1.742   8.524 -2.0716 -0.0631 -0.1091
   26CHL1   C27 1921   0.175   1.585   8.381  0.3335  0.1132 -1.3787
   26CHL1  H27A 1922   0.254   1.508   8.366  0.6662  0.3283 -0.7661
   26CHL1  H27B 1923   0.102   1.585   8.297  1.1174 -0.8238 -2.0694
   26CHL1  H27C 1924   0.213   1.689   8.386 -2.8825  1.4065  3.0639
   27CHL1    C3 1925   0.599   5.341  10.243 -0.4237  1.0639 -0.0360
   27CHL1    H3 1926   0.646   5.243  10.263 -2.3468  0.0994  0.0096
   27CHL1    O3 1927   0.566   5.393  10.369 -0.3047 -0.1668  0.1920
   27CHL1   H3' 1928   0.492   5.450  10.350  0.4425 -0.0019 -2.6520
   27CHL1    C4 1929   0.705   5.438  10.175  0.4176  0.7197 -0.1464
   27CHL1   H4A 1930   0.675   5.544  10.191  1.0665  1.0041 -0.7731
   27CHL1   H4B 1931   0.797   5.420  10.235 -1.1578 -2.0621  1.6920
   27CHL1    C5 1932   0.717   5.411  10.024  0.1356 -0.5035  0.2719
   27CHL1    C6 1933   0.834   5.385   9.964 -0.3675 -0.7138 -0.6005
   27CHL1    H6 1934   0.929   5.392  10.018  0.6604  0.4161 -2.4530
   27CHL1    C7 1935   0.854   5.385   9.820 -0.8149 -0.8069  0.2203
   27CHL1   H7A 1936   0.937   5.451   9.788 -1.4346 -0.0691  0.0999
   27CHL1   H7B 1937   0.880   5.281   9.789 -0.4449 -1.4177  2.4286
   27CHL1    C8 1938   0.736   5.436   9.737 -0.2704  0.6719 -0.1720
   27CHL1    H8 1939   0.733   5.547   9.737 -0.9943  0.6732 -1.4071
   27CHL1   C14 1940   0.754   5.395   9.583  0.5983 -0.0065 -0.3253
   27CHL1   H14 1941   0.772   5.286   9.591  0.3908  0.0363  1.1022
   27CHL1   C15 1942   0.885   5.438   9.514 -1.1033  0.1748  0.0063
   27CHL1  H15A 1943   0.920   5.543   9.524  2.5480 -0.9825  0.8456
   27CHL1  H15B 1944   0.963   5.367   9.546 -2.1812 -1.6701 -1.2457
   27CHL1   C16 1945   0.852   5.412   9.362  0.0555 -0.1813 -0.4379
   27CHL1  H16A 1946   0.874   5.510   9.314 -0.9272 -0.0758 -0.6959
   27CHL1  H16B 1947   0.915   5.332   9.318  1.1351 -0.1819  1.0332
   27CHL1   C17 1948   0.699   5.384   9.359  0.0219 -0.5718 -0.4429
   27CHL1   H17 1949   0.680   5.276   9.343  0.6377 -0.2916 -3.7250
   27CHL1   C13 1950   0.633   5.420   9.497 -0.4958 -0.8798  0.2399
   27CHL1   C18 1951   0.612   5.570   9.502 -1.2874 -0.2276  0.3460
   27CHL1  H18A 1952   0.705   5.615   9.461 -0.1938 -0.6030  2.2812
   27CHL1  H18B 1953   0.525   5.603   9.442 -0.5570  2.4855  0.6354
   27CHL1  H18C 1954   0.587   5.624   9.596 -1.8534  0.2744 -0.0880
   27CHL1   C12 1955   0.523   5.338   9.554  0.7564 -0.0412  0.2937
   27CHL1  H12A 1956   0.422   5.353   9.509  1.9952  1.3838 -2.2526
   27CHL1  H12B 1957   0.554   5.232   9.565  0.5446 -0.0722  0.6129
   27CHL1   C11 1958   0.482   5.384   9.704 -0.1849  0.4061  0.3536
   27CHL1  H11A 1959   0.460   5.492   9.699  1.4354  0.7282 -0.5847
   27CHL1  H11B 1960   0.392   5.336   9.749 -0.4629  1.1581  0.6123
   27CHL1    C9 1961   0.608   5.372   9.800  0.2925 -0.5004  0.9973
   27CHL1    H9 1962   0.640   5.266   9.796 -0.7863 -0.8104 -0.4844
   27CHL1   C10 1963   0.586   5.415   9.942 -0.2882  0.7796  0.1573
   27CHL1   C19 1964   0.524   5.555   9.949  0.5185 -0.7665 -0.0305
   27CHL1  H19A 1965   0.422   5.560   9.904 -0.2943 -1.4381  1.6402
   27CHL1  H19B 1966   0.506   5.586  10.054  0.8528 -1.3493  0.1991
   27CHL1  H19C 1967   0.594   5.626   9.901 -0.9307 -0.0110 -1.1266
   27CHL1    C1 1968   0.497   5.309  10.006 -0.4269  0.7526 -0.3723
   27CHL1   H1A 1969   0.398   5.309   9.957 -1.1546  0.1650  1.0253
   27CHL1   H1B 1970   0.545   5.212   9.981 -0.6748  1.2756 -3.2580
   27CHL1    C2 1971   0.467   5.322  10.160 -0.1052  0.6190 -0.1336
   27CHL1   H2A 1972   0.413   5.229  10.188  1.1026 -0.1905 -0.4268
   27CHL1   H2B 1973   0.412   5.417  10.179  1.1963  1.2954  0.3672
   27CHL1   C20 1974   0.634   5.450   9.235 -0.0009 -0.0464  0.0897
   27CHL1   H20 1975   0.641   5.559   9.254 -0.3762  0.3610 -1.8964
   27CHL1   C21 1976   0.486   5.410   9.224  0.1232 -0.4620  0.3237
   27CHL1  H21A 1977   0.430   5.440   9.315 -1.0467 -0.6199 -0.3300
   27CHL1  H21B 1978   0.468   5.304   9.197 -1.1396 -0.1603 -0.0692
   27CHL1  H21C 1979   0.431   5.458   9.141 -2.5554 -1.2959  1.4905
   27CHL1   C22 1980   0.706   5.414   9.102  0.8826 -0.3447 -0.2877
   27CHL1  H22A 1981   0.816   5.432   9.112  0.8922 -0.1962 -0.6232
   27CHL1  H22B 1982   0.706   5.304   9.084 -0.3453 -0.4177  0.1198
   27CHL1   C23 1983   0.661   5.499   8.977 -0.0798 -0.0849  0.6972
   27CHL1  H23A 1984   0.555   5.476   8.950  0.7444 -2.9070 -0.5118
   27CHL1  H23B 1985   0.662   5.603   9.015 -0.0368 -0.4452  1.7270
   27CHL1   C24 1986   0.754   5.478   8.855 -0.5051  0.3211 -0.7200
   27CHL1  H24A 1987   0.852   5.440   8.890 -0.9476 -0.6123 -0.4781
   27CHL1  H24B 1988   0.711   5.398   8.792 -0.5036 -0.9172  0.7762
   27CHL1   C25 1989   0.761   5.611   8.771 -0.4802  0.6543  0.2344
   27CHL1   H25 1990   0.771   5.697   8.840  0.6421  0.5353  0.2293
   27CHL1   C26 1991   0.886   5.596   8.680  0.0230 -0.4072 -0.0672
   27CHL1  H26A 1992   0.974   5.581   8.745  2.1063  1.3280 -2.3136
   27CHL1  H26B 1993   0.864   5.501   8.625  0.4073 -0.8570  0.5473
   27CHL1  H26C 1994   0.909   5.676   8.607  0.7639 -0.0426  0.5583
   27CHL1   C27 1995   0.643   5.628   8.681  0.2313  0.2977  0.1888
   27CHL1  H27A 1996   0.649   5.730   8.637 -0.1143  0.8281  1.3339
   27CHL1  H27B 1997   0.638   5.540   8.614  3.2246 -0.8594  1.3138
   27CHL1  H27C 1998   0.549   5.625   8.741  0.0043  1.2911 -0.1005
   28CHL1    C3 1999   6.743   4.731   9.949  0.2716  0.0655 -0.3387
   28CHL1    H3 2000   6.853   4.715   9.943  0.1107 -1.4316  0.2947
   28CHL1    O3 2001   6.688   4.719  10.080  0.1254  0.8725  0.6728
   28CHL1   H3' 2002   6.608   4.771  10.089 -0.6312 -0.4205  2.0669
   28CHL1    C4 2003   6.704   4.871   9.899 -0.4969 -0.5010  0.3051
   28CHL1   H4A 2004   6.594   4.878   9.908 -0.4092  2.6101  0.0840
   28CHL1   H4B 2005   6.741   4.942   9.977 -0.9700  0.8221 -0.6504
   28CHL1    C5 2006   6.752   4.895   9.758 -0.3496 -0.3285 -0.1118
   28CHL1    C6 2007   6.840   4.999   9.736 -0.3364  0.6131 -0.6473
   28CHL1    H6 2008   6.862   5.064   9.823  0.7106  0.4133 -0.7478
   28CHL1    C7 2009   6.895   5.022   9.598 -0.1006  0.8491 -0.3655
   28CHL1   H7A 2010   6.879   5.130   9.577  1.6051  1.1596 -0.2213
   28CHL1   H7B 2011   7.005   5.007   9.585 -0.7285 -3.0218 -2.8810
   28CHL1    C8 2012   6.827   4.940   9.490  0.0809 -0.2903  0.1801
   28CHL1    H8 2013   6.733   4.996   9.469 -0.9855 -1.1649  2.3092
   28CHL1   C14 2014   6.912   4.947   9.363 -0.2849  0.4926 -0.1473
   28CHL1   H14 2015   6.999   4.880   9.378  1.0422  1.9223 -1.1929
   28CHL1   C15 2016   6.980   5.078   9.335  0.1922 -0.0729 -0.2036
   28CHL1  H15A 2017   6.923   5.172   9.348 -0.8072 -0.6198 -0.4946
   28CHL1  H15B 2018   7.068   5.101   9.399  1.1059 -3.2400 -0.1220
   28CHL1   C16 2019   7.027   5.063   9.187 -0.1485 -0.5255  0.1528
   28CHL1  H16A 2020   6.988   5.147   9.125 -0.0474  0.9057  1.9351
   28CHL1  H16B 2021   7.136   5.053   9.173 -0.1035  0.5160 -0.3722
   28CHL1   C17 2022   6.971   4.921   9.138 -0.9110  0.0456  0.0279
   28CHL1   H17 2023   7.058   4.854   9.155 -0.8375 -0.1928 -1.1659
   28CHL1   C13 2024   6.860   4.887   9.234 -0.5071  0.7267  0.3858
   28CHL1   C18 2025   6.733   4.969   9.191  0.4012  0.5589 -0.6360
   28CHL1  H18A 2026   6.701   4.938   9.090  2.0944 -1.1828 -0.6769
   28CHL1  H18B 2027   6.650   4.963   9.265  1.8406 -0.0714  0.9734
   28CHL1  H18C 2028   6.776   5.072   9.192  1.0528  0.2876  0.0999
   28CHL1   C12 2029   6.823   4.746   9.265 -0.5738  0.4988 -0.0076
   28CHL1  H12A 2030   6.763   4.692   9.189 -1.0239  1.0549 -0.0548
   28CHL1  H12B 2031   6.912   4.682   9.280  0.2454  1.2354 -1.5401
   28CHL1   C11 2032   6.733   4.732   9.395 -0.1926 -1.4495 -0.2431
   28CHL1  H11A 2033   6.637   4.775   9.360  1.0705  2.3749  0.5700
   28CHL1  H11B 2034   6.735   4.622   9.413  0.1397 -1.4716 -0.4080
   28CHL1    C9 2035   6.796   4.794   9.527 -0.2012 -0.4519 -0.3890
   28CHL1    H9 2036   6.890   4.742   9.554  0.4918  1.1632  0.4571
   28CHL1   C10 2037   6.707   4.787   9.656 -0.9242  0.1023 -0.5401
   28CHL1   C19 2038   6.557   4.806   9.608 -0.6075 -0.3240  0.3485
   28CHL1  H19A 2039   6.552   4.909   9.566  2.6063  0.4936  1.6740
   28CHL1  H19B 2040   6.523   4.729   9.536  3.5683 -1.6504 -0.4632
   28CHL1  H19C 2041   6.492   4.809   9.697  1.2426  2.3243  1.7450
   28CHL1    C1 2042   6.725   4.643   9.715  0.7498  0.3065  0.5827
   28CHL1   H1A 2043   6.685   4.563   9.649  1.6970  0.0590  0.2817
   28CHL1   H1B 2044   6.835   4.624   9.722  0.5103 -1.5503 -0.1295
   28CHL1    C2 2045   6.674   4.629   9.855  0.3795 -0.6218  0.4469
   28CHL1   H2A 2046   6.698   4.525   9.885  0.8380 -0.2306  1.5046
   28CHL1   H2B 2047   6.565   4.646   9.866  0.1667 -1.6031 -0.0420
   28CHL1   C20 2048   6.953   4.916   8.985 -0.3761  0.3715  0.3639
   28CHL1   H20 2049   6.869   4.984   8.961  1.2531  2.2547 -0.1892
   28CHL1   C21 2050   6.911   4.776   8.945  0.0176  0.2083  0.1069
   28CHL1  H21A 2051   6.817   4.737   8.990  1.4356 -0.2695  2.8148
   28CHL1  H21B 2052   6.978   4.700   8.989 -0.4830  0.0562  0.6149
   28CHL1  H21C 2053   6.907   4.768   8.834  2.5277  0.9720 -0.0946
   28CHL1   C22 2054   7.077   4.971   8.905  0.7654 -0.2784 -0.2524
   28CHL1  H22A 2055   7.102   5.069   8.952  1.2052  0.2392 -1.5332
   28CHL1  H22B 2056   7.167   4.906   8.900  1.0776  0.2212 -4.1807
   28CHL1   C23 2057   7.048   4.999   8.755 -0.3861 -0.5560  0.3902
   28CHL1  H23A 2058   7.039   4.902   8.702 -2.6613  0.7594 -1.8416
   28CHL1  H23B 2059   6.955   5.058   8.743  0.6029  0.8995 -0.3448
   28CHL1   C24 2060   7.168   5.075   8.693 -0.7904  0.2229  0.8031
   28CHL1  H24A 2061   7.166   5.177   8.737 -2.3582 -0.2721  1.9473
   28CHL1  H24B 2062   7.269   5.036   8.718 -0.2451  0.2737 -1.1382
   28CHL1   C25 2063   7.154   5.083   8.540  0.0023 -0.2628  0.1014
   28CHL1   H25 2064   7.048   5.111   8.518 -0.1812 -0.8117  0.2787
   28CHL1   C26 2065   7.237   5.208   8.498  0.1055  0.0770 -0.1213
   28CHL1  H26A 2066   7.202   5.297   8.554  1.6168  1.9150 -1.9470
   28CHL1  H26B 2067   7.347   5.196   8.511  0.6212  0.2477 -3.4518
   28CHL1  H26C 2068   7.214   5.230   8.391 -1.3741 -0.3268  0.0902
   28CHL1   C27 2069   7.188   4.956   8.467  0.3668  0.4491  0.8864
   28CHL1  H27A 2070   7.151   4.955   8.362 -2.2317  0.5538  1.7299
   28CHL1  H27B 2071   7.295   4.927   8.466  0.4403  0.4141  3.2006
   28CHL1  H27C 2072   7.129   4.873   8.514  2.2855 -3.2938 -2.6384
   29CHL1    C3 2073   0.547   3.058   6.601 -0.5766 -0.3642  0.0342
   29CHL1    H3 2074   0.449   3.033   6.646  0.6263  1.3761  4.0522
   29CHL1    O3 2075   0.532   3.055   6.461 -0.4483  0.3048  0.2602
   29CHL1   H3' 2076   0.443   3.088   6.449  0.1209  1.6596 -0.6166
   29CHL1    C4 2077   0.575   3.204   6.646  0.5859 -0.4702  0.6135
   29CHL1   H4A 2078   0.663   3.236   6.586  0.1048  1.3817  0.8303
   29CHL1   H4B 2079   0.490   3.263   6.606  1.6475  0.9308  0.3374
   29CHL1    C5 2080   0.603   3.223   6.792 -1.2216  0.4492  0.0787
   29CHL1    C6 2081   0.534   3.309   6.866  0.0497 -0.8615  0.0685
   29CHL1    H6 2082   0.456   3.377   6.827 -0.6563 -1.5817  0.2227
   29CHL1    C7 2083   0.559   3.341   7.008  0.0706  0.0176 -0.1561
   29CHL1   H7A 2084   0.555   3.450   7.029 -1.3912 -0.1170  0.3508
   29CHL1   H7B 2085   0.477   3.292   7.065  0.9126  0.5493  1.5858
   29CHL1    C8 2086   0.687   3.267   7.062 -0.3899 -0.4767 -0.4041
   29CHL1    H8 2087   0.774   3.333   7.046  0.5773 -1.0085  2.2085
   29CHL1   C14 2088   0.666   3.252   7.210  0.1794 -0.6331 -1.1570
   29CHL1   H14 2089   0.582   3.180   7.220 -0.1186 -0.2207 -0.5694
   29CHL1   C15 2090   0.616   3.371   7.290  0.3810 -0.3273 -0.4802
   29CHL1  H15A 2091   0.671   3.464   7.264  0.0621 -0.7634 -2.9529
   29CHL1  H15B 2092   0.511   3.406   7.286  0.6235  1.6039  4.0823
   29CHL1   C16 2093   0.658   3.336   7.438 -0.6345  0.1380 -0.0413
   29CHL1  H16A 2094   0.725   3.422   7.459 -0.7234  0.4691 -1.0371
   29CHL1  H16B 2095   0.585   3.341   7.521  0.9044 -1.7252  1.5414
   29CHL1   C17 2096   0.726   3.198   7.432 -0.0517 -0.5873 -0.3977
   29CHL1   H17 2097   0.639   3.129   7.435 -0.7920  0.3425  0.4024
   29CHL1   C13 2098   0.779   3.189   7.289 -0.2466 -0.3740  0.1669
   29CHL1   C18 2099   0.913   3.271   7.282  0.3028 -0.5807 -0.4427
   29CHL1  H18A 2100   1.002   3.218   7.323  0.1322  0.5712  1.5518
   29CHL1  H18B 2101   0.941   3.278   7.175  1.6490 -0.7152 -0.1167
   29CHL1  H18C 2102   0.905   3.375   7.320  1.9766 -1.1832  1.7884
   29CHL1   C12 2103   0.804   3.044   7.235  0.2975  0.2159 -0.5061
   29CHL1  H12A 2104   0.887   2.984   7.279 -1.8680 -2.9350 -0.3239
   29CHL1  H12B 2105   0.720   2.979   7.267  1.4611 -1.3071 -0.3822
   29CHL1   C11 2106   0.820   3.039   7.081 -0.2467 -0.6811 -0.1269
   29CHL1  H11A 2107   0.920   3.075   7.048 -0.5506 -0.0425 -0.3813
   29CHL1  H11B 2108   0.806   2.933   7.052  1.1797 -0.3322 -2.3101
   29CHL1    C9 2109   0.710   3.124   7.005 -0.1073 -0.1829 -0.4434
   29CHL1    H9 2110   0.618   3.069   7.035  0.2859 -0.6102  0.0141
   29CHL1   C10 2111   0.712   3.123   6.847 -0.2804  0.3725  0.0505
   29CHL1   C19 2112   0.856   3.156   6.806 -0.1032 -0.0057 -0.4315
   29CHL1  H19A 2113   0.860   3.144   6.695 -2.0265 -3.5281 -0.2591
   29CHL1  H19B 2114   0.874   3.263   6.826  0.9507  0.6942 -4.3035
   29CHL1  H19C 2115   0.929   3.084   6.848 -1.1919 -0.0234  1.5372
   29CHL1    C1 2116   0.677   2.982   6.798 -1.0610 -0.2124  0.0538
   29CHL1   H1A 2117   0.749   2.904   6.831 -0.6278  0.7852  1.5217
   29CHL1   H1B 2118   0.590   2.946   6.856  1.0123 -0.6311  3.1122
   29CHL1    C2 2119   0.658   2.965   6.644 -0.1496  0.3687  0.3392
   29CHL1   H2A 2120   0.642   2.857   6.622  1.8212 -0.2666  1.6800
   29CHL1   H2B 2121   0.749   2.995   6.587  1.9610 -2.1733  2.0959
   29CHL1   C20 2122   0.827   3.178   7.550 -0.5658 -0.2135  0.5175
   29CHL1   H20 2123   0.917   3.240   7.529 -1.5373  0.8150 -0.8428
   29CHL1   C21 2124   0.855   3.031   7.564 -0.7626  0.4558 -0.3115
   29CHL1  H21A 2125   0.887   2.980   7.470 -2.1961 -3.2978  1.0545
   29CHL1  H21B 2126   0.753   2.996   7.589  0.0378 -1.4733  0.5009
   29CHL1  H21C 2127   0.932   3.013   7.642 -0.5200  0.6731 -0.4968
   29CHL1   C22 2128   0.783   3.238   7.687 -0.1832 -0.0532 -0.0114
   29CHL1  H22A 2129   0.774   3.348   7.689  3.6539  0.3854  0.4667
   29CHL1  H22B 2130   0.685   3.195   7.719 -1.0390  1.3874 -0.6089
   29CHL1   C23 2131   0.880   3.210   7.805 -0.0163  0.0577  0.5674
   29CHL1  H23A 2132   0.878   3.101   7.822  0.3667  0.3556  2.8119
   29CHL1  H23B 2133   0.980   3.253   7.781 -0.1082  0.1388  0.3217
   29CHL1   C24 2134   0.827   3.280   7.931 -0.1424 -0.6624  0.5235
   29CHL1  H24A 2135   0.825   3.391   7.931 -0.9879 -0.6682 -0.0988
   29CHL1  H24B 2136   0.720   3.250   7.937  0.5880 -3.5246  1.1273
   29CHL1   C25 2137   0.890   3.245   8.066 -0.7162 -0.1237 -0.0807
   29CHL1   H25 2138   0.832   3.298   8.145  0.4454  0.8458  0.1579
   29CHL1   C26 2139   0.881   3.088   8.102  0.4937  0.0297 -0.0214
   29CHL1  H26A 2140   0.776   3.054   8.096  0.2999  0.8239 -1.4499
   29CHL1  H26B 2141   0.946   3.039   8.026 -2.2303  0.3658 -2.7597
   29CHL1  H26C 2142   0.923   3.066   8.203  0.2904  0.9735  0.2792
   29CHL1   C27 2143   1.038   3.297   8.078 -0.1138 -0.4789 -0.0947
   29CHL1  H27A 2144   1.048   3.375   8.000  1.9599 -0.4627  0.1382
   29CHL1  H27B 2145   1.066   3.348   8.173  1.7999 -0.4522 -0.6356
   29CHL1  H27C 2146   1.111   3.214   8.072 -0.6104 -0.9179 -0.1153
   30CHL1    C3 2147   5.858   0.338   7.378 -0.0584  0.1137  0.0070
   30CHL1    H3 2148   5.800   0.245   7.393  0.8289 -0.5376 -0.4950
   30CHL1    O3 2149   5.911   0.328   7.252 -0.0342 -0.1544  0.2119
   30CHL1   H3' 2150   6.005   0.348   7.254  0.4984 -2.3902  2.4164
   30CHL1    C4 2151   5.775   0.463   7.390 -0.1176  0.3264  0.0838
   30CHL1   H4A 2152   5.841   0.549   7.361  1.7039 -0.7886  0.7541
   30CHL1   H4B 2153   5.697   0.440   7.314 -0.9695  0.1699  0.9983
   30CHL1    C5 2154   5.719   0.483   7.528  0.2712 -0.6182 -0.0921
   30CHL1    C6 2155   5.591   0.493   7.543  0.3814  0.0465 -0.5927
   30CHL1    H6 2156   5.526   0.477   7.455 -2.6701  0.7391  1.3703
   30CHL1    C7 2157   5.519   0.486   7.677  0.3588 -0.3597 -0.4199
   30CHL1   H7A 2158   5.424   0.542   7.693 -1.1919 -3.0785  0.5952
   30CHL1   H7B 2159   5.482   0.382   7.685 -1.7429  0.3223 -0.7611
   30CHL1    C8 2160   5.610   0.520   7.795 -0.6395 -0.2316  0.0208
   30CHL1    H8 2161   5.628   0.629   7.782  0.6804 -0.2187  1.6638
   30CHL1   C14 2162   5.539   0.494   7.927 -0.6518 -0.1108 -0.3858
   30CHL1   H14 2163   5.540   0.383   7.934  2.6411 -0.0533  2.0694
   30CHL1   C15 2164   5.392   0.544   7.942 -0.3483  0.2405  0.2463
   30CHL1  H15A 2165   5.372   0.642   7.893 -0.0693  0.2777  0.2028
   30CHL1  H15B 2166   5.323   0.470   7.896  0.8764 -0.2785 -0.8162
   30CHL1   C16 2167   5.371   0.545   8.087  0.7472  0.1484 -0.5881
   30CHL1  H16A 2168   5.332   0.644   8.120  1.5986  0.5430 -0.7494
   30CHL1  H16B 2169   5.301   0.466   8.121  1.7029 -0.0067  1.0865
   30CHL1   C17 2170   5.505   0.514   8.154  0.2573 -0.4826 -0.6057
   30CHL1   H17 2171   5.506   0.405   8.175 -2.0962 -0.7035 -1.3378
   30CHL1   C13 2172   5.612   0.541   8.046  0.6946 -0.2855  0.7230
   30CHL1   C18 2173   5.633   0.690   8.042  0.4681 -0.0199 -0.4205
   30CHL1  H18A 2174   5.714   0.716   7.971  1.6314  0.5088  1.0352
   30CHL1  H18B 2175   5.543   0.748   8.015  1.5933  2.4397  0.7660
   30CHL1  H18C 2176   5.666   0.727   8.142  1.0086 -2.2029  0.2725
   30CHL1   C12 2177   5.747   0.461   8.050  0.0920  0.5656  0.0699
   30CHL1  H12A 2178   5.812   0.478   8.138 -1.2110  0.8500  1.0130
   30CHL1  H12B 2179   5.721   0.353   8.051  0.4195  0.4267 -1.7510
   30CHL1   C11 2180   5.831   0.482   7.921  0.1408 -0.2881 -0.1359
   30CHL1  H11A 2181   5.869   0.586   7.909  0.7382 -0.7722 -3.5754
   30CHL1  H11B 2182   5.923   0.420   7.923  3.3610  4.0745  0.6355
   30CHL1    C9 2183   5.746   0.454   7.787 -0.0898 -0.1923 -0.2101
   30CHL1    H9 2184   5.713   0.349   7.797 -2.3061  0.4060 -0.6539
   30CHL1   C10 2185   5.820   0.472   7.642 -0.6859  0.5367  0.0305
   30CHL1   C19 2186   5.906   0.605   7.638  0.6982  0.3908  1.5022
   30CHL1  H19A 2187   5.981   0.607   7.720  1.4801 -0.2678  0.8242
   30CHL1  H19B 2188   5.944   0.628   7.536 -0.3664  1.4919  1.3360
   30CHL1  H19C 2189   5.840   0.691   7.663  1.5381  1.2580  0.7919
   30CHL1    C1 2190   5.910   0.350   7.622 -0.3565 -0.2818 -0.4609
   30CHL1   H1A 2191   5.986   0.346   7.703 -0.0299 -0.9492 -0.7897
   30CHL1   H1B 2192   5.842   0.263   7.639  0.5660 -1.0265 -0.4734
   30CHL1    C2 2193   5.969   0.342   7.481 -0.4609  0.2540 -0.1226
   30CHL1   H2A 2194   6.039   0.257   7.464 -2.0492 -0.5633 -3.5218
   30CHL1   H2B 2195   6.035   0.430   7.468  0.1544 -0.2504 -0.4437
   30CHL1   C20 2196   5.525   0.584   8.292  0.0048 -0.2426  0.4236
   30CHL1   H20 2197   5.527   0.694   8.280  2.8201 -0.5746 -4.6272
   30CHL1   C21 2198   5.650   0.556   8.373  0.5243  0.6181 -0.3267
   30CHL1  H21A 2199   5.648   0.608   8.471  0.7048  0.6034 -0.3154
   30CHL1  H21B 2200   5.742   0.587   8.320 -0.4225  1.3968 -1.5670
   30CHL1  H21C 2201   5.650   0.446   8.389  2.1833  0.5850 -0.4521
   30CHL1   C22 2202   5.404   0.559   8.390 -0.6519  0.0610 -0.3755
   30CHL1  H22A 2203   5.310   0.590   8.338 -1.8633 -0.8482  1.1884
   30CHL1  H22B 2204   5.392   0.453   8.420 -0.1688 -0.0748 -0.6534
   30CHL1   C23 2205   5.415   0.645   8.515  0.8462 -0.6809 -0.2185
   30CHL1  H23A 2206   5.469   0.596   8.598 -1.3940  1.6246  2.8119
   30CHL1  H23B 2207   5.477   0.732   8.486 -1.2706  1.2670  0.7363
   30CHL1   C24 2208   5.283   0.687   8.573 -0.0987 -0.3284 -0.5796
   30CHL1  H24A 2209   5.221   0.748   8.504  1.1839 -0.9947 -2.3739
   30CHL1  H24B 2210   5.213   0.601   8.575 -0.2442 -0.2641 -1.9032
   30CHL1   C25 2211   5.276   0.757   8.710 -0.2731  0.0352 -0.0759
   30CHL1   H25 2212   5.176   0.806   8.716  0.0003  0.6824 -0.7356
   30CHL1   C26 2213   5.286   0.664   8.832 -0.7242 -0.6267  0.3869
   30CHL1  H26A 2214   5.257   0.719   8.925 -1.8961 -1.4075  0.5085
   30CHL1  H26B 2215   5.215   0.579   8.834 -2.3614  0.5479 -2.4327
   30CHL1  H26C 2216   5.385   0.614   8.829 -0.3668 -0.0812  1.9986
   30CHL1   C27 2217   5.379   0.868   8.725 -0.2051 -0.8613 -0.5383
   30CHL1  H27A 2218   5.374   0.950   8.651  0.7955 -0.7774 -0.5209
   30CHL1  H27B 2219   5.365   0.919   8.823 -0.4965  1.9184 -1.9436
   30CHL1  H27C 2220   5.482   0.830   8.741  1.2186  2.7560 -0.3258
   31CHL1    C3 2221   4.965   2.659   6.728 -0.2206  0.3512 -0.7300
   31CHL1    H3 2222   5.016   2.563   6.754  1.4560  2.0464  2.9462
   31CHL1    O3 2223   4.932   2.678   6.592  0.7158 -0.4866  0.1256
   31CHL1   H3' 2224   4.886   2.761   6.583 -0.0170 -0.9694 -0.6843
   31CHL1    C4 2225   4.836   2.662   6.808  0.5158 -0.3750 -0.3991
   31CHL1   H4A 2226   4.779   2.757   6.794  1.7972  0.8567  2.1224
   31CHL1   H4B 2227   4.776   2.580   6.762 -1.5524  0.5702  0.4653
   31CHL1    C5 2228   4.865   2.655   6.959 -0.5272 -0.7395 -0.0003
   31CHL1    C6 2229   4.813   2.558   7.038 -0.7452 -0.1225  1.1229
   31CHL1    H6 2230   4.751   2.481   6.990  0.6459 -1.5683  1.5609
   31CHL1    C7 2231   4.834   2.560   7.185 -0.9822 -0.2942 -0.6410
   31CHL1   H7A 2232   4.734   2.568   7.232 -0.8185  0.5173 -0.4251
   31CHL1   H7B 2233   4.873   2.460   7.216 -1.7209 -0.2767  0.3794
   31CHL1    C8 2234   4.915   2.675   7.249 -0.2801  0.1715 -0.0755
   31CHL1    H8 2235   4.846   2.761   7.259  0.2092  0.5691 -0.0691
   31CHL1   C14 2236   4.978   2.637   7.384  0.5009 -0.0381  0.8702
   31CHL1   H14 2237   5.054   2.561   7.352 -1.1738  0.0138 -4.1553
   31CHL1   C15 2238   4.890   2.575   7.489 -0.2254 -0.1726 -0.1512
   31CHL1  H15A 2239   4.806   2.647   7.503  0.4151  0.3499  1.1082
   31CHL1  H15B 2240   4.859   2.470   7.468  1.3815 -0.8818  0.8614
   31CHL1   C16 2241   4.979   2.574   7.623  0.1766 -1.0204 -0.1744
   31CHL1  H16A 2242   4.925   2.610   7.713  2.3529 -1.1525  1.2535
   31CHL1  H16B 2243   5.017   2.471   7.639  0.3445 -0.8057  0.9390
   31CHL1   C17 2244   5.090   2.678   7.593 -0.1970  1.1510 -0.1017
   31CHL1   H17 2245   5.183   2.625   7.564 -1.2972 -0.1597 -1.3092
   31CHL1   C13 2246   5.057   2.743   7.462  0.5398 -0.2426  0.3337
   31CHL1   C18 2247   4.973   2.865   7.487 -0.2987  0.9872 -0.3550
   31CHL1  H18A 2248   4.950   2.918   7.392 -3.1590 -0.7593 -0.7428
   31CHL1  H18B 2249   4.875   2.835   7.528  0.1017  2.7969  2.1566
   31CHL1  H18C 2250   5.024   2.935   7.557  2.7472 -0.9941 -0.3948
   31CHL1   C12 2251   5.174   2.773   7.368 -0.6974  0.2657 -0.6282
   31CHL1  H12A 2252   5.239   2.854   7.405 -1.7725  1.2928 -0.9214
   31CHL1  H12B 2253   5.243   2.687   7.351 -1.6526 -0.3085 -1.7796
   31CHL1   C11 2254   5.128   2.817   7.221  0.0807 -0.0071 -0.5229
   31CHL1  H11A 2255   5.077   2.916   7.228  0.2767  0.1505 -1.2332
   31CHL1  H11B 2256   5.224   2.829   7.166  0.6804  2.5575  0.9346
   31CHL1    C9 2257   5.024   2.722   7.152  0.8614 -0.0417  0.2755
   31CHL1    H9 2258   5.079   2.627   7.138 -1.4364 -1.7560  2.0014
   31CHL1   C10 2259   4.972   2.759   7.008 -0.2510 -0.3674 -0.0230
   31CHL1   C19 2260   4.916   2.901   7.021 -0.4826  0.2062  0.3470
   31CHL1  H19A 2261   4.872   2.931   6.923 -1.1797  0.0561  0.6082
   31CHL1  H19B 2262   4.828   2.905   7.088  0.2872 -0.4079  1.4212
   31CHL1  H19C 2263   4.995   2.977   7.041  0.7042  0.2209 -3.6129
   31CHL1    C1 2264   5.092   2.748   6.907  0.2550 -0.7683 -0.3675
   31CHL1   H1A 2265   5.175   2.817   6.934 -1.8378  1.1681  1.4914
   31CHL1   H1B 2266   5.141   2.648   6.908  1.7311 -0.0631 -0.2790
   31CHL1    C2 2267   5.050   2.777   6.768  0.0933  0.5070  0.3723
   31CHL1   H2A 2268   5.129   2.803   6.695 -0.1300  1.0711  0.3203
   31CHL1   H2B 2269   4.984   2.866   6.757  1.1312  1.3340  0.5906
   31CHL1   C20 2270   5.132   2.765   7.716  0.1045 -0.3930  0.0331
   31CHL1   H20 2271   5.043   2.827   7.739 -0.3206 -1.1919  0.5531
   31CHL1   C21 2272   5.252   2.854   7.682  0.5849  0.0322  0.1737
   31CHL1  H21A 2273   5.311   2.903   7.763  3.8980  1.3227 -2.7359
   31CHL1  H21B 2274   5.205   2.929   7.614 -1.4974 -0.8778  0.5467
   31CHL1  H21C 2275   5.317   2.786   7.623  3.1327 -0.5334  3.3328
   31CHL1   C22 2276   5.157   2.672   7.836  0.1300 -1.1833 -0.3877
   31CHL1  H22A 2277   5.054   2.654   7.875 -0.0994 -0.5820 -0.7076
   31CHL1  H22B 2278   5.208   2.583   7.794 -0.2679 -0.7083 -1.9449
   31CHL1   C23 2279   5.219   2.746   7.954  0.2448 -0.6814  0.3387
   31CHL1  H23A 2280   5.325   2.763   7.928 -0.4259  2.2803 -0.9626
   31CHL1  H23B 2281   5.165   2.843   7.964 -1.1063 -1.1818 -1.4475
   31CHL1   C24 2282   5.190   2.677   8.087  0.2659  0.3088 -0.1099
   31CHL1  H24A 2283   5.081   2.688   8.107  0.8261  2.3029  2.4358
   31CHL1  H24B 2284   5.214   2.571   8.065  1.8432  0.9267 -1.5251
   31CHL1   C25 2285   5.274   2.723   8.211  0.0996  0.5761  0.0259
   31CHL1   H25 2286   5.231   2.823   8.236 -0.0643  0.4241  0.3609
   31CHL1   C26 2287   5.265   2.638   8.338 -0.7962  0.1042  0.0932
   31CHL1  H26A 2288   5.156   2.627   8.357 -1.2346  1.2325 -1.5392
   31CHL1  H26B 2289   5.304   2.536   8.323 -0.0806  0.7181 -2.8481
   31CHL1  H26C 2290   5.318   2.686   8.423 -0.5142 -1.0657  0.5825
   31CHL1   C27 2291   5.419   2.754   8.192 -0.3277 -0.9834 -0.1149
   31CHL1  H27A 2292   5.455   2.749   8.087  3.1693  2.1334  0.7452
   31CHL1  H27B 2293   5.476   2.676   8.248 -1.1289 -1.8871 -0.5135
   31CHL1  H27C 2294   5.436   2.856   8.232 -1.0311 -1.7074  2.1634
   32CHL1    C3 2295   5.408   0.683   6.944  0.9171  0.2212 -0.2082
   32CHL1    H3 2296   5.300   0.677   6.920  0.5922 -0.4851  1.3017
   32CHL1    O3 2297   5.486   0.637   6.838  0.1968  0.3814  0.5049
   32CHL1   H3' 2298   5.571   0.611   6.875  0.3619  0.4616  0.1885
   32CHL1    C4 2299   5.449   0.825   6.975  0.2234  0.1736  0.7492
   32CHL1   H4A 2300   5.557   0.848   6.966 -0.2614  2.4925  0.0435
   32CHL1   H4B 2301   5.407   0.884   6.890  1.1068 -1.1259 -0.6275
   32CHL1    C5 2302   5.397   0.887   7.099  0.5309  0.7992  0.3897
   32CHL1    C6 2303   5.316   0.997   7.095 -0.4911 -0.0402  0.1087
   32CHL1    H6 2304   5.297   1.047   6.999 -0.1344 -0.3046 -0.1062
   32CHL1    C7 2305   5.264   1.060   7.224 -0.0019  0.0149 -0.9682
   32CHL1   H7A 2306   5.272   1.168   7.198  0.0114  0.1179 -0.5359
   32CHL1   H7B 2307   5.156   1.043   7.239 -0.0166  0.9855  0.1929
   32CHL1    C8 2308   5.337   1.002   7.352  0.4476  0.5167 -0.6142
   32CHL1    H8 2309   5.443   1.035   7.351  0.5414  0.2897  0.5477
   32CHL1   C14 2310   5.268   1.048   7.474 -0.4361 -0.8751 -0.9078
   32CHL1   H14 2311   5.166   1.004   7.488 -0.5817 -0.3565 -0.2508
   32CHL1   C15 2312   5.249   1.205   7.497  0.2345  1.1948  0.5662
   32CHL1  H15A 2313   5.339   1.262   7.467  0.7821 -0.0583 -0.2518
   32CHL1  H15B 2314   5.163   1.251   7.445  1.7665  2.7023 -0.7067
   32CHL1   C16 2315   5.254   1.225   7.652 -0.7580  0.1053 -0.1613
   32CHL1  H16A 2316   5.357   1.264   7.664  0.1716 -0.2889 -4.8744
   32CHL1  H16B 2317   5.176   1.290   7.698 -2.8649 -3.1507  1.2629
   32CHL1   C17 2318   5.249   1.080   7.707  0.1661 -0.1457 -0.0473
   32CHL1   H17 2319   5.140   1.055   7.710  0.4416 -1.3198  1.6827
   32CHL1   C13 2320   5.331   0.993   7.608 -0.7553 -0.2115  0.4458
   32CHL1   C18 2321   5.484   1.021   7.624 -0.2209 -0.2059 -0.4211
   32CHL1  H18A 2322   5.505   1.129   7.633  1.5995 -0.5977  0.5209
   32CHL1  H18B 2323   5.513   0.981   7.724 -1.5257 -0.2575 -0.0399
   32CHL1  H18C 2324   5.542   0.973   7.542  0.9113  1.9819 -0.9733
   32CHL1   C12 2325   5.317   0.842   7.608  0.1055 -1.0256  0.8761
   32CHL1  H12A 2326   5.353   0.796   7.702 -0.0002 -1.5866  0.6468
   32CHL1  H12B 2327   5.210   0.818   7.597  0.0534  0.2013 -2.6958
   32CHL1   C11 2328   5.375   0.780   7.483 -0.1781 -0.7439  1.1154
   32CHL1  H11A 2329   5.486   0.780   7.492 -0.1393 -0.6890  0.6595
   32CHL1  H11B 2330   5.337   0.676   7.471 -1.3001 -0.1963 -0.3152
   32CHL1    C9 2331   5.345   0.849   7.350  0.3900  0.0827  1.0460
   32CHL1    H9 2332   5.244   0.808   7.330 -0.2234  0.9491  2.2282
   32CHL1   C10 2333   5.421   0.801   7.222 -0.2781  0.1612 -0.1005
   32CHL1   C19 2334   5.579   0.810   7.252  0.1790 -0.1622  0.4406
   32CHL1  H19A 2335   5.616   0.739   7.330  4.1595  1.2360  0.0559
   32CHL1  H19B 2336   5.640   0.780   7.164 -1.4042  0.1891 -0.8290
   32CHL1  H19C 2337   5.610   0.914   7.274  2.1714 -0.0025 -2.5431
   32CHL1    C1 2338   5.381   0.648   7.195 -0.8366  0.0079 -0.5725
   32CHL1   H1A 2339   5.412   0.591   7.285 -3.6399 -0.1248  0.4091
   32CHL1   H1B 2340   5.270   0.644   7.194 -0.8957  1.1719 -0.6649
   32CHL1    C2 2341   5.438   0.595   7.061 -0.3446  0.5979  0.2347
   32CHL1   H2A 2342   5.408   0.491   7.035 -0.9512  0.9974 -0.7502
   32CHL1   H2B 2343   5.545   0.591   7.089 -0.5907  0.5096  1.2058
   32CHL1   C20 2344   5.286   1.085   7.859 -0.1765  0.5350 -0.1797
   32CHL1   H20 2345   5.390   1.052   7.879 -0.7699  0.6075  3.7049
   32CHL1   C21 2346   5.201   0.974   7.925  0.2937 -0.4630  0.2450
   32CHL1  H21A 2347   5.093   0.984   7.904  0.6329  2.0727 -0.5711
   32CHL1  H21B 2348   5.208   0.985   8.036  0.0660 -1.3316  0.3547
   32CHL1  H21C 2349   5.240   0.874   7.894 -0.2048 -0.6516  0.2147
   32CHL1   C22 2350   5.259   1.220   7.934 -0.0530 -0.8978 -0.1080
   32CHL1  H22A 2351   5.315   1.303   7.886 -1.2611  0.0766  0.1111
   32CHL1  H22B 2352   5.150   1.242   7.940  0.0752 -0.7045  2.3736
   32CHL1   C23 2353   5.310   1.235   8.076  0.6615 -0.1371 -0.0650
   32CHL1  H23A 2354   5.272   1.153   8.140  2.3144 -1.7813 -1.0899
   32CHL1  H23B 2355   5.419   1.212   8.083  0.5135 -0.7711  0.2209
   32CHL1   C24 2356   5.281   1.368   8.146  0.4371 -0.4105 -0.4705
   32CHL1  H24A 2357   5.310   1.454   8.081  0.5343 -0.8711 -1.0486
   32CHL1  H24B 2358   5.173   1.388   8.167  0.4400 -0.1649 -0.6803
   32CHL1   C25 2359   5.354   1.376   8.282  0.0928 -0.4913 -0.2131
   32CHL1   H25 2360   5.458   1.342   8.266  0.2351 -0.3432  0.3805
   32CHL1   C26 2361   5.352   1.529   8.317 -0.4886 -0.1785  0.0434
   32CHL1  H26A 2362   5.403   1.586   8.237 -1.1097 -0.3097 -0.4526
   32CHL1  H26B 2363   5.252   1.572   8.340 -0.4018 -0.4986  1.0861
   32CHL1  H26C 2364   5.412   1.540   8.410  1.1847 -2.8867 -0.6122
   32CHL1   C27 2365   5.292   1.289   8.396 -0.2323 -0.8173 -0.5241
   32CHL1  H27A 2366   5.350   1.306   8.489 -0.3488  0.3807 -0.6580
   32CHL1  H27B 2367   5.192   1.338   8.408  0.7839  1.5982 -1.3391
   32CHL1  H27C 2368   5.285   1.184   8.359 -2.4365 -0.4204 -1.4469
   33CHL1    C3 2369   1.106   1.196   6.794 -0.4046  0.5134 -0.5180
   33CHL1    H3 2370   1.206   1.242   6.783 -1.5273  2.6589 -2.9639
   33CHL1    O3 2371   1.052   1.183   6.663 -1.2085 -0.2793  0.0327
   33CHL1   H3' 2372   1.003   1.263   6.641 -0.3237 -0.3945 -2.8425
   33CHL1    C4 2373   1.118   1.059   6.861 -0.0183 -0.3696 -1.4060
   33CHL1   H4A 2374   1.020   1.006   6.866  1.3201 -2.9359 -0.4008
   33CHL1   H4B 2375   1.177   0.988   6.799  1.7364 -1.4427  1.2976
   33CHL1    C5 2376   1.192   1.072   6.995  0.3949 -0.0840  0.2709
   33CHL1    C6 2377   1.310   1.005   7.015 -0.5482 -0.6476 -0.2308
   33CHL1    H6 2378   1.364   0.955   6.934  1.0645  0.1535  0.3168
   33CHL1    C7 2379   1.375   1.008   7.148 -0.4003 -0.3017  0.9216
   33CHL1   H7A 2380   1.405   0.906   7.180  0.1894  0.2132  2.0734
   33CHL1   H7B 2381   1.467   1.069   7.161 -0.4590  0.2701 -1.0661
   33CHL1    C8 2382   1.274   1.049   7.261  0.4596 -0.0860 -0.2266
   33CHL1    H8 2383   1.200   0.967   7.274  0.2253 -0.0577 -1.3236
   33CHL1   C14 2384   1.348   1.066   7.394  0.2986 -0.6134 -0.1265
   33CHL1   H14 2385   1.417   1.151   7.373 -0.5695  0.6494  1.8271
   33CHL1   C15 2386   1.441   0.956   7.439 -0.4605  0.8768 -0.1641
   33CHL1  H15A 2387   1.389   0.859   7.421 -2.6237  1.6492  1.4418
   33CHL1  H15B 2388   1.541   0.963   7.393 -0.7527  3.1500 -0.5765
   33CHL1   C16 2389   1.449   0.987   7.587  0.1558  1.2574 -0.4481
   33CHL1  H16A 2390   1.399   0.900   7.635  0.3957 -0.3238 -2.8860
   33CHL1  H16B 2391   1.553   0.985   7.627 -0.7827 -0.7219  2.1866
   33CHL1   C17 2392   1.377   1.120   7.615 -0.4699 -0.2760 -0.1373
   33CHL1   H17 2393   1.449   1.197   7.583 -0.5941 -0.4883 -0.9618
   33CHL1   C13 2394   1.261   1.116   7.511  0.1487 -0.0688 -0.5846
   33CHL1   C18 2395   1.151   1.022   7.553 -0.2801 -0.1473 -0.6835
   33CHL1  H18A 2396   1.083   1.065   7.630 -1.3581  0.3628 -1.8962
   33CHL1  H18B 2397   1.084   1.005   7.466  0.6035 -0.3608 -1.3333
   33CHL1  H18C 2398   1.189   0.923   7.586  0.1145  0.8362  2.1447
   33CHL1   C12 2399   1.209   1.253   7.475  0.1891  0.0764  0.5750
   33CHL1  H12A 2400   1.152   1.284   7.566 -1.7168 -1.3210 -0.0845
   33CHL1  H12B 2401   1.286   1.330   7.453  0.3192  0.3825  1.9977
   33CHL1   C11 2402   1.121   1.243   7.344  0.2381 -0.7523 -0.3526
   33CHL1  H11A 2403   1.024   1.197   7.372 -1.0296  1.7420 -0.3429
   33CHL1  H11B 2404   1.098   1.347   7.312  1.6672  0.0946  1.2307
   33CHL1    C9 2405   1.195   1.179   7.223 -0.4431 -0.1592  0.5097
   33CHL1    H9 2406   1.272   1.256   7.203 -1.0536  0.3223  0.0038
   33CHL1   C10 2407   1.114   1.160   7.096  0.4714  0.5401 -0.3170
   33CHL1   C19 2408   0.983   1.084   7.137  0.1725 -0.0946  1.1231
   33CHL1  H19A 2409   0.924   1.061   7.046  3.1259  1.2104 -1.3277
   33CHL1  H19B 2410   0.993   0.992   7.198  0.9093 -1.0278 -0.3359
   33CHL1  H19C 2411   0.934   1.163   7.198  1.5085 -1.1798  3.7306
   33CHL1    C1 2412   1.075   1.292   7.030  0.0821 -0.0157  0.1908
   33CHL1   H1A 2413   1.007   1.355   7.090 -0.3187 -1.0856  0.8848
   33CHL1   H1B 2414   1.171   1.343   7.007 -0.5831  0.7865 -0.8491
   33CHL1    C2 2415   1.018   1.280   6.881 -0.3464 -0.3181 -0.5082
   33CHL1   H2A 2416   1.000   1.385   6.849 -0.7885 -0.4226 -0.6048
   33CHL1   H2B 2417   0.914   1.245   6.893 -0.1480 -0.3446  1.3875
   33CHL1   C20 2418   1.339   1.138   7.760 -0.2725 -0.1728 -0.4372
   33CHL1   H20 2419   1.239   1.186   7.762 -0.5809 -0.8325  1.1539
   33CHL1   C21 2420   1.447   1.232   7.820  0.0688  0.0846  0.4625
   33CHL1  H21A 2421   1.440   1.251   7.930  3.0816 -1.1271  0.9477
   33CHL1  H21B 2422   1.454   1.331   7.770  0.9453  0.6229  1.5849
   33CHL1  H21C 2423   1.551   1.194   7.818 -0.1784 -0.7278  1.5406
   33CHL1   C22 2424   1.321   1.011   7.855 -0.8815 -0.1032  0.3746
   33CHL1  H22A 2425   1.267   0.927   7.806 -0.1998  0.1245 -0.8134
   33CHL1  H22B 2426   1.428   0.989   7.877  0.0927  3.5370 -0.0839
   33CHL1   C23 2427   1.255   1.057   7.987  0.1192 -0.2382 -0.1231
   33CHL1  H23A 2428   1.310   1.141   8.034 -4.1076  2.2958  0.7435
   33CHL1  H23B 2429   1.151   1.094   7.980  0.2987  0.3005  0.0411
   33CHL1   C24 2430   1.241   0.939   8.088 -0.0192  0.1987 -0.3737
   33CHL1  H24A 2431   1.172   0.858   8.057 -0.1391  0.3864 -0.5969
   33CHL1  H24B 2432   1.342   0.893   8.088 -1.1700 -2.5736  1.4385
   33CHL1   C25 2433   1.197   0.980   8.231 -0.0472  0.5703  0.2414
   33CHL1   H25 2434   1.209   0.888   8.292 -1.9845  0.0554 -0.0981
   33CHL1   C26 2435   1.289   1.089   8.292  0.2335 -0.8805 -0.0976
   33CHL1  H26A 2436   1.395   1.057   8.290  0.5949 -0.0352  2.2256
   33CHL1  H26B 2437   1.268   1.187   8.245 -2.3584  0.5852  3.6453
   33CHL1  H26C 2438   1.269   1.102   8.401  0.8815 -0.8210  0.0183
   33CHL1   C27 2439   1.049   1.020   8.235 -0.0807  0.1775 -0.4512
   33CHL1  H27A 2440   1.031   1.119   8.187  2.0380  1.2279  0.8038
   33CHL1  H27B 2441   1.000   0.946   8.167  1.9131 -2.3613  0.7357
   33CHL1  H27C 2442   1.006   1.023   8.337  2.2551  2.2864  0.5448
   34CHL1    C3 2443   1.118   5.913   6.977 -0.0389  0.1549  0.7027
   34CHL1    H3 2444   1.011   5.890   6.995 -0.3333  1.7642  1.1478
   34CHL1    O3 2445   1.145   5.910   6.839 -0.1572 -0.2183 -0.3869
   34CHL1   H3' 2446   1.236   5.939   6.833  0.2674 -1.6845 -1.7838
   34CHL1    C4 2447   1.159   6.049   7.031  0.1736 -0.9656 -0.5466
   34CHL1   H4A 2448   1.258   6.078   6.991 -0.3100 -0.1814 -1.2075
   34CHL1   H4B 2449   1.080   6.112   6.984 -0.0376 -1.5614 -1.0147
   34CHL1    C5 2450   1.140   6.049   7.182 -0.2544 -0.1719  0.0077
   34CHL1    C6 2451   1.062   6.139   7.238  0.3162 -0.2827  0.0261
   34CHL1    H6 2452   1.029   6.225   7.178  0.0488 -0.7062 -0.4460
   34CHL1    C7 2453   1.046   6.138   7.383  0.6024  0.2433 -0.0542
   34CHL1   H7A 2454   1.050   6.247   7.405  1.7407  0.2732 -0.3526
   34CHL1   H7B 2455   0.941   6.106   7.399 -0.0357  1.8980 -0.6736
   34CHL1    C8 2456   1.154   6.060   7.463  0.3529  0.3099  0.2774
   34CHL1    H8 2457   1.253   6.110   7.461 -0.3489  1.7316 -1.9523
   34CHL1   C14 2458   1.116   6.050   7.613  0.3722 -0.3400 -0.4392
   34CHL1   H14 2459   1.025   5.988   7.622  0.6003 -0.3570  2.5849
   34CHL1   C15 2460   1.079   6.186   7.684 -0.3964  0.5927 -0.2530
   34CHL1  H15A 2461   1.149   6.265   7.651 -0.8831  1.2513  0.2716
   34CHL1  H15B 2462   0.971   6.211   7.679 -0.3496  0.6629 -0.9220
   34CHL1   C16 2463   1.102   6.149   7.829  0.5110  0.1200 -0.5720
   34CHL1  H16A 2464   1.177   6.225   7.860 -0.6440  1.6500 -1.4171
   34CHL1  H16B 2465   1.002   6.157   7.878  0.6923 -1.6370  0.1607
   34CHL1   C17 2466   1.155   6.003   7.841  0.7471  0.4578  0.2016
   34CHL1   H17 2467   1.072   5.929   7.846  0.0902  1.2134  0.7828
   34CHL1   C13 2468   1.219   5.980   7.700  0.0347 -0.2996 -0.2515
   34CHL1   C18 2469   1.356   6.058   7.692  0.5547  1.1044 -0.2422
   34CHL1  H18A 2470   1.401   6.058   7.591  1.3160  0.8307  0.0898
   34CHL1  H18B 2471   1.354   6.164   7.725 -1.5307  1.6252 -1.8109
   34CHL1  H18C 2472   1.433   6.004   7.752 -1.2016 -0.3558  0.7966
   34CHL1   C12 2473   1.237   5.838   7.644 -0.0853 -0.3769  0.2787
   34CHL1  H12A 2474   1.317   5.788   7.702  1.8927  1.8357 -0.3773
   34CHL1  H12B 2475   1.145   5.778   7.658 -0.4607  0.3996  1.2220
   34CHL1   C11 2476   1.264   5.827   7.494  0.0036 -0.0929  0.6381
   34CHL1  H11A 2477   1.371   5.848   7.471  0.1804 -0.8445  0.7461
   34CHL1  H11B 2478   1.251   5.723   7.460  0.3709 -0.0430  0.3361
   34CHL1    C9 2479   1.177   5.919   7.407 -1.0504  0.6005  0.2471
   34CHL1    H9 2480   1.076   5.873   7.406 -0.4426 -0.7815 -1.4054
   34CHL1   C10 2481   1.207   5.932   7.257  0.2864  0.3259  0.6342
   34CHL1   C19 2482   1.361   5.965   7.244 -0.2511  0.1202 -0.1507
   34CHL1  H19A 2483   1.401   6.005   7.149  2.0788 -1.6246 -0.0026
   34CHL1  H19B 2484   1.382   6.039   7.324 -1.1827 -1.0954  1.2741
   34CHL1  H19C 2485   1.425   5.880   7.277 -1.2099 -0.8519 -0.7431
   34CHL1    C1 2486   1.172   5.795   7.184 -0.4475 -0.6434  0.0369
   34CHL1   H1A 2487   1.253   5.728   7.219 -0.8773  0.0365  2.5144
   34CHL1   H1B 2488   1.070   5.764   7.215 -1.0028 -1.5195 -2.4343
   34CHL1    C2 2489   1.195   5.794   7.036 -0.1341  0.5585 -0.0602
   34CHL1   H2A 2490   1.171   5.693   6.995  1.3527  0.6103 -1.1379
   34CHL1   H2B 2491   1.303   5.815   7.024 -0.3622  0.6290 -2.3619
   34CHL1   C20 2492   1.249   5.982   7.963 -0.9871  0.3711  0.4886
   34CHL1   H20 2493   1.331   6.052   7.938 -0.1827 -0.3093  1.1374
   34CHL1   C21 2494   1.310   5.840   7.975 -0.5889 -0.6595  0.1980
   34CHL1  H21A 2495   1.227   5.768   7.964 -0.7047 -0.2908 -1.6377
   34CHL1  H21B 2496   1.351   5.826   8.078  0.4496 -0.3394 -0.1614
   34CHL1  H21C 2497   1.384   5.818   7.895 -1.4479 -1.2942 -0.4411
   34CHL1   C22 2498   1.194   6.025   8.102 -0.0850  0.1814  0.8387
   34CHL1  H22A 2499   1.271   6.023   8.183  1.4921  2.4334 -0.4813
   34CHL1  H22B 2500   1.159   6.131   8.106 -1.3859 -0.2582  1.6796
   34CHL1   C23 2501   1.080   5.934   8.149  0.0143 -0.0215  0.7589
   34CHL1  H23A 2502   1.012   5.917   8.063  0.6493 -1.2467  0.4724
   34CHL1  H23B 2503   1.123   5.832   8.166 -2.2952 -1.5249 -1.5898
   34CHL1   C24 2504   1.006   5.984   8.268  0.6009 -0.9716 -0.5014
   34CHL1  H24A 2505   1.085   6.013   8.341  0.9215  2.6664 -2.0506
   34CHL1  H24B 2506   0.948   6.077   8.251  2.2757  0.0181 -1.0433
   34CHL1   C25 2507   0.911   5.887   8.338 -0.2970 -0.1865  0.0474
   34CHL1   H25 2508   0.970   5.793   8.340  2.2743  1.3370  1.2923
   34CHL1   C26 2509   0.898   5.933   8.479  0.7175 -0.2306 -0.1398
   34CHL1  H26A 2510   0.991   5.916   8.536  0.0260  2.7927  2.1361
   34CHL1  H26B 2511   0.886   6.044   8.483  4.2837  0.4995 -3.4156
   34CHL1  H26C 2512   0.826   5.867   8.531  1.0587 -0.7926 -0.3818
   34CHL1   C27 2513   0.780   5.863   8.256  0.8626 -0.0338  0.0106
   34CHL1  H27A 2514   0.728   5.774   8.297 -3.1192  2.3491  0.7722
   34CHL1  H27B 2515   0.707   5.945   8.279  1.4234  0.3714  0.3882
   34CHL1  H27C 2516   0.792   5.845   8.147 -0.2954 -1.5414  0.0963
   35CHL1    C3 2517   4.735   6.749   7.135  0.2732 -0.0398  0.0826
   35CHL1    H3 2518   4.841   6.781   7.141  0.0880  0.3727  1.5319
   35CHL1    O3 2519   4.705   6.722   6.999 -0.4970 -0.0511 -0.1283
   35CHL1   H3' 2520   4.748   6.637   6.995  0.6316  0.5195 -0.7880
   35CHL1    C4 2521   4.727   6.620   7.212  0.1986  0.2614  0.9240
   35CHL1   H4A 2522   4.623   6.581   7.204  0.6984 -0.9557  0.0855
   35CHL1   H4B 2523   4.796   6.545   7.168  1.9478  1.0001  2.2930
   35CHL1    C5 2524   4.762   6.649   7.355  0.7225  0.2663  0.2436
   35CHL1    C6 2525   4.862   6.580   7.413  0.7569 -0.3254 -0.0843
   35CHL1    H6 2526   4.912   6.510   7.345 -0.8003 -0.7027 -0.8749
   35CHL1    C7 2527   4.898   6.590   7.556 -0.1352  0.9862 -0.2815
   35CHL1   H7A 2528   4.924   6.488   7.592 -0.4334  1.4822  1.4261
   35CHL1   H7B 2529   4.988   6.654   7.566  1.1432 -0.8281  0.4823
   35CHL1    C8 2530   4.773   6.632   7.637 -0.1452 -0.3237  0.0958
   35CHL1    H8 2531   4.694   6.555   7.629  1.2090 -1.7108 -0.5737
   35CHL1   C14 2532   4.818   6.663   7.783  0.1545 -0.6663 -0.4431
   35CHL1   H14 2533   4.892   6.745   7.774 -1.1594  0.6653  0.4076
   35CHL1   C15 2534   4.889   6.547   7.858  0.5402  0.1334  0.0395
   35CHL1  H15A 2535   4.840   6.448   7.852  3.7633 -1.6034  0.2729
   35CHL1  H15B 2536   4.996   6.535   7.831  0.0940  0.5530 -2.1610
   35CHL1   C16 2537   4.884   6.594   8.005  0.1956 -0.5561 -0.5897
   35CHL1  H16A 2538   4.818   6.518   8.053 -0.7266  1.5817  1.8135
   35CHL1  H16B 2539   4.983   6.607   8.054  0.0141 -0.5789 -0.2143
   35CHL1   C17 2540   4.800   6.723   8.012  0.0245 -0.0637  0.5531
   35CHL1   H17 2541   4.874   6.805   7.995  0.3203 -0.5150 -0.4049
   35CHL1   C13 2542   4.719   6.719   7.880  0.5258 -0.7212  0.0436
   35CHL1   C18 2543   4.589   6.629   7.895  0.6596 -0.2760 -0.3025
   35CHL1  H18A 2544   4.538   6.615   7.797  0.1490 -3.2649  0.3160
   35CHL1  H18B 2545   4.621   6.529   7.928  1.2955 -0.4640 -1.4347
   35CHL1  H18C 2546   4.517   6.681   7.963  1.4455  0.5678 -0.0962
   35CHL1   C12 2547   4.684   6.854   7.816  0.0615  0.6940 -0.4174
   35CHL1  H12A 2548   4.605   6.893   7.883  0.1296 -1.0481  0.7596
   35CHL1  H12B 2549   4.771   6.923   7.818  1.6119 -1.1378  1.5432
   35CHL1   C11 2550   4.623   6.836   7.673 -0.5664 -0.3320  0.4074
   35CHL1  H11A 2551   4.530   6.778   7.685 -0.6346 -0.3924 -0.3744
   35CHL1  H11B 2552   4.604   6.940   7.640  0.4956 -0.2683 -0.0639
   35CHL1    C9 2553   4.722   6.768   7.578 -0.4112  0.4378 -0.1427
   35CHL1    H9 2554   4.810   6.837   7.574 -0.8479  0.9861 -0.3614
   35CHL1   C10 2555   4.672   6.751   7.431  0.3576 -0.3115  0.7240
   35CHL1   C19 2556   4.521   6.707   7.414 -0.9323  0.2093 -0.2857
   35CHL1  H19A 2557   4.486   6.706   7.309 -0.4389  0.3204 -0.4570
   35CHL1  H19B 2558   4.504   6.612   7.469  1.0928  0.1115  0.2576
   35CHL1  H19C 2559   4.462   6.783   7.469 -0.3413 -1.3988  2.7989
   35CHL1    C1 2560   4.677   6.887   7.351  0.5259  0.7395 -0.0237
   35CHL1   H1A 2561   4.592   6.951   7.385  0.2923 -0.9365  2.8707
   35CHL1   H1B 2562   4.768   6.947   7.373 -1.3692  3.0793  2.1320
   35CHL1    C2 2563   4.669   6.870   7.196  0.2447  0.5308  0.3091
   35CHL1   H2A 2564   4.699   6.965   7.148  3.9799 -0.0723  1.1027
   35CHL1   H2B 2565   4.562   6.848   7.176  1.1578 -1.1203 -3.8538
   35CHL1   C20 2566   4.719   6.757   8.141 -0.0714 -0.0424 -0.4874
   35CHL1   H20 2567   4.611   6.735   8.126 -0.3021  2.6468 -3.9025
   35CHL1   C21 2568   4.722   6.912   8.157 -0.5763  0.1291  0.0320
   35CHL1  H21A 2569   4.650   6.951   8.233 -0.5170 -1.2870  0.8353
   35CHL1  H21B 2570   4.699   6.956   8.057 -0.0629  0.5710  0.1024
   35CHL1  H21C 2571   4.820   6.945   8.196  0.1016 -1.4956 -0.2562
   35CHL1   C22 2572   4.759   6.680   8.268  0.5734 -0.0300 -0.8586
   35CHL1  H22A 2573   4.771   6.570   8.258  1.5505  0.0766 -0.9202
   35CHL1  H22B 2574   4.853   6.728   8.302  0.9970 -0.3432 -1.5670
   35CHL1   C23 2575   4.653   6.697   8.378 -0.3554  0.5997  0.2413
   35CHL1  H23A 2576   4.641   6.801   8.416 -0.1667  1.1564 -1.1540
   35CHL1  H23B 2577   4.555   6.663   8.338 -0.6008  2.0764 -0.5129
   35CHL1   C24 2578   4.683   6.616   8.499 -0.0961 -0.4098 -0.7864
   35CHL1  H24A 2579   4.673   6.509   8.474 -0.6963 -0.4911 -0.2067
   35CHL1  H24B 2580   4.787   6.640   8.529 -0.4924  0.4542 -0.0571
   35CHL1   C25 2581   4.589   6.649   8.619  0.9532  0.6152 -0.5174
   35CHL1   H25 2582   4.572   6.758   8.627 -0.6776  0.5411 -2.2924
   35CHL1   C26 2583   4.449   6.579   8.609 -0.1151  0.1433 -0.5089
   35CHL1  H26A 2584   4.462   6.478   8.565  0.5813  0.9586 -2.2880
   35CHL1  H26B 2585   4.414   6.560   8.713 -0.2786  2.0042 -0.1830
   35CHL1  H26C 2586   4.372   6.646   8.564 -2.8996 -0.9677  2.2386
   35CHL1   C27 2587   4.666   6.605   8.738 -0.3411 -0.6969 -0.3528
   35CHL1  H27A 2588   4.737   6.521   8.726 -0.4455 -1.0962  1.5638
   35CHL1  H27B 2589   4.600   6.579   8.824  0.4190 -3.8896 -0.6187
   35CHL1  H27C 2590   4.732   6.688   8.771  2.9505 -2.4385 -2.1346
   36CHL1    C3 2591   3.336   0.338   7.020  0.3063 -0.4098 -0.3848
   36CHL1    H3 2592   3.415   0.272   7.064  0.6211  0.1602 -0.0873
   36CHL1    O3 2593   3.380   0.371   6.897 -0.0039  0.1287  0.2570
   36CHL1   H3' 2594   3.312   0.426   6.858  1.6129  1.0661 -1.3861
   36CHL1    C4 2595   3.203   0.273   7.015  0.6336  0.3028  0.3681
   36CHL1   H4A 2596   3.133   0.344   6.966  0.6609  1.8025  2.3488
   36CHL1   H4B 2597   3.223   0.184   6.952  1.4152 -0.3733  1.5444
   36CHL1    C5 2598   3.151   0.237   7.149  0.2431  0.3096  0.8484
   36CHL1    C6 2599   3.134   0.108   7.186  0.2316 -0.3215  0.1575
   36CHL1    H6 2600   3.151   0.022   7.121  3.7592  0.0824  0.3554
   36CHL1    C7 2601   3.075   0.079   7.322  0.6404  0.4988  0.5085
   36CHL1   H7A 2602   2.984   0.016   7.313 -0.4127  1.8073  1.5883
   36CHL1   H7B 2603   3.163   0.026   7.366  1.4447  0.4794 -1.0371
   36CHL1    C8 2604   3.031   0.198   7.413  0.0028 -0.5587  0.0913
   36CHL1    H8 2605   2.933   0.233   7.375  0.6119  0.7838 -0.3114
   36CHL1   C14 2606   3.020   0.156   7.555  0.5740  0.2737 -0.4867
   36CHL1   H14 2607   3.126   0.134   7.583 -0.0979 -1.3325  0.9224
   36CHL1   C15 2608   2.939   0.031   7.588  0.5555  0.5049  0.5192
   36CHL1  H15A 2609   2.850   0.037   7.522  0.4173  1.4908  0.7662
   36CHL1  H15B 2610   2.993  -0.063   7.567 -0.9860 -0.7801  2.0099
   36CHL1   C16 2611   2.897   0.048   7.741 -0.5110  0.0765 -0.2189
   36CHL1  H16A 2612   2.786   0.044   7.746 -0.6583 -1.8053 -2.8855
   36CHL1  H16B 2613   2.959  -0.023   7.800  3.4916  2.5148 -1.1449
   36CHL1   C17 2614   2.951   0.195   7.779 -0.2969 -0.3017  0.4331
   36CHL1   H17 2615   3.051   0.178   7.824  1.9426  1.2459 -3.4316
   36CHL1   C13 2616   2.968   0.272   7.651 -0.4267 -0.0132 -0.1918
   36CHL1   C18 2617   2.822   0.312   7.618  0.3391  0.5631  0.1586
   36CHL1  H18A 2618   2.792   0.402   7.677 -1.5161  1.0515 -1.4377
   36CHL1  H18B 2619   2.812   0.339   7.511  1.8059  0.0177 -0.1464
   36CHL1  H18C 2620   2.751   0.228   7.631  1.1347 -0.4426 -1.6902
   36CHL1   C12 2621   3.078   0.389   7.647 -0.4572  0.5561 -0.5806
   36CHL1  H12A 2622   3.067   0.480   7.711  1.4813  0.4459 -0.0073
   36CHL1  H12B 2623   3.175   0.347   7.681 -0.9710  0.1943  0.4911
   36CHL1   C11 2624   3.104   0.434   7.500  0.1750 -0.0539  0.4027
   36CHL1  H11A 2625   3.012   0.486   7.466 -0.0576 -0.4203  0.4622
   36CHL1  H11B 2626   3.193   0.500   7.497  0.2472 -0.1351  0.7385
   36CHL1    C9 2627   3.126   0.314   7.399  0.7186  0.4192 -0.1559
   36CHL1    H9 2628   3.225   0.278   7.434  0.5914  0.0576 -0.1650
   36CHL1   C10 2629   3.144   0.356   7.247 -0.0526  0.1546  0.0915
   36CHL1   C19 2630   3.023   0.439   7.200  0.3678  0.2665 -0.6267
   36CHL1  H19A 2631   3.004   0.526   7.266 -1.4698  0.0053 -0.7547
   36CHL1  H19B 2632   3.036   0.483   7.099  1.9628  0.4879 -0.3546
   36CHL1  H19C 2633   2.939   0.368   7.188  0.5845 -0.1759  0.3596
   36CHL1    C1 2634   3.277   0.435   7.237 -0.4530 -0.0669 -0.3028
   36CHL1   H1A 2635   3.283   0.529   7.296 -3.1188 -1.8179  3.1150
   36CHL1   H1B 2636   3.352   0.368   7.284 -0.0839  1.2683  1.0914
   36CHL1    C2 2637   3.319   0.467   7.094  0.5380 -0.7145 -0.0380
   36CHL1   H2A 2638   3.405   0.536   7.102 -1.6631  2.4084 -1.1736
   36CHL1   H2B 2639   3.243   0.528   7.041  2.5424  1.4191 -0.6319
   36CHL1   C20 2640   2.861   0.251   7.891  0.5808  0.1041  0.4295
   36CHL1   H20 2641   2.756   0.252   7.854  0.5841 -0.0916  0.4155
   36CHL1   C21 2642   2.899   0.393   7.925  0.8461  0.0925  0.3367
   36CHL1  H21A 2643   3.008   0.405   7.940  1.0310 -1.3345  0.3052
   36CHL1  H21B 2644   2.861   0.425   8.025  4.6726  0.1906  1.9162
   36CHL1  H21C 2645   2.861   0.461   7.846  1.4205  1.7443  1.4212
   36CHL1   C22 2646   2.879   0.156   8.012  0.2404  0.2384 -0.3470
   36CHL1  H22A 2647   2.871   0.049   7.986  3.4906 -0.1948 -0.0207
   36CHL1  H22B 2648   2.984   0.163   8.049 -0.2297 -1.4636  1.4759
   36CHL1   C23 2649   2.774   0.184   8.116 -0.1440  0.2863 -0.5037
   36CHL1  H23A 2650   2.776   0.281   8.170 -1.0748  0.4092 -0.6582
   36CHL1  H23B 2651   2.681   0.199   8.057  0.1793  1.4988 -0.7240
   36CHL1   C24 2652   2.742   0.077   8.224 -0.3668  0.2658  0.3058
   36CHL1  H24A 2653   2.727  -0.020   8.173  1.7916  0.4081 -0.7398
   36CHL1  H24B 2654   2.836   0.070   8.284  0.8487  0.8892 -1.4340
   36CHL1   C25 2655   2.619   0.093   8.314  0.1167 -0.1469 -0.6595
   36CHL1   H25 2656   2.624   0.025   8.402  1.9478  0.5918 -0.1575
   36CHL1   C26 2657   2.617   0.227   8.387 -0.2064 -0.3217  0.3752
   36CHL1  H26A 2658   2.538   0.222   8.465  0.4175 -1.7214  0.9454
   36CHL1  H26B 2659   2.720   0.241   8.425  0.4871  3.1148 -2.2847
   36CHL1  H26C 2660   2.603   0.310   8.315  0.5023 -1.1511 -0.7464
   36CHL1   C27 2661   2.483   0.068   8.237 -1.0899 -0.9524  0.5723
   36CHL1  H27A 2662   2.477  -0.034   8.192  1.7538 -0.7907 -0.3720
   36CHL1  H27B 2663   2.396   0.093   8.301 -0.0754  0.0053  1.6381
   36CHL1  H27C 2664   2.474   0.140   8.153  2.2134 -0.7335  0.2688
   37CHL1    C3 2665   2.565   1.004   6.786  0.1930 -0.7023 -0.5369
   37CHL1    H3 2666   2.555   0.898   6.817 -2.4716 -0.1514  0.8802
   37CHL1    O3 2667   2.563   1.014   6.647  0.8431 -0.7798  0.4119
   37CHL1   H3' 2668   2.534   0.928   6.616 -3.1408  0.1792  1.0006
   37CHL1    C4 2669   2.440   1.077   6.850  0.1583 -0.4880  0.2099
   37CHL1   H4A 2670   2.448   1.180   6.810  0.3290 -0.5908 -0.0240
   37CHL1   H4B 2671   2.348   1.034   6.805 -0.2296 -0.0136  0.5348
   37CHL1    C5 2672   2.445   1.082   7.000  0.4995  0.5841 -0.3510
   37CHL1    C6 2673   2.331   1.052   7.070  0.0322  0.0806  0.1862
   37CHL1    H6 2674   2.241   1.035   7.010 -0.7298  3.6350  0.1323
   37CHL1    C7 2675   2.325   1.056   7.221  0.4247  0.2582 -0.0222
   37CHL1   H7A 2676   2.225   1.090   7.253  0.2040 -0.7576  0.4165
   37CHL1   H7B 2677   2.330   0.949   7.248  1.6913  0.0095 -1.0913
   37CHL1    C8 2678   2.433   1.142   7.284 -0.2234  0.8556 -0.3033
   37CHL1    H8 2679   2.398   1.246   7.265 -1.8083  0.7684  1.7964
   37CHL1   C14 2680   2.445   1.113   7.435 -0.2942  0.1430  0.0973
   37CHL1   H14 2681   2.476   1.007   7.434 -0.6566  0.0155  1.3268
   37CHL1   C15 2682   2.314   1.128   7.521 -0.2606  1.1927 -0.7188
   37CHL1  H15A 2683   2.266   1.224   7.493 -2.3961 -0.4208 -3.0012
   37CHL1  H15B 2684   2.235   1.050   7.510  0.6262 -0.3551  2.6253
   37CHL1   C16 2685   2.368   1.146   7.666 -0.1761  0.1251 -0.0687
   37CHL1  H16A 2686   2.312   1.235   7.702 -1.1311 -1.0797  1.5746
   37CHL1  H16B 2687   2.339   1.056   7.725  0.3979 -2.2486 -3.1417
   37CHL1   C17 2688   2.525   1.152   7.651 -0.1176 -0.3594 -0.7091
   37CHL1   H17 2689   2.564   1.048   7.653  0.3005 -0.1922 -0.1790
   37CHL1   C13 2690   2.551   1.200   7.502 -0.0979  0.3767  0.9299
   37CHL1   C18 2691   2.525   1.354   7.491  0.5417  0.2246 -0.1689
   37CHL1  H18A 2692   2.424   1.385   7.526  0.4560 -0.2775  0.0477
   37CHL1  H18B 2693   2.605   1.402   7.550 -1.0630 -0.5693  2.8738
   37CHL1  H18C 2694   2.537   1.385   7.385 -1.7619 -1.2600 -0.9623
   37CHL1   C12 2695   2.688   1.175   7.440 -0.0107  0.1024 -0.0219
   37CHL1  H12A 2696   2.773   1.239   7.472 -0.0638  1.2264 -1.9597
   37CHL1  H12B 2697   2.712   1.071   7.473 -0.8138  0.7163  2.7601
   37CHL1   C11 2698   2.689   1.181   7.290 -0.2786 -0.5924 -0.0093
   37CHL1  H11A 2699   2.702   1.290   7.271 -0.7827 -0.9264 -2.5911
   37CHL1  H11B 2700   2.784   1.141   7.248  3.0574  4.4598  1.6859
   37CHL1    C9 2701   2.574   1.109   7.217 -0.3836  0.7645 -0.5555
   37CHL1    H9 2702   2.580   1.001   7.239 -0.9507  0.5946 -1.1932
   37CHL1   C10 2703   2.577   1.126   7.062 -0.0917  0.1554  0.3333
   37CHL1   C19 2704   2.601   1.276   7.037  0.4805  0.6879 -0.4174
   37CHL1  H19A 2705   2.702   1.311   7.067  0.6996  1.2521 -1.7078
   37CHL1  H19B 2706   2.597   1.291   6.927  0.6334 -0.8635 -0.6586
   37CHL1  H19C 2707   2.527   1.341   7.087  1.6317  1.1101  0.7918
   37CHL1    C1 2708   2.691   1.044   6.996 -0.2111 -0.2385  0.0518
   37CHL1   H1A 2709   2.786   1.073   7.044 -1.2477  2.2292  0.7913
   37CHL1   H1B 2710   2.683   0.935   7.015  1.0981  0.0276  2.4378
   37CHL1    C2 2711   2.701   1.045   6.841  0.1306  0.4569  0.0106
   37CHL1   H2A 2712   2.788   0.990   6.799  1.9092  1.3426  2.3176
   37CHL1   H2B 2713   2.717   1.146   6.796 -1.1683 -0.3792 -2.5594
   37CHL1   C20 2714   2.596   1.232   7.765  0.1268  0.2590 -0.2823
   37CHL1   H20 2715   2.569   1.340   7.761 -2.3963 -0.2787  0.3980
   37CHL1   C21 2716   2.749   1.247   7.771 -0.6302  0.5555  0.9485
   37CHL1  H21A 2717   2.800   1.152   7.742  1.4644  1.9782 -0.2562
   37CHL1  H21B 2718   2.784   1.265   7.875  1.1103 -0.5707  0.6096
   37CHL1  H21C 2719   2.775   1.326   7.697 -0.2420 -0.4880 -0.0740
   37CHL1   C22 2720   2.548   1.189   7.903  0.5009  0.5068  0.4469
   37CHL1  H22A 2721   2.585   1.278   7.959  0.6462  2.0686 -1.9973
   37CHL1  H22B 2722   2.438   1.208   7.896  0.9063  3.7154  0.9951
   37CHL1   C23 2723   2.589   1.055   7.970 -0.0686 -0.0878  0.0416
   37CHL1  H23A 2724   2.538   0.968   7.923  0.8971 -0.7282  0.1548
   37CHL1  H23B 2725   2.700   1.051   7.960 -0.1239  1.0682 -1.3558
   37CHL1   C24 2726   2.553   1.067   8.122  0.7582  0.0515  0.1499
   37CHL1  H24A 2727   2.597   1.161   8.161  0.1014  1.8933 -3.1134
   37CHL1  H24B 2728   2.443   1.076   8.132  0.8283  1.0537  0.1389
   37CHL1   C25 2729   2.607   0.944   8.196  0.1578 -0.1006 -0.3988
   37CHL1   H25 2730   2.568   0.848   8.155  2.3171 -0.7031 -1.2065
   37CHL1   C26 2731   2.755   0.927   8.193  0.4798 -0.4029  0.3122
   37CHL1  H26A 2732   2.799   1.025   8.222  0.4088 -0.1286 -0.4684
   37CHL1  H26B 2733   2.789   0.854   8.269 -0.3220 -0.4520  0.6339
   37CHL1  H26C 2734   2.794   0.911   8.090  0.6705  0.9246  0.1605
   37CHL1   C27 2735   2.569   0.955   8.347  0.5616  0.3918  0.1247
   37CHL1  H27A 2736   2.615   0.875   8.407 -0.9333 -2.5347 -2.3531
   37CHL1  H27B 2737   2.589   1.057   8.388  2.3966 -0.4470  1.4338
   37CHL1  H27C 2738   2.461   0.938   8.368  0.8207 -2.0874 -0.3002
   38CHL1    C3 2739   5.035   3.235   6.516 -0.8704 -0.1660 -0.2295
   38CHL1    H3 2740   4.926   3.221   6.500 -0.4295 -2.3789 -1.8276
   38CHL1    O3 2741   5.088   3.215   6.386 -0.8051  0.7921 -0.2622
   38CHL1   H3' 2742   5.183   3.224   6.392 -0.5697 -0.5928 -1.3359
   38CHL1    C4 2743   5.070   3.371   6.561 -0.0803  0.0173 -0.0774
   38CHL1   H4A 2744   5.174   3.389   6.526  0.2907 -1.1272  0.4061
   38CHL1   H4B 2745   4.998   3.441   6.512 -0.6637 -0.6486 -0.1864
   38CHL1    C5 2746   5.052   3.399   6.709 -0.5392  0.5040  0.5737
   38CHL1    C6 2747   4.981   3.503   6.743  0.2255  0.3873  0.3997
   38CHL1    H6 2748   4.936   3.566   6.664 -0.3870 -2.2622 -1.5457
   38CHL1    C7 2749   4.945   3.543   6.878  0.2002  0.2685 -0.3712
   38CHL1   H7A 2750   4.972   3.650   6.887 -0.4084  0.6533 -2.5576
   38CHL1   H7B 2751   4.835   3.537   6.891  0.1162  1.2226 -0.5606
   38CHL1    C8 2752   5.021   3.472   6.990  0.4065 -0.3176 -0.1169
   38CHL1    H8 2753   5.122   3.520   6.992  0.6861 -0.9078  0.0871
   38CHL1   C14 2754   4.955   3.474   7.129 -0.5460  0.3253  0.1481
   38CHL1   H14 2755   4.864   3.410   7.125  0.4226 -1.0624  0.0205
   38CHL1   C15 2756   4.924   3.618   7.172  0.6647  0.5764 -1.0181
   38CHL1  H15A 2757   4.999   3.698   7.152 -0.4068  1.5537 -1.2472
   38CHL1  H15B 2758   4.830   3.642   7.117  0.7999  0.3139 -1.3671
   38CHL1   C16 2759   4.901   3.596   7.320  0.2945  0.1249  0.7164
   38CHL1  H16A 2760   4.969   3.666   7.374 -0.7286 -0.0725  2.3140
   38CHL1  H16B 2761   4.798   3.618   7.353 -0.1463 -1.4515  0.4720
   38CHL1   C17 2762   4.942   3.447   7.358 -0.1008  0.2710  0.1629
   38CHL1   H17 2763   4.852   3.382   7.348  1.6048 -2.5220  1.4753
   38CHL1   C13 2764   5.037   3.410   7.241  0.2704 -0.7886  0.5140
   38CHL1   C18 2765   5.168   3.488   7.251  0.6803 -0.3580 -0.3065
   38CHL1  H18A 2766   5.154   3.588   7.298 -0.0081 -0.9011  0.6945
   38CHL1  H18B 2767   5.217   3.432   7.333 -1.3474 -0.4002  0.9582
   38CHL1  H18C 2768   5.241   3.501   7.168  2.3066 -1.5560  0.8708
   38CHL1   C12 2769   5.053   3.263   7.208  0.2247  0.4230 -0.0987
   38CHL1  H12A 2770   5.116   3.211   7.283 -2.6526 -0.2845  2.0280
   38CHL1  H12B 2771   4.955   3.210   7.203  0.4833 -0.1639  0.9334
   38CHL1   C11 2772   5.120   3.252   7.066 -0.3577  0.3125 -0.1617
   38CHL1  H11A 2773   5.227   3.281   7.075 -0.3775 -0.0065  1.2890
   38CHL1  H11B 2774   5.125   3.143   7.044  0.5060 -0.2274  2.3703
   38CHL1    C9 2775   5.054   3.327   6.948  0.2581 -0.2415  0.3180
   38CHL1    H9 2776   4.951   3.286   6.946  0.6092 -1.1246 -0.1760
   38CHL1   C10 2777   5.113   3.297   6.807 -0.2806  0.0722 -0.2392
   38CHL1   C19 2778   5.265   3.309   6.812  0.5334 -0.4059 -0.4175
   38CHL1  H19A 2779   5.288   3.397   6.876  0.2771 -2.1840  2.3047
   38CHL1  H19B 2780   5.311   3.235   6.881 -0.3502  0.1663  0.8220
   38CHL1  H19C 2781   5.316   3.319   6.713  1.3034 -2.2277 -0.2439
   38CHL1    C1 2782   5.071   3.152   6.759  0.2243 -0.2254 -0.4704
   38CHL1   H1A 2783   5.131   3.074   6.810  1.3379 -0.1004 -1.5555
   38CHL1   H1B 2784   4.965   3.122   6.777  0.2234  0.7928  1.4451
   38CHL1    C2 2785   5.092   3.122   6.609 -0.1092 -0.2008 -0.7477
   38CHL1   H2A 2786   5.063   3.018   6.583 -1.0033  0.0271 -0.6682
   38CHL1   H2B 2787   5.203   3.123   6.601  0.0302 -0.8816  0.7075
   38CHL1   C20 2788   4.990   3.436   7.501 -0.2685  0.1441  0.4115
   38CHL1   H20 2789   5.081   3.499   7.512 -1.5241  2.2391 -0.4541
   38CHL1   C21 2790   5.022   3.288   7.521  0.0114 -0.0563  0.6366
   38CHL1  H21A 2791   4.947   3.210   7.494  0.4162 -0.0564 -0.5599
   38CHL1  H21B 2792   5.040   3.267   7.628  1.3914  0.3633  0.4991
   38CHL1  H21C 2793   5.119   3.254   7.480 -0.4437 -2.8755  1.6415
   38CHL1   C22 2794   4.886   3.489   7.600 -0.1360 -0.1341 -0.5126
   38CHL1  H22A 2795   4.884   3.600   7.597 -0.8853 -0.0956  0.7456
   38CHL1  H22B 2796   4.786   3.444   7.581 -0.8145  1.4334 -0.8226
   38CHL1   C23 2797   4.922   3.471   7.750 -0.3490 -0.0054 -0.7045
   38CHL1  H23A 2798   4.938   3.362   7.766 -0.3897 -0.3049 -2.4489
   38CHL1  H23B 2799   5.007   3.538   7.773 -0.7896  1.3275 -2.6488
   38CHL1   C24 2800   4.806   3.517   7.848 -0.7459  0.1954  0.1364
   38CHL1  H24A 2801   4.800   3.626   7.828 -1.0326  0.1153 -0.2229
   38CHL1  H24B 2802   4.714   3.460   7.822  0.3721 -1.5271 -0.2048
   38CHL1   C25 2803   4.848   3.491   7.998  0.1658 -0.4954  0.3312
   38CHL1   H25 2804   4.917   3.404   8.000  0.9617  0.1125 -0.2347
   38CHL1   C26 2805   4.931   3.608   8.048 -0.3635  0.0255  0.1624
   38CHL1  H26A 2806   4.975   3.581   8.146 -2.6884 -0.2544  1.2035
   38CHL1  H26B 2807   5.007   3.633   7.971 -0.6623 -0.4437 -0.2906
   38CHL1  H26C 2808   4.861   3.692   8.071  0.0950  0.6501 -0.6743
   38CHL1   C27 2809   4.722   3.465   8.090  0.2132  0.3201 -0.3310
   38CHL1  H27A 2810   4.675   3.370   8.055  0.3521  0.3799 -0.6945
   38CHL1  H27B 2811   4.745   3.446   8.197 -1.4448 -1.1627 -0.2011
   38CHL1  H27C 2812   4.650   3.546   8.068  0.9027  1.1424  0.3535
   39CHL1    C3 2813   4.666   3.088   6.703  0.6845 -0.7924  0.7872
   39CHL1    H3 2814   4.766   3.058   6.739  1.5935  0.4945 -0.5360
   39CHL1    O3 2815   4.665   3.087   6.558  0.4370 -0.0708 -0.3492
   39CHL1   H3' 2816   4.665   2.992   6.546 -1.8233  0.0464 -1.8735
   39CHL1    C4 2817   4.565   2.987   6.753 -0.0295  0.7283  0.4191
   39CHL1   H4A 2818   4.470   3.022   6.706  0.4320  1.4169 -0.0249
   39CHL1   H4B 2819   4.579   2.887   6.708  1.7229  1.0043  0.2692
   39CHL1    C5 2820   4.553   2.979   6.899  0.0374  0.5127  0.4042
   39CHL1    C6 2821   4.563   2.863   6.965  0.5473  0.8329  0.6915
   39CHL1    H6 2822   4.578   2.778   6.897  0.7806  1.7570 -0.4518
   39CHL1    C7 2823   4.542   2.842   7.111  0.6065  0.0552  0.5466
   39CHL1   H7A 2824   4.468   2.761   7.131  0.7932 -0.0249  0.9302
   39CHL1   H7B 2825   4.636   2.807   7.157 -0.5398 -0.8442  2.3374
   39CHL1    C8 2826   4.499   2.966   7.184 -0.0611 -0.7170 -0.1059
   39CHL1    H8 2827   4.390   2.981   7.173 -0.2797 -0.9734  1.5212
   39CHL1   C14 2828   4.530   2.965   7.335 -0.3281 -0.1610 -0.1211
   39CHL1   H14 2829   4.641   2.970   7.344 -0.4987  1.5716  1.5424
   39CHL1   C15 2830   4.481   2.844   7.410 -0.5284  0.6793 -0.7642
   39CHL1  H15A 2831   4.381   2.804   7.382  0.0150  0.2020 -2.1489
   39CHL1  H15B 2832   4.556   2.763   7.397  0.5571  1.9336 -2.9400
   39CHL1   C16 2833   4.488   2.881   7.560 -0.4445 -0.3388 -0.3495
   39CHL1  H16A 2834   4.385   2.871   7.599  0.4239 -0.7938  1.9803
   39CHL1  H16B 2835   4.573   2.828   7.608  2.3948  1.0793 -3.3383
   39CHL1   C17 2836   4.530   3.032   7.562 -0.3849  0.0704 -0.2749
   39CHL1   H17 2837   4.641   3.035   7.563 -0.4003  0.8792 -0.5992
   39CHL1   C13 2838   4.484   3.087   7.425 -0.1422  0.2351  0.7612
   39CHL1   C18 2839   4.325   3.113   7.421 -0.2411  0.2138  0.3598
   39CHL1  H18A 2840   4.283   3.134   7.320  1.1433 -2.7581 -0.9677
   39CHL1  H18B 2841   4.279   3.021   7.464  0.4899  0.1133  0.9519
   39CHL1  H18C 2842   4.285   3.183   7.497 -1.9753  0.9128 -1.1330
   39CHL1   C12 2843   4.565   3.204   7.362  0.4732 -0.7866 -0.2688
   39CHL1  H12A 2844   4.539   3.300   7.412 -1.8548 -1.4507 -0.1273
   39CHL1  H12B 2845   4.675   3.191   7.358  0.4398 -0.7652 -3.4741
   39CHL1   C11 2846   4.541   3.227   7.210 -0.0069  0.3070  0.2512
   39CHL1  H11A 2847   4.438   3.267   7.206  0.1376  0.7097  0.5177
   39CHL1  H11B 2848   4.608   3.307   7.174 -0.7889  0.9005  0.0895
   39CHL1    C9 2849   4.566   3.093   7.125  0.2282 -0.2200 -0.3443
   39CHL1    H9 2850   4.677   3.088   7.121  0.1758 -0.8891 -1.1477
   39CHL1   C10 2851   4.536   3.112   6.974 -0.3144  0.4695  0.1540
   39CHL1   C19 2852   4.392   3.175   6.947  0.0565 -0.3153 -0.3471
   39CHL1  H19A 2853   4.344   3.173   6.847 -1.4391 -0.9400  0.3569
   39CHL1  H19B 2854   4.325   3.107   7.005  0.2232  1.6496  2.3225
   39CHL1  H19C 2855   4.388   3.282   6.975  0.7621  0.7100 -3.6693
   39CHL1    C1 2856   4.631   3.211   6.907  1.0053 -0.2101 -0.0719
   39CHL1   H1A 2857   4.621   3.310   6.955  0.0265 -1.5274  2.6539
   39CHL1   H1B 2858   4.735   3.187   6.939  0.8134  1.1653  1.7225
   39CHL1    C2 2859   4.624   3.221   6.757 -1.2481 -0.0372  0.3145
   39CHL1   H2A 2860   4.703   3.296   6.734 -1.9047  1.2076  1.9911
   39CHL1   H2B 2861   4.524   3.250   6.719 -1.8432 -1.5500  0.6721
   39CHL1   C20 2862   4.486   3.118   7.687  0.1465  0.1694  0.0326
   39CHL1   H20 2863   4.377   3.136   7.692  0.2776  1.2727 -0.7621
   39CHL1   C21 2864   4.549   3.262   7.688  1.0018  0.5695 -0.1500
   39CHL1  H21A 2865   4.516   3.322   7.775 -1.1619  0.9163 -1.1503
   39CHL1  H21B 2866   4.510   3.321   7.603  4.2360 -0.6004 -2.6624
   39CHL1  H21C 2867   4.660   3.257   7.688  0.9716 -1.4713 -0.9712
   39CHL1   C22 2868   4.522   3.048   7.820 -0.1350 -0.0603 -0.5942
   39CHL1  H22A 2869   4.493   3.121   7.898 -0.2972 -0.6457 -0.1031
   39CHL1  H22B 2870   4.470   2.950   7.833 -1.1852  0.7198  1.4399
   39CHL1   C23 2871   4.674   3.031   7.848  0.4953  0.4515 -0.4670
   39CHL1  H23A 2872   4.701   2.950   7.776 -2.1756 -0.4508 -0.5760
   39CHL1  H23B 2873   4.737   3.118   7.820  0.2991  1.0632  0.9382
   39CHL1   C24 2874   4.713   2.976   7.987 -0.9267 -0.5091  0.7728
   39CHL1  H24A 2875   4.822   2.957   7.982 -0.8426  0.0729  0.2130
   39CHL1  H24B 2876   4.692   3.048   8.069 -0.3066 -0.2924  0.7448
   39CHL1   C25 2877   4.662   2.833   8.010  0.5053  0.2770  1.1004
   39CHL1   H25 2878   4.558   2.830   7.973  0.5732 -0.9253  0.9772
   39CHL1   C26 2879   4.740   2.728   7.927  0.0022 -0.3078 -0.4263
   39CHL1  H26A 2880   4.734   2.751   7.819 -0.1610  0.2524 -0.3010
   39CHL1  H26B 2881   4.845   2.732   7.964 -0.8551 -0.2517  2.2475
   39CHL1  H26C 2882   4.693   2.629   7.945 -1.8778  0.9112  2.0112
   39CHL1   C27 2883   4.676   2.795   8.159 -0.6618  0.1031  0.5670
   39CHL1  H27A 2884   4.631   2.867   8.231  0.8798  1.1044  0.5673
   39CHL1  H27B 2885   4.627   2.696   8.172  1.6925 -1.1266  0.5899
   39CHL1  H27C 2886   4.782   2.768   8.175 -0.4025  1.4064  1.2074
   40CHL1    C3 2887   1.459   1.368   6.916 -0.2375 -0.0278  0.3308
   40CHL1    H3 2888   1.387   1.291   6.950  0.3225 -0.3935  0.6922
   40CHL1    O3 2889   1.452   1.375   6.776  0.4463 -0.0934  0.2779
   40CHL1   H3' 2890   1.529   1.423   6.743 -0.5922  0.6605 -1.1729
   40CHL1    C4 2891   1.428   1.510   6.962  0.3840 -0.2404 -0.3701
   40CHL1   H4A 2892   1.500   1.574   6.906 -0.2741 -0.5973 -1.6666
   40CHL1   H4B 2893   1.326   1.530   6.922  1.1341 -2.2116 -3.7405
   40CHL1    C5 2894   1.443   1.525   7.110 -0.0488  0.5935  0.1204
   40CHL1    C6 2895   1.339   1.577   7.179 -0.7724  0.8783  0.3334
   40CHL1    H6 2896   1.245   1.604   7.129 -0.0617  0.4898 -1.3052
   40CHL1    C7 2897   1.338   1.619   7.322 -0.0876 -0.4685 -0.1595
   40CHL1   H7A 2898   1.291   1.716   7.348 -0.0322 -0.8834  1.6182
   40CHL1   H7B 2899   1.274   1.543   7.372  0.9043 -1.5768 -0.5254
   40CHL1    C8 2900   1.489   1.617   7.381  0.7843 -1.0794  0.7645
   40CHL1    H8 2901   1.542   1.708   7.345  1.7261 -2.0621 -0.4514
   40CHL1   C14 2902   1.495   1.612   7.529 -0.0414  0.0263 -0.0934
   40CHL1   H14 2903   1.439   1.518   7.552  0.1333  0.3518  1.8742
   40CHL1   C15 2904   1.418   1.719   7.617  0.3193  0.1120 -0.1708
   40CHL1  H15A 2905   1.443   1.823   7.586  1.8144 -0.4287 -0.8807
   40CHL1  H15B 2906   1.309   1.714   7.598  0.4778  0.0683 -1.1503
   40CHL1   C16 2907   1.461   1.705   7.759  0.0519  0.0619 -0.7865
   40CHL1  H16A 2908   1.491   1.808   7.789 -0.3765 -0.4099  1.4538
   40CHL1  H16B 2909   1.377   1.662   7.818 -1.3753  2.4143 -0.9792
   40CHL1   C17 2910   1.586   1.611   7.750  0.4246  0.1365  0.0287
   40CHL1   H17 2911   1.545   1.511   7.777  1.3092 -0.2830 -0.1736
   40CHL1   C13 2912   1.624   1.605   7.602  0.5463 -0.5723  1.1468
   40CHL1   C18 2913   1.696   1.734   7.564 -0.6166 -0.3173  0.3870
   40CHL1  H18A 2914   1.690   1.759   7.456 -0.2143  4.2150  1.2253
   40CHL1  H18B 2915   1.658   1.826   7.613  1.2849 -0.3513  2.0494
   40CHL1  H18C 2916   1.799   1.727   7.606 -1.6013  2.6335  3.7696
   40CHL1   C12 2917   1.700   1.481   7.549  0.1085 -0.0186  0.0334
   40CHL1  H12A 2918   1.806   1.472   7.579  0.3187  0.2289 -0.6108
   40CHL1  H12B 2919   1.649   1.384   7.567  0.7476 -0.4112 -0.2285
   40CHL1   C11 2920   1.702   1.482   7.394 -0.1068 -0.3052 -0.2551
   40CHL1  H11A 2921   1.763   1.569   7.360  1.1615 -0.9681  0.2538
   40CHL1  H11B 2922   1.747   1.385   7.363 -1.4512 -1.3155  0.8393
   40CHL1    C9 2923   1.570   1.496   7.326 -0.3113 -0.5704 -0.0046
   40CHL1    H9 2924   1.504   1.413   7.359  1.2238 -0.8544  2.5784
   40CHL1   C10 2925   1.583   1.482   7.170  0.2098 -0.3445 -0.1954
   40CHL1   C19 2926   1.684   1.581   7.118  0.2301 -1.1625 -0.6761
   40CHL1  H19A 2927   1.669   1.681   7.162  0.1530 -1.3671 -0.2303
   40CHL1  H19B 2928   1.788   1.552   7.146  0.5756  0.6768  0.0516
   40CHL1  H19C 2929   1.680   1.597   7.008 -1.3109  1.0708 -0.3451
   40CHL1    C1 2930   1.620   1.346   7.122 -0.3931 -0.0398  1.4746
   40CHL1   H1A 2931   1.723   1.312   7.147  0.3996 -1.1491 -2.5160
   40CHL1   H1B 2932   1.550   1.280   7.178 -1.5774  1.9008  2.3822
   40CHL1    C2 2933   1.602   1.323   6.966 -0.5910  0.8894  0.6677
   40CHL1   H2A 2934   1.619   1.215   6.945 -0.3654  1.1191 -0.3790
   40CHL1   H2B 2935   1.677   1.383   6.909  1.0167 -0.6403  1.0731
   40CHL1   C20 2936   1.688   1.642   7.859  0.2605  0.4406  0.2340
   40CHL1   H20 2937   1.733   1.742   7.839 -1.2539  1.0790 -0.1536
   40CHL1   C21 2938   1.789   1.522   7.867  0.8101  0.1260 -0.1636
   40CHL1  H21A 2939   1.836   1.535   7.967  0.6358  1.3982 -0.2331
   40CHL1  H21B 2940   1.857   1.512   7.780  0.5076  0.8552 -0.4962
   40CHL1  H21C 2941   1.735   1.427   7.880  2.9224 -1.0053  1.0578
   40CHL1   C22 2942   1.621   1.657   8.003 -0.1465 -0.2939 -0.6135
   40CHL1  H22A 2943   1.702   1.702   8.065 -0.3118  2.5874 -2.2953
   40CHL1  H22B 2944   1.547   1.739   7.995 -1.3551 -1.2695  0.1699
   40CHL1   C23 2945   1.553   1.538   8.073  0.1491 -0.1222 -0.2051
   40CHL1  H23A 2946   1.455   1.531   8.022 -0.9380 -1.1210  1.8909
   40CHL1  H23B 2947   1.607   1.441   8.073  0.3608 -0.0154  1.0239
   40CHL1   C24 2948   1.507   1.564   8.218  0.0671  0.0566 -0.6475
   40CHL1  H24A 2949   1.591   1.585   8.287  1.3767 -1.7977 -1.5948
   40CHL1  H24B 2950   1.452   1.661   8.214  1.5109  1.0299  1.4260
   40CHL1   C25 2951   1.434   1.452   8.292  0.2808 -0.2515  0.0699
   40CHL1   H25 2952   1.383   1.388   8.217  0.6358  0.5548 -0.8845
   40CHL1   C26 2953   1.533   1.352   8.354 -0.0646  0.0261  0.3801
   40CHL1  H26A 2954   1.575   1.392   8.449 -0.1777 -0.8860  0.8213
   40CHL1  H26B 2955   1.492   1.255   8.389 -0.5192  1.1839  3.4565
   40CHL1  H26C 2956   1.615   1.329   8.283 -0.3143  0.0805  0.0696
   40CHL1   C27 2957   1.330   1.506   8.390 -0.2492 -0.3380  0.8313
   40CHL1  H27A 2958   1.368   1.559   8.481 -1.3384  1.0851  0.4950
   40CHL1  H27B 2959   1.245   1.554   8.337  0.3455 -0.4878 -0.2889
   40CHL1  H27C 2960   1.279   1.413   8.423 -1.5242 -0.4043 -1.1858
   41CHL1    C3 2961   6.170   1.677   6.959 -0.1241  0.3393  0.0599
   41CHL1    H3 2962   6.220   1.582   6.988  1.0808  0.6598 -0.8462
   41CHL1    O3 2963   6.120   1.670   6.825  0.2748  0.2276  0.3601
   41CHL1   H3' 2964   6.058   1.597   6.827  1.1387 -0.5680 -0.8706
   41CHL1    C4 2965   6.053   1.708   7.049  0.1407  0.7008 -0.4264
   41CHL1   H4A 2966   5.983   1.789   7.018 -1.5660 -0.2176  0.8716
   41CHL1   H4B 2967   5.995   1.614   7.049  2.9224 -1.1260 -0.7533
   41CHL1    C5 2968   6.095   1.729   7.192 -0.5309 -0.2118  0.2936
   41CHL1    C6 2969   6.064   1.647   7.290  0.4884 -0.9154 -0.2723
   41CHL1    H6 2970   5.998   1.560   7.284  1.4998 -1.7967  0.7934
   41CHL1    C7 2971   6.106   1.682   7.431  0.8447 -0.4475  0.0880
   41CHL1   H7A 2972   6.030   1.647   7.503  0.5351 -1.1541 -0.5668
   41CHL1   H7B 2973   6.194   1.617   7.453  2.0083  0.7775 -0.7229
   41CHL1    C8 2974   6.149   1.831   7.453  0.2118 -0.0240 -0.6185
   41CHL1    H8 2975   6.064   1.902   7.447 -0.0608 -0.1766  0.9906
   41CHL1   C14 2976   6.215   1.847   7.591 -0.2745  0.0575 -0.6082
   41CHL1   H14 2977   6.301   1.777   7.587  1.5584  2.2018 -0.8405
   41CHL1   C15 2978   6.132   1.805   7.711 -0.0515  0.1040  0.0399
   41CHL1  H15A 2979   6.046   1.872   7.691  1.1324  1.6322 -0.0520
   41CHL1  H15B 2980   6.102   1.698   7.713 -1.7029  0.5107 -0.8144
   41CHL1   C16 2981   6.218   1.857   7.826 -0.0537 -0.4355  0.2172
   41CHL1  H16A 2982   6.149   1.912   7.893 -0.4478  1.1790 -1.4339
   41CHL1  H16B 2983   6.257   1.781   7.897 -1.2563 -0.1456  1.2166
   41CHL1   C17 2984   6.324   1.953   7.766  0.0851  0.1093  0.0449
   41CHL1   H17 2985   6.415   1.891   7.748  1.1230  1.9460 -1.4338
   41CHL1   C13 2986   6.280   1.982   7.623 -0.5360  0.0222 -0.0156
   41CHL1   C18 2987   6.179   2.107   7.621 -0.6550 -0.5556  0.6208
   41CHL1  H18A 2988   6.135   2.119   7.520 -0.2140 -1.2493  0.3440
   41CHL1  H18B 2989   6.098   2.097   7.697 -0.5079  0.8581  0.9828
   41CHL1  H18C 2990   6.219   2.207   7.647 -0.9776 -0.6766  1.6342
   41CHL1   C12 2991   6.388   2.007   7.518 -0.5557  0.3944  0.2451
   41CHL1  H12A 2992   6.440   2.102   7.544  0.3735 -0.3228  1.0548
   41CHL1  H12B 2993   6.471   1.935   7.530 -0.4325  0.5686  0.4681
   41CHL1   C11 2994   6.335   2.001   7.377  0.7356  0.3346 -0.6147
   41CHL1  H11A 2995   6.257   2.079   7.365 -0.7710 -0.9683  0.2276
   41CHL1  H11B 2996   6.422   2.024   7.313  0.7510  1.4369 -0.2162
   41CHL1    C9 2997   6.256   1.859   7.351  0.1801 -0.6348  0.6401
   41CHL1    H9 2998   6.330   1.777   7.363  0.8743 -0.3938 -1.6387
   41CHL1   C10 2999   6.195   1.845   7.207 -0.5609  0.3772  0.0335
   41CHL1   C19 3000   6.127   1.979   7.177 -0.1714 -0.5212 -0.3094
   41CHL1  H19A 3001   6.059   1.961   7.091  1.5538 -0.0566 -1.8343
   41CHL1  H19B 3002   6.079   2.031   7.262  1.2679 -0.2873  0.3849
   41CHL1  H19C 3003   6.209   2.044   7.141  1.1896  0.2035  3.6102
   41CHL1    C1 3004   6.310   1.817   7.104 -0.6159 -0.3132  0.2256
   41CHL1   H1A 3005   6.374   1.908   7.106 -0.2376 -0.5400 -0.9283
   41CHL1   H1B 3006   6.375   1.735   7.140  2.0565  0.7876 -1.6753
   41CHL1    C2 3007   6.276   1.783   6.957 -0.4558  0.1091 -0.2005
   41CHL1   H2A 3008   6.377   1.761   6.916 -0.0090  1.4585  0.1146
   41CHL1   H2B 3009   6.235   1.871   6.904  0.7163  0.8191  0.0260
   41CHL1   C20 3010   6.366   2.073   7.857  0.2843 -0.6419  0.2054
   41CHL1   H20 3011   6.287   2.151   7.865  3.0070  2.1767  2.3936
   41CHL1   C21 3012   6.492   2.147   7.798 -0.5513 -0.2997 -0.2047
   41CHL1  H21A 3013   6.527   2.227   7.866 -0.6182 -0.8681  0.5123
   41CHL1  H21B 3014   6.469   2.191   7.698  0.5255 -1.8462 -1.1699
   41CHL1  H21C 3015   6.573   2.071   7.803  0.5590  0.8989  3.5620
   41CHL1   C22 3016   6.400   2.024   7.996 -0.2646 -0.1719 -0.2161
   41CHL1  H22A 3017   6.301   2.001   8.042 -0.3347 -2.3562 -1.3356
   41CHL1  H22B 3018   6.451   1.925   7.994 -2.3608 -1.3418  0.1568
   41CHL1   C23 3019   6.468   2.119   8.091 -0.4358  0.3032  0.4054
   41CHL1  H23A 3020   6.574   2.138   8.063 -0.2017 -0.6888  0.5839
   41CHL1  H23B 3021   6.417   2.217   8.082 -0.4032  0.2346 -0.7398
   41CHL1   C24 3022   6.465   2.075   8.237 -0.2596  0.3545 -0.3895
   41CHL1  H24A 3023   6.383   2.002   8.250  0.7789 -0.8249 -0.3208
   41CHL1  H24B 3024   6.554   2.015   8.264 -0.0021  0.8081 -0.2103
   41CHL1   C25 3025   6.438   2.185   8.343  0.0122  0.2287  0.3135
   41CHL1   H25 3026   6.460   2.119   8.429  1.7849 -1.0002 -1.0016
   41CHL1   C26 3027   6.534   2.299   8.330  0.8945  0.0173  0.1688
   41CHL1  H26A 3028   6.521   2.380   8.404 -0.4446 -0.2451  0.2338
   41CHL1  H26B 3029   6.644   2.282   8.330  0.9799  0.5397  0.9986
   41CHL1  H26C 3030   6.525   2.348   8.231  0.9842 -0.3071 -0.0021
   41CHL1   C27 3031   6.290   2.230   8.328 -0.3614  0.2282  0.1302
   41CHL1  H27A 3032   6.273   2.269   8.225  3.2748 -0.9512 -1.0675
   41CHL1  H27B 3033   6.224   2.142   8.347  1.3834 -0.7682  1.8916
   41CHL1  H27C 3034   6.268   2.312   8.399 -0.7007 -0.5270  0.9104
   42CHL1    C3 3035   2.640   5.462   6.951  0.2475  0.0306  0.3975
   42CHL1    H3 3036   2.743   5.426   6.970  0.1209 -1.2009 -1.1172
   42CHL1    O3 3037   2.618   5.460   6.808 -0.3754  0.2130 -0.5921
   42CHL1   H3' 3038   2.550   5.526   6.789  0.3450  1.2539  0.3352
   42CHL1    C4 3039   2.535   5.375   7.024 -0.0043  0.4684  0.0489
   42CHL1   H4A 3040   2.433   5.388   6.982  0.0964  1.9837  0.2048
   42CHL1   H4B 3041   2.560   5.268   7.008 -0.5516  0.2489  0.6071
   42CHL1    C5 3042   2.515   5.391   7.176  0.6420 -0.9265  0.0274
   42CHL1    C6 3043   2.504   5.287   7.256  0.3810  0.3048 -0.6756
   42CHL1    H6 3044   2.506   5.190   7.205  0.0900 -0.7169  1.1673
   42CHL1    C7 3045   2.498   5.294   7.408  0.1039  0.1206  0.2519
   42CHL1   H7A 3046   2.417   5.230   7.448 -2.8382  2.1940 -2.0028
   42CHL1   H7B 3047   2.592   5.250   7.449  0.5473 -1.4194 -2.1929
   42CHL1    C8 3048   2.480   5.434   7.456 -0.0312 -1.1182 -0.3276
   42CHL1    H8 3049   2.373   5.463   7.445  0.6119  1.4675 -0.6074
   42CHL1   C14 3050   2.507   5.447   7.605 -0.3866 -0.6577  0.0618
   42CHL1   H14 3051   2.617   5.436   7.612 -0.2842  0.5000  0.5033
   42CHL1   C15 3052   2.437   5.344   7.687  0.5243  0.2679 -0.2539
   42CHL1  H15A 3053   2.330   5.338   7.658  0.8489  0.8824 -1.6397
   42CHL1  H15B 3054   2.483   5.244   7.671  0.0433 -0.0573  0.3260
   42CHL1   C16 3055   2.460   5.390   7.831 -0.1299 -0.6462  0.6663
   42CHL1  H16A 3056   2.364   5.396   7.886  0.5580  0.3225  1.8239
   42CHL1  H16B 3057   2.525   5.322   7.891 -0.0709  0.4560  1.9081
   42CHL1   C17 3058   2.527   5.531   7.825 -0.3339  0.0887 -0.7781
   42CHL1   H17 3059   2.637   5.518   7.832 -0.2972  1.1493  1.1884
   42CHL1   C13 3060   2.490   5.576   7.679  0.2862 -0.4056  0.1660
   42CHL1   C18 3061   2.341   5.620   7.682  0.1981 -0.2760  0.0980
   42CHL1  H18A 3062   2.278   5.548   7.739 -2.8966  2.1174 -0.0412
   42CHL1  H18B 3063   2.331   5.724   7.720 -1.4143  0.6872 -2.6618
   42CHL1  H18C 3064   2.298   5.627   7.580 -0.2734 -0.4513  0.2829
   42CHL1   C12 3065   2.574   5.681   7.596  0.0730 -0.2253 -0.0689
   42CHL1  H12A 3066   2.558   5.784   7.636  1.7690  0.2093 -0.4108
   42CHL1  H12B 3067   2.684   5.671   7.613 -0.0625 -1.2656  0.2543
   42CHL1   C11 3068   2.551   5.671   7.440  0.1873 -0.2497 -0.2247
   42CHL1  H11A 3069   2.448   5.709   7.425  0.7135  1.5795  0.5218
   42CHL1  H11B 3070   2.614   5.749   7.392  0.3562  0.1905  0.6814
   42CHL1    C9 3071   2.561   5.533   7.383  0.1271  0.1227 -0.1939
   42CHL1    H9 3072   2.668   5.503   7.391 -0.3684 -1.9489 -0.6834
   42CHL1   C10 3073   2.529   5.537   7.233 -0.5484 -0.6448 -0.0741
   42CHL1   C19 3074   2.387   5.602   7.206  0.1640  0.3965 -0.5774
   42CHL1  H19A 3075   2.406   5.712   7.205 -0.9832  0.6484  1.1991
   42CHL1  H19B 3076   2.345   5.572   7.108 -0.6153  1.1760 -0.4945
   42CHL1  H19C 3077   2.312   5.583   7.285  0.3234  1.9640 -0.0044
   42CHL1    C1 3078   2.649   5.612   7.155 -0.4801  0.1271 -0.1382
   42CHL1   H1A 3079   2.664   5.719   7.181  3.4538 -0.2152 -0.3893
   42CHL1   H1B 3080   2.754   5.582   7.178  0.1777  1.6633 -0.9666
   42CHL1    C2 3081   2.636   5.608   6.997 -0.1293  0.2294 -0.0827
   42CHL1   H2A 3082   2.720   5.673   6.966 -0.1437  0.0242 -0.5764
   42CHL1   H2B 3083   2.542   5.665   6.977  1.7395  3.9339  0.8961
   42CHL1   C20 3084   2.510   5.626   7.951  0.1225  0.1977 -0.2423
   42CHL1   H20 3085   2.406   5.665   7.959  0.6510  1.4932  0.7889
   42CHL1   C21 3086   2.604   5.741   7.933 -0.0165  0.0500  0.0154
   42CHL1  H21A 3087   2.587   5.811   7.848  2.2607 -1.2172 -1.5792
   42CHL1  H21B 3088   2.706   5.702   7.910  0.0147  0.1752 -0.0608
   42CHL1  H21C 3089   2.610   5.814   8.016  0.2203  0.9682 -0.7916
   42CHL1   C22 3090   2.529   5.563   8.094 -0.2252  0.1382 -0.0452
   42CHL1  H22A 3091   2.465   5.472   8.092 -0.4294  0.2525  0.8455
   42CHL1  H22B 3092   2.634   5.550   8.127 -0.4828 -0.3508  0.6156
   42CHL1   C23 3093   2.464   5.644   8.208  0.5104  0.2783  0.5566
   42CHL1  H23A 3094   2.522   5.736   8.233 -0.9476  1.1999  0.6191
   42CHL1  H23B 3095   2.367   5.683   8.172  0.4746 -0.3754 -0.0613
   42CHL1   C24 3096   2.443   5.572   8.341 -0.5510  0.6919 -0.1048
   42CHL1  H24A 3097   2.373   5.489   8.317 -0.4573 -0.5823  3.4111
   42CHL1  H24B 3098   2.545   5.540   8.372 -0.7303  1.4345  1.3494
   42CHL1   C25 3099   2.369   5.651   8.449  0.0748 -0.3012 -0.0440
   42CHL1   H25 3100   2.283   5.697   8.397  0.8539  1.3000  0.0206
   42CHL1   C26 3101   2.311   5.558   8.557  0.4589  0.1905 -0.2313
   42CHL1  H26A 3102   2.392   5.496   8.601  2.1728  0.8964 -2.2252
   42CHL1  H26B 3103   2.251   5.616   8.631 -2.0617 -1.8755 -0.5083
   42CHL1  H26C 3104   2.242   5.486   8.508  2.3977 -1.8272 -0.1718
   42CHL1   C27 3105   2.449   5.769   8.513 -0.0632 -0.6885 -0.3703
   42CHL1  H27A 3106   2.461   5.852   8.439 -0.8287 -1.8812 -1.8801
   42CHL1  H27B 3107   2.546   5.731   8.552 -0.3632  1.1019  2.4695
   42CHL1  H27C 3108   2.383   5.812   8.592  1.1840  1.5019 -0.4179
   43CHL1    C3 3109   1.381   2.510   6.637  0.6166 -0.3335  0.9013
   43CHL1    H3 3110   1.359   2.619   6.626  0.4838 -0.3626  0.8775
   43CHL1    O3 3111   1.338   2.447   6.521 -0.2260 -0.2558 -0.6345
   43CHL1   H3' 3112   1.380   2.362   6.531  0.4353  0.1582  0.2515
   43CHL1    C4 3113   1.537   2.494   6.659 -0.3738 -0.2012  0.4407
   43CHL1   H4A 3114   1.550   2.384   6.658 -1.0617 -0.2812 -0.2447
   43CHL1   H4B 3115   1.587   2.534   6.569  0.0299  0.8747  1.1266
   43CHL1    C5 3116   1.566   2.558   6.788 -1.1224  0.2213 -0.6609
   43CHL1    C6 3117   1.664   2.649   6.806 -0.1507 -0.7685  0.0569
   43CHL1    H6 3118   1.722   2.680   6.718  0.8152  0.4819  1.1055
   43CHL1    C7 3119   1.704   2.723   6.935  0.4382  0.5658  1.2037
   43CHL1   H7A 3120   1.813   2.744   6.935  0.5814  0.2474 -1.7877
   43CHL1   H7B 3121   1.656   2.823   6.935  2.5120  1.6100  1.7460
   43CHL1    C8 3122   1.667   2.632   7.055 -0.1392 -0.1850  0.6624
   43CHL1    H8 3123   1.745   2.554   7.043  1.4100  1.6033 -1.7621
   43CHL1   C14 3124   1.678   2.711   7.192  0.1900  0.5825 -0.0217
   43CHL1   H14 3125   1.600   2.789   7.183 -0.2874  0.2254  0.8730
   43CHL1   C15 3126   1.816   2.780   7.211  0.2748  0.3661  0.3795
   43CHL1  H15A 3127   1.902   2.730   7.161 -1.3728 -2.7077  0.3895
   43CHL1  H15B 3128   1.807   2.882   7.168  1.7199  0.1421 -0.5228
   43CHL1   C16 3129   1.828   2.781   7.365  0.8759  0.1985 -0.2300
   43CHL1  H16A 3130   1.927   2.737   7.389  1.1795 -0.4710 -2.4387
   43CHL1  H16B 3131   1.833   2.887   7.398  2.1402  0.0538  0.0885
   43CHL1   C17 3132   1.703   2.712   7.423 -0.7727 -1.0315  0.2645
   43CHL1   H17 3133   1.625   2.791   7.430  0.3729  0.0989  0.6847
   43CHL1   C13 3134   1.657   2.622   7.308 -0.0213 -0.2401 -0.2540
   43CHL1   C18 3135   1.750   2.499   7.308  0.0145  0.4955 -0.1827
   43CHL1  H18A 3136   1.707   2.425   7.379 -1.7715 -0.5207 -2.2163
   43CHL1  H18B 3137   1.749   2.451   7.208 -1.2217  1.2742 -0.5606
   43CHL1  H18C 3138   1.854   2.530   7.334 -0.2574  1.5042 -0.2749
   43CHL1   C12 3139   1.513   2.587   7.308 -0.8816 -0.4436  0.7858
   43CHL1  H12A 3140   1.491   2.528   7.399  0.2011 -0.8591  0.7835
   43CHL1  H12B 3141   1.456   2.682   7.321  0.9855  1.2550 -2.2066
   43CHL1   C11 3142   1.469   2.518   7.178 -0.2166  0.5650 -0.3374
   43CHL1  H11A 3143   1.508   2.417   7.200 -0.2597  0.7243  0.5445
   43CHL1  H11B 3144   1.358   2.505   7.177 -0.3607  1.4388  1.1423
   43CHL1    C9 3145   1.519   2.580   7.045  0.1291  0.0586  0.2835
   43CHL1    H9 3146   1.458   2.673   7.037  0.9047  0.6351  0.9051
   43CHL1   C10 3147   1.494   2.504   6.911  0.1595  1.3835  0.1792
   43CHL1   C19 3148   1.511   2.349   6.938 -0.2678 -0.1366  0.1697
   43CHL1  H19A 3149   1.452   2.316   7.026 -0.4736 -0.9604 -0.2681
   43CHL1  H19B 3150   1.473   2.298   6.847  0.8241  0.5831 -0.7170
   43CHL1  H19C 3151   1.615   2.316   6.959 -0.9768 -0.9500  2.7724
   43CHL1    C1 3152   1.340   2.526   6.876  0.4095  0.2445 -0.6737
   43CHL1   H1A 3153   1.283   2.495   6.966  0.2329 -0.2909 -0.9642
   43CHL1   H1B 3154   1.327   2.637   6.869  2.5286  0.6232  0.6375
   43CHL1    C2 3155   1.294   2.460   6.754 -0.2394 -0.3561 -0.3923
   43CHL1   H2A 3156   1.188   2.483   6.730  0.6087  2.3448 -1.9214
   43CHL1   H2B 3157   1.299   2.349   6.766 -2.1395 -0.3705  0.5607
   43CHL1   C20 3158   1.715   2.663   7.576  0.0577 -0.1534  0.0372
   43CHL1   H20 3159   1.788   2.579   7.580 -0.2489 -0.4817 -1.0097
   43CHL1   C21 3160   1.581   2.619   7.643 -0.4496  0.5292  0.3733
   43CHL1  H21A 3161   1.551   2.522   7.597  2.1038  0.2405 -0.8389
   43CHL1  H21B 3162   1.499   2.689   7.618 -0.7337 -0.1850 -0.7425
   43CHL1  H21C 3163   1.599   2.611   7.753 -2.6327 -0.0419  0.7442
   43CHL1   C22 3164   1.753   2.788   7.666  0.2330 -0.3123 -0.5848
   43CHL1  H22A 3165   1.837   2.836   7.611 -1.2168  1.3631 -1.4019
   43CHL1  H22B 3166   1.665   2.855   7.666 -0.2845 -0.9760 -0.0876
   43CHL1   C23 3167   1.829   2.751   7.790 -1.2495 -0.1159 -0.4492
   43CHL1  H23A 3168   1.858   2.845   7.842  1.1774 -1.6646  1.2241
   43CHL1  H23B 3169   1.768   2.689   7.858 -0.2258 -1.1674 -0.4604
   43CHL1   C24 3170   1.966   2.693   7.756  0.0129  0.4396 -0.3596
   43CHL1  H24A 3171   1.968   2.642   7.657  4.6773 -1.6851  0.5795
   43CHL1  H24B 3172   2.044   2.770   7.743  1.5508 -1.0854 -0.4983
   43CHL1   C25 3173   2.023   2.602   7.870  0.1708  0.0827  0.4754
   43CHL1   H25 3174   2.014   2.654   7.968  1.0749  1.3311 -0.0701
   43CHL1   C26 3175   1.943   2.469   7.866  0.4200  0.4513  0.0179
   43CHL1  H26A 3176   1.944   2.408   7.959 -1.4392  0.8394  0.3294
   43CHL1  H26B 3177   1.833   2.486   7.865  0.4648  0.7633 -1.0645
   43CHL1  H26C 3178   1.961   2.407   7.776 -2.7310  0.8785 -1.0050
   43CHL1   C27 3179   2.165   2.565   7.845 -0.5394  0.5184  0.0802
   43CHL1  H27A 3180   2.223   2.659   7.857 -0.2618  0.2608  0.8199
   43CHL1  H27B 3181   2.200   2.497   7.925  1.1797  1.6015  0.3054
   43CHL1  H27C 3182   2.177   2.526   7.742 -0.3706  0.5839  0.0745
   44CHL1    C3 3183   2.593   1.595   6.537 -0.4399  0.3858 -0.2602
   44CHL1    H3 3184   2.502   1.534   6.557 -1.0625  1.4445  0.1998
   44CHL1    O3 3185   2.618   1.588   6.400 -0.2867  0.2729  0.2666
   44CHL1   H3' 3186   2.546   1.635   6.357  1.5623  1.2797 -1.9465
   44CHL1    C4 3187   2.554   1.745   6.583 -1.0006 -0.4539 -0.1317
   44CHL1   H4A 3188   2.642   1.809   6.559 -2.9707  2.2074 -0.7009
   44CHL1   H4B 3189   2.462   1.773   6.528 -0.4669  1.4809 -0.1283
   44CHL1    C5 3190   2.537   1.754   6.738  0.4172  0.7634  0.2631
   44CHL1    C6 3191   2.424   1.818   6.791 -1.0914 -0.2162 -0.9638
   44CHL1    H6 3192   2.362   1.857   6.709 -0.6664 -0.9434 -1.6450
   44CHL1    C7 3193   2.410   1.842   6.942 -0.0997  1.4261  0.7182
   44CHL1   H7A 3194   2.377   1.947   6.961  2.3952  2.7198 -1.4289
   44CHL1   H7B 3195   2.332   1.776   6.985 -3.6869  4.3040 -0.7744
   44CHL1    C8 3196   2.544   1.808   7.018  0.1456  0.8282  0.0175
   44CHL1    H8 3197   2.623   1.884   6.999 -0.0525  0.9479 -0.3373
   44CHL1   C14 3198   2.512   1.792   7.165  0.2502  0.3771 -0.2454
   44CHL1   H14 3199   2.448   1.701   7.163  1.6817 -0.7044  0.5792
   44CHL1   C15 3200   2.415   1.896   7.237  0.3696 -0.4825 -0.8135
   44CHL1  H15A 3201   2.437   1.996   7.193  0.8274 -0.0309  0.3919
   44CHL1  H15B 3202   2.309   1.871   7.215  0.1651 -1.0658  0.7278
   44CHL1   C16 3203   2.455   1.889   7.380 -0.0714 -0.4550  0.0279
   44CHL1  H16A 3204   2.505   1.982   7.414 -0.0023 -1.7185  3.7776
   44CHL1  H16B 3205   2.369   1.875   7.449  0.6281  1.2197  1.2943
   44CHL1   C17 3206   2.555   1.770   7.396 -0.5818  0.0150 -0.4495
   44CHL1   H17 3207   2.488   1.682   7.403  0.9461 -1.0393  3.5481
   44CHL1   C13 3208   2.621   1.753   7.259 -0.0707 -0.3252  0.6775
   44CHL1   C18 3209   2.728   1.876   7.246  0.2200  0.2854 -0.2215
   44CHL1  H18A 3210   2.809   1.863   7.321 -0.3298  2.2411  0.7857
   44CHL1  H18B 3211   2.789   1.880   7.153  1.1113 -0.0245  0.3344
   44CHL1  H18C 3212   2.676   1.972   7.266 -0.4526  0.3082 -1.9286
   44CHL1   C12 3213   2.671   1.615   7.216  0.2774 -0.8034  0.5095
   44CHL1  H12A 3214   2.762   1.590   7.275 -0.8515  0.4120  2.8934
   44CHL1  H12B 3215   2.590   1.541   7.235  0.4916 -1.2994 -0.4210
   44CHL1   C11 3216   2.717   1.624   7.065  0.1410  0.1587  0.3705
   44CHL1  H11A 3217   2.802   1.696   7.070 -0.7408  1.1805  1.0844
   44CHL1  H11B 3218   2.750   1.525   7.026 -1.7993 -0.6900  0.7829
   44CHL1    C9 3219   2.610   1.676   6.967  0.4317  0.6739 -0.0743
   44CHL1    H9 3220   2.532   1.600   6.987 -0.8352  1.5420 -1.4413
   44CHL1   C10 3221   2.643   1.681   6.820  0.5905 -0.7493 -0.2484
   44CHL1   C19 3222   2.764   1.777   6.802 -0.8646 -0.2965 -0.6859
   44CHL1  H19A 3223   2.852   1.734   6.854 -0.4579  2.4015  0.9997
   44CHL1  H19B 3224   2.800   1.787   6.697  0.3816 -1.2631 -0.3749
   44CHL1  H19C 3225   2.748   1.879   6.841  1.0056 -0.4872  0.7265
   44CHL1    C1 3226   2.678   1.549   6.765  0.5691 -0.4062 -0.1226
   44CHL1   H1A 3227   2.772   1.516   6.814  0.3637  0.1620  0.6677
   44CHL1   H1B 3228   2.587   1.486   6.777  0.0872  0.5529  1.5904
   44CHL1    C2 3229   2.713   1.551   6.616  0.1488  0.3149  1.1903
   44CHL1   H2A 3230   2.733   1.450   6.575 -3.0024 -0.0360  0.2031
   44CHL1   H2B 3231   2.800   1.618   6.597  0.0230 -0.0721 -1.1361
   44CHL1   C20 3232   2.638   1.786   7.522 -0.0533 -0.9281 -0.8740
   44CHL1   H20 3233   2.699   1.878   7.508 -0.3098 -0.7054 -0.5490
   44CHL1   C21 3234   2.749   1.684   7.520  0.9953 -0.1204  0.2208
   44CHL1  H21A 3235   2.703   1.583   7.529 -0.6079  0.6207  0.9145
   44CHL1  H21B 3236   2.819   1.702   7.603  0.4808  0.6451  0.5020
   44CHL1  H21C 3237   2.801   1.697   7.423 -1.4383  2.3635 -0.9066
   44CHL1   C22 3238   2.553   1.784   7.653  0.1991 -1.0063  0.0049
   44CHL1  H22A 3239   2.472   1.860   7.647  1.6211  0.5074 -0.8554
   44CHL1  H22B 3240   2.508   1.683   7.657 -2.0884 -0.1673 -1.7771
   44CHL1   C23 3241   2.638   1.808   7.783  0.1023  0.0280 -0.1643
   44CHL1  H23A 3242   2.687   1.709   7.797  0.0997 -0.0405 -0.6288
   44CHL1  H23B 3243   2.706   1.896   7.770 -0.5423  0.7128  0.9261
   44CHL1   C24 3244   2.556   1.834   7.918 -0.5329 -0.0741 -0.1336
   44CHL1  H24A 3245   2.488   1.921   7.900  0.2550  0.2758 -1.5902
   44CHL1  H24B 3246   2.488   1.752   7.951  0.1942 -0.9616 -0.8018
   44CHL1   C25 3247   2.646   1.861   8.035  0.8198 -1.6803  0.1798
   44CHL1   H25 3248   2.714   1.943   8.005  0.3811 -1.2452  0.3586
   44CHL1   C26 3249   2.561   1.913   8.156 -0.4410  0.1428  0.3805
   44CHL1  H26A 3250   2.641   1.936   8.230  0.0303  1.0505 -0.3813
   44CHL1  H26B 3251   2.490   1.997   8.136 -0.4473 -0.1418 -0.9196
   44CHL1  H26C 3252   2.501   1.827   8.192 -0.1121 -0.8353 -1.2972
   44CHL1   C27 3253   2.739   1.748   8.072  0.0543 -0.0373  0.1608
   44CHL1  H27A 3254   2.795   1.760   8.167 -0.6121  1.1113  0.4209
   44CHL1  H27B 3255   2.680   1.653   8.071  0.5144 -0.3331  0.9232
   44CHL1  H27C 3256   2.814   1.728   7.992  0.0742 -0.9613  0.3970
   45CHL1    C3 3257   4.296   6.188   6.624  0.6929  0.3068  0.5638
   45CHL1    H3 3258   4.275   6.297   6.627  0.8558  0.3660 -0.2594
   45CHL1    O3 3259   4.309   6.152   6.485  0.0679  0.1092 -0.5584
   45CHL1   H3' 3260   4.235   6.199   6.446  0.2437  0.8853  0.0157
   45CHL1    C4 3261   4.424   6.157   6.688  0.1007  0.0283 -0.2200
   45CHL1   H4A 3262   4.455   6.051   6.672  1.1664  0.0929  1.2012
   45CHL1   H4B 3263   4.498   6.216   6.629  1.2742 -1.3083 -0.1378
   45CHL1    C5 3264   4.419   6.194   6.835  0.0489  0.8764 -0.1028
   45CHL1    C6 3265   4.500   6.289   6.891  0.6339  0.3695 -0.0960
   45CHL1    H6 3266   4.571   6.351   6.833 -0.6660 -0.5564 -2.8341
   45CHL1    C7 3267   4.512   6.298   7.041  0.8248  0.9047  0.8024
   45CHL1   H7A 3268   4.618   6.289   7.072  0.9089  1.3891  0.6613
   45CHL1   H7B 3269   4.477   6.403   7.055  3.0387  1.5688  1.7212
   45CHL1    C8 3270   4.425   6.201   7.128  0.1158 -0.2026  0.5557
   45CHL1    H8 3271   4.494   6.114   7.136  2.1479  1.2425 -0.2950
   45CHL1   C14 3272   4.405   6.249   7.270 -0.0534  0.8657  0.6663
   45CHL1   H14 3273   4.351   6.344   7.250 -0.8286  0.2597 -0.2427
   45CHL1   C15 3274   4.528   6.307   7.341  0.2005  0.2101 -0.1459
   45CHL1  H15A 3275   4.619   6.245   7.326 -1.6464 -2.5748 -0.5873
   45CHL1  H15B 3276   4.547   6.412   7.310  1.1302  0.3693  0.8712
   45CHL1   C16 3277   4.480   6.312   7.487 -0.0266  0.0272 -0.1571
   45CHL1  H16A 3278   4.557   6.265   7.553 -0.0373  0.2983  0.0525
   45CHL1  H16B 3279   4.466   6.418   7.519 -2.0060 -0.9050  2.4416
   45CHL1   C17 3280   4.338   6.238   7.494  0.4014 -0.3977  0.2734
   45CHL1   H17 3281   4.270   6.323   7.470  0.6853  0.0623  1.0528
   45CHL1   C13 3282   4.330   6.155   7.365  0.0879  0.4569  0.3554
   45CHL1   C18 3283   4.400   6.020   7.380  0.1411 -0.2030 -0.2879
   45CHL1  H18A 3284   4.399   5.950   7.294 -1.0938  0.0342 -0.4948
   45CHL1  H18B 3285   4.502   6.032   7.421  0.0235  0.2451 -0.1204
   45CHL1  H18C 3286   4.351   5.965   7.463 -1.0919 -0.1610 -0.9460
   45CHL1   C12 3287   4.194   6.137   7.292 -0.0920  0.2894 -0.8010
   45CHL1  H12A 3288   4.129   6.070   7.352  1.1729  1.5644  2.1804
   45CHL1  H12B 3289   4.140   6.234   7.287  0.6347  0.6972 -0.8030
   45CHL1   C11 3290   4.202   6.083   7.149  0.5384  0.7607  0.0567
   45CHL1  H11A 3291   4.230   5.976   7.148  0.2337  0.6475 -1.9446
   45CHL1  H11B 3292   4.103   6.072   7.100  1.7211 -0.6144 -2.1798
   45CHL1    C9 3293   4.292   6.172   7.056 -0.4802 -1.1318  0.0280
   45CHL1    H9 3294   4.237   6.266   7.036  0.5140 -1.1117 -3.1607
   45CHL1   C10 3295   4.307   6.114   6.910  0.2449 -0.1993 -0.8750
   45CHL1   C19 3296   4.366   5.964   6.915  0.2085 -0.2228 -0.3743
   45CHL1  H19A 3297   4.373   5.917   6.814 -1.4044  1.3521 -1.2692
   45CHL1  H19B 3298   4.465   5.967   6.966 -0.1845 -0.1802  0.4046
   45CHL1  H19C 3299   4.306   5.898   6.981 -1.3566  1.0091 -0.5196
   45CHL1    C1 3300   4.174   6.125   6.835 -0.6083 -0.2051  0.0423
   45CHL1   H1A 3301   4.095   6.052   6.866  0.0106 -0.9689 -0.1344
   45CHL1   H1B 3302   4.136   6.227   6.857  1.1975  0.0126  2.5799
   45CHL1    C2 3303   4.186   6.101   6.687 -0.1596 -0.5580  0.8617
   45CHL1   H2A 3304   4.085   6.117   6.644 -0.0941 -0.2739  0.8125
   45CHL1   H2B 3305   4.210   5.994   6.666  0.2980 -1.0032  3.3260
   45CHL1   C20 3306   4.314   6.180   7.633 -0.0759  0.4793 -0.9441
   45CHL1   H20 3307   4.396   6.108   7.652  0.6000  1.9478  2.5278
   45CHL1   C21 3308   4.184   6.101   7.650  0.1113  0.5239  0.0471
   45CHL1  H21A 3309   4.182   6.059   7.752 -0.3288  2.1401  0.7378
   45CHL1  H21B 3310   4.176   6.021   7.574  1.1602  0.6821 -0.2462
   45CHL1  H21C 3311   4.102   6.175   7.637 -0.7181 -0.3914 -0.0438
   45CHL1   C22 3312   4.332   6.289   7.738  0.0212  0.9124  0.6727
   45CHL1  H22A 3313   4.433   6.334   7.734  1.0102 -0.7690  3.6077
   45CHL1  H22B 3314   4.257   6.368   7.715 -1.8496 -1.0323 -0.2514
   45CHL1   C23 3315   4.310   6.247   7.894 -0.7518  0.3499  0.2980
   45CHL1  H23A 3316   4.208   6.205   7.888 -0.5459 -0.0096 -1.3074
   45CHL1  H23B 3317   4.388   6.171   7.915 -1.2375 -0.4290 -0.6496
   45CHL1   C24 3318   4.295   6.378   7.975 -0.5940  0.1133 -0.4623
   45CHL1  H24A 3319   4.379   6.450   7.960 -1.2278  0.5563 -2.0728
   45CHL1  H24B 3320   4.204   6.438   7.956  0.5574  1.8393 -0.8473
   45CHL1   C25 3321   4.283   6.342   8.125 -0.2962  0.0847 -0.2752
   45CHL1   H25 3322   4.377   6.285   8.139 -0.9375 -0.7322  0.7888
   45CHL1   C26 3323   4.287   6.465   8.217  0.1400 -0.3029  0.4330
   45CHL1  H26A 3324   4.262   6.442   8.323  0.0009  0.7962  0.6572
   45CHL1  H26B 3325   4.387   6.511   8.202 -0.3349  0.3906 -0.7097
   45CHL1  H26C 3326   4.224   6.551   8.185  0.0625  1.2055  4.1647
   45CHL1   C27 3327   4.157   6.259   8.152 -0.4018  0.9449  0.1150
   45CHL1  H27A 3328   4.137   6.251   8.261 -0.2469 -0.5072  0.0587
   45CHL1  H27B 3329   4.069   6.311   8.109 -1.5863 -1.6941 -0.8395
   45CHL1  H27C 3330   4.166   6.158   8.108 -2.2897  0.5549  0.5426
   46CHL1    C3 3331   3.522   1.729   6.839 -0.1093 -0.5007 -0.4256
   46CHL1    H3 3332   3.421   1.761   6.872  1.3163  3.0797  0.8682
   46CHL1    O3 3333   3.534   1.731   6.702  0.3473 -0.4386  0.4150
   46CHL1   H3' 3334   3.526   1.824   6.680 -2.2106 -1.2294 -2.7755
   46CHL1    C4 3335   3.628   1.824   6.904 -0.0006 -0.1845 -0.3727
   46CHL1   H4A 3336   3.733   1.797   6.877  0.5082 -1.4440  2.5082
   46CHL1   H4B 3337   3.613   1.924   6.857  1.1781 -0.3762 -1.2104
   46CHL1    C5 3338   3.621   1.828   7.053 -0.1861 -0.1253  0.4649
   46CHL1    C6 3339   3.587   1.933   7.124  0.2942  0.3724  0.2178
   46CHL1    H6 3340   3.571   2.025   7.065 -0.2937 -0.9036 -1.7051
   46CHL1    C7 3341   3.565   1.937   7.274  0.5812 -0.4493 -0.0588
   46CHL1   H7A 3342   3.584   2.040   7.312  0.9240 -1.1370  1.7380
   46CHL1   H7B 3343   3.455   1.927   7.279  0.3938 -0.2451 -2.7089
   46CHL1    C8 3344   3.644   1.825   7.347  0.8693  0.2709  0.5514
   46CHL1    H8 3345   3.752   1.850   7.350  1.0342 -0.3933  0.3492
   46CHL1   C14 3346   3.576   1.810   7.479 -0.5213  0.7404 -0.6342
   46CHL1   H14 3347   3.474   1.775   7.452  0.1199  0.7076 -3.3619
   46CHL1   C15 3348   3.554   1.933   7.571 -0.3738 -0.6367  0.2152
   46CHL1  H15A 3349   3.650   1.988   7.562 -1.0818  0.6556  0.2769
   46CHL1  H15B 3350   3.464   1.994   7.549  0.0111 -1.0614 -3.1658
   46CHL1   C16 3351   3.540   1.868   7.710  0.2354 -0.8770  0.2391
   46CHL1  H16A 3352   3.618   1.916   7.773  0.8711  1.0427 -1.8959
   46CHL1  H16B 3353   3.437   1.891   7.746  0.8300 -1.2379  2.2883
   46CHL1   C17 3354   3.563   1.716   7.699  0.3965  0.4272  0.1985
   46CHL1   H17 3355   3.463   1.669   7.689 -0.4987  2.1137  0.8277
   46CHL1   C13 3356   3.641   1.699   7.570  0.1830  0.2691 -0.9136
   46CHL1   C18 3357   3.796   1.733   7.599  0.1385  0.2877  0.6104
   46CHL1  H18A 3358   3.852   1.767   7.509 -0.8927 -2.4813 -1.1931
   46CHL1  H18B 3359   3.806   1.805   7.684  0.2977  0.9164  0.0645
   46CHL1  H18C 3360   3.840   1.640   7.641  0.3829  0.8434  1.6276
   46CHL1   C12 3361   3.621   1.567   7.495  0.7301  0.6793  0.7217
   46CHL1  H12A 3362   3.672   1.483   7.547  2.0975  1.5131  0.7631
   46CHL1  H12B 3363   3.512   1.545   7.488  1.0945 -0.8951 -1.1521
   46CHL1   C11 3364   3.670   1.569   7.352 -0.1271  0.2991 -0.0304
   46CHL1  H11A 3365   3.777   1.597   7.341 -0.7230  2.4631 -0.9900
   46CHL1  H11B 3366   3.635   1.473   7.309 -0.1072  0.1156  0.3661
   46CHL1    C9 3367   3.617   1.689   7.272  0.4735 -0.3534 -0.1742
   46CHL1    H9 3368   3.506   1.680   7.274  0.3532  0.9582  1.1262
   46CHL1   C10 3369   3.644   1.685   7.113 -0.8939 -0.1510 -0.4049
   46CHL1   C19 3370   3.792   1.646   7.088 -0.3239 -0.1535  0.8351
   46CHL1  H19A 3371   3.827   1.550   7.132  0.7888  0.3542  1.1199
   46CHL1  H19B 3372   3.818   1.630   6.981 -1.7014 -2.1538  0.7452
   46CHL1  H19C 3373   3.863   1.726   7.119  0.3247 -0.6386  0.6359
   46CHL1    C1 3374   3.559   1.576   7.041  0.0397  0.2912 -0.5682
   46CHL1   H1A 3375   3.585   1.472   7.070 -1.7505  0.0070  0.1442
   46CHL1   H1B 3376   3.456   1.595   7.078  1.6667  2.1903  3.5460
   46CHL1    C2 3377   3.551   1.586   6.890 -0.2148  0.4223  0.4922
   46CHL1   H2A 3378   3.476   1.510   6.856  0.6725  0.1429 -0.9231
   46CHL1   H2B 3379   3.651   1.568   6.847 -0.6947 -1.5818  0.0940
   46CHL1   C20 3380   3.621   1.649   7.832 -0.5392  0.4290  0.4969
   46CHL1   H20 3381   3.728   1.666   7.853 -0.6132 -2.2964  3.9335
   46CHL1   C21 3382   3.611   1.492   7.823  0.2120 -0.2044  0.3790
   46CHL1  H21A 3383   3.635   1.444   7.920 -0.8276 -0.4680  0.5242
   46CHL1  H21B 3384   3.678   1.454   7.744 -1.0442  0.1591 -0.9083
   46CHL1  H21C 3385   3.513   1.456   7.784  2.2291 -3.0407 -2.5673
   46CHL1   C22 3386   3.547   1.698   7.963 -0.2951 -0.0497 -0.2172
   46CHL1  H22A 3387   3.534   1.807   7.951 -2.0776 -0.1119  0.7800
   46CHL1  H22B 3388   3.443   1.660   7.963 -0.3319  0.0396  0.3615
   46CHL1   C23 3389   3.626   1.673   8.089 -0.4588  0.0490 -0.7425
   46CHL1  H23A 3390   3.629   1.564   8.112 -0.3614  0.2877  0.4513
   46CHL1  H23B 3391   3.733   1.702   8.080 -0.5449  0.3982 -0.6710
   46CHL1   C24 3392   3.552   1.745   8.205 -0.2327 -0.4762  0.4297
   46CHL1  H24A 3393   3.559   1.851   8.170  2.7129 -1.4525 -2.4525
   46CHL1  H24B 3394   3.449   1.705   8.206  0.5436 -2.5688  0.6027
   46CHL1   C25 3395   3.599   1.731   8.346  0.1991 -0.3637 -0.2138
   46CHL1   H25 3396   3.520   1.779   8.407  0.1413 -0.3928 -0.2649
   46CHL1   C26 3397   3.614   1.584   8.391  0.1665  0.6710 -1.0967
   46CHL1  H26A 3398   3.658   1.586   8.493  0.2239 -0.1729 -1.0974
   46CHL1  H26B 3399   3.508   1.550   8.394 -0.4114  2.4655  0.3373
   46CHL1  H26C 3400   3.686   1.521   8.333  1.3009 -2.4381  3.1756
   46CHL1   C27 3401   3.733   1.802   8.375 -0.2470  0.0143  0.0739
   46CHL1  H27A 3402   3.813   1.752   8.317  0.6686 -0.0983  1.3943
   46CHL1  H27B 3403   3.720   1.907   8.338 -0.0157 -0.1433 -0.4733
   46CHL1  H27C 3404   3.766   1.802   8.481 -2.5987  1.6865  0.8947
   47CHL1    C3 3405   3.187   1.421   6.702  0.0848 -0.4578 -0.1484
   47CHL1    H3 3406   3.280   1.480   6.720  1.1270 -1.3733 -2.2049
   47CHL1    O3 3407   3.167   1.401   6.561 -0.0266 -0.2074 -0.4933
   47CHL1   H3' 3408   3.077   1.372   6.547  0.3440 -1.1842 -0.9021
   47CHL1    C4 3409   3.209   1.288   6.783  0.5703 -1.2120  0.0631
   47CHL1   H4A 3410   3.122   1.223   6.763  2.0067 -2.3245 -3.4479
   47CHL1   H4B 3411   3.288   1.230   6.730  0.8385 -1.5752  0.8577
   47CHL1    C5 3412   3.229   1.313   6.931 -0.5028 -0.8833  0.6910
   47CHL1    C6 3413   3.335   1.282   6.994  0.6935  0.2413 -0.0428
   47CHL1    H6 3414   3.414   1.227   6.941  0.2754  0.3263 -0.7615
   47CHL1    C7 3415   3.354   1.288   7.143 -0.9344  0.9815 -0.0330
   47CHL1   H7A 3416   3.385   1.187   7.178 -2.0824  0.6133 -0.0413
   47CHL1   H7B 3417   3.436   1.363   7.155 -0.4595  0.5943 -0.7820
   47CHL1    C8 3418   3.222   1.315   7.224 -0.8010 -0.5507  0.3865
   47CHL1    H8 3419   3.152   1.228   7.231 -2.3602  0.6539  0.2781
   47CHL1   C14 3420   3.257   1.365   7.362  0.0461  0.4011  0.3284
   47CHL1   H14 3421   3.324   1.450   7.336 -0.7235  0.8384 -0.2921
   47CHL1   C15 3422   3.340   1.270   7.452  0.1466 -0.2824 -0.3645
   47CHL1  H15A 3423   3.329   1.161   7.437 -0.3780 -0.5614  1.7591
   47CHL1  H15B 3424   3.447   1.299   7.437  0.4401  0.7758  2.9648
   47CHL1   C16 3425   3.306   1.306   7.593  0.7666 -0.6342  0.4566
   47CHL1  H16A 3426   3.258   1.216   7.637  1.1872  0.0506  2.4221
   47CHL1  H16B 3427   3.395   1.346   7.646  0.1761  2.5868 -0.7686
   47CHL1   C17 3428   3.217   1.434   7.568 -0.1689  0.3759 -0.0697
   47CHL1   H17 3429   3.287   1.518   7.552  0.9609 -0.1079  1.9695
   47CHL1   C13 3430   3.135   1.422   7.437 -0.0574  0.2015  0.5707
   47CHL1   C18 3431   3.030   1.319   7.462 -0.2003 -0.4143  0.1539
   47CHL1  H18A 3432   2.976   1.274   7.376  0.0292 -1.9672  0.7955
   47CHL1  H18B 3433   3.064   1.232   7.524  1.8123  0.9536  1.1013
   47CHL1  H18C 3434   2.953   1.367   7.525  0.4260 -1.0386  1.4314
   47CHL1   C12 3435   3.072   1.540   7.358  0.2158 -0.7838  0.0861
   47CHL1  H12A 3436   2.980   1.570   7.414  1.4320 -0.3038  1.9312
   47CHL1  H12B 3437   3.148   1.620   7.370 -1.0874  0.3550  1.0492
   47CHL1   C11 3438   3.037   1.498   7.220 -0.2492 -0.4997 -0.2877
   47CHL1  H11A 3439   2.950   1.430   7.235 -0.5921  0.4448  2.4095
   47CHL1  H11B 3440   2.997   1.592   7.175 -0.4663 -0.3529  0.2115
   47CHL1    C9 3441   3.147   1.427   7.143 -0.3600 -0.0759 -0.9767
   47CHL1    H9 3442   3.220   1.509   7.123 -0.1876 -0.0485 -0.2509
   47CHL1   C10 3443   3.107   1.379   6.994 -0.6895 -0.3504  0.3770
   47CHL1   C19 3444   2.986   1.279   7.008  0.4606  0.4540 -0.0474
   47CHL1  H19A 3445   2.893   1.337   6.996  0.8744  1.2651  0.5275
   47CHL1  H19B 3446   2.987   1.192   6.939  0.0513 -1.0629  1.7379
   47CHL1  H19C 3447   2.988   1.234   7.110 -0.8138 -1.2003 -0.6982
   47CHL1    C1 3448   3.075   1.509   6.909  0.5008 -0.6590 -0.2136
   47CHL1   H1A 3449   2.981   1.557   6.944  2.3206  2.9056  0.2508
   47CHL1   H1B 3450   3.154   1.586   6.919 -0.5505  0.4852 -0.5061
   47CHL1    C2 3451   3.066   1.491   6.755  0.1380  0.3748 -0.6124
   47CHL1   H2A 3452   3.056   1.587   6.699 -3.1556  0.7382  0.3560
   47CHL1   H2B 3453   2.967   1.443   6.736 -0.8508  2.7669 -2.0203
   47CHL1   C20 3454   3.143   1.479   7.693 -0.6925 -0.7424  0.3764
   47CHL1   H20 3455   3.041   1.435   7.699 -1.8652  1.9427  1.6412
   47CHL1   C21 3456   3.126   1.630   7.678  0.5354 -0.1415 -0.2138
   47CHL1  H21A 3457   3.089   1.661   7.578  0.2822  0.6244  0.1104
   47CHL1  H21B 3458   3.219   1.684   7.708  0.8861 -0.6700 -0.3207
   47CHL1  H21C 3459   3.045   1.669   7.743  1.2466  2.7600 -0.9461
   47CHL1   C22 3460   3.205   1.447   7.838 -0.3057 -0.5895 -0.3194
   47CHL1  H22A 3461   3.239   1.342   7.831 -1.6242 -0.9328 -2.9560
   47CHL1  H22B 3462   3.290   1.510   7.872  1.2879 -1.5403 -2.3330
   47CHL1   C23 3463   3.093   1.440   7.949 -0.1251  0.4950  0.0992
   47CHL1  H23A 3464   3.026   1.528   7.937  0.6422  0.7907 -2.8208
   47CHL1  H23B 3465   3.037   1.348   7.921 -1.6629  1.7623 -1.1977
   47CHL1   C24 3466   3.150   1.423   8.097 -0.4105 -0.6964  0.7325
   47CHL1  H24A 3467   3.208   1.329   8.110 -0.6173 -1.6022 -3.4220
   47CHL1  H24B 3468   3.216   1.508   8.124  0.8462 -1.2403 -0.4614
   47CHL1   C25 3469   3.033   1.424   8.198 -0.5148 -0.0018  0.3657
   47CHL1   H25 3470   2.981   1.521   8.182  1.2794  0.8419 -0.7035
   47CHL1   C26 3471   2.927   1.313   8.179 -0.3074  0.0349 -0.1760
   47CHL1  H26A 3472   2.889   1.300   8.076 -0.3975 -0.0180 -0.1369
   47CHL1  H26B 3473   2.973   1.215   8.205 -1.7717 -0.8705 -0.9126
   47CHL1  H26C 3474   2.848   1.340   8.252  1.1331  0.9783  1.1042
   47CHL1   C27 3475   3.106   1.423   8.333 -0.0369  0.5368  0.4732
   47CHL1  H27A 3476   3.047   1.434   8.426 -1.8018  3.0307 -0.7902
   47CHL1  H27B 3477   3.155   1.324   8.333  0.6152  0.8505  1.3603
   47CHL1  H27C 3478   3.182   1.504   8.332  0.3527  0.1758 -0.8534
   48CHL1    C3 3479   5.977   3.198   6.188  0.4976  0.1342  0.7192
   48CHL1    H3 3480   5.952   3.306   6.189  3.3460  0.9079 -1.3940
   48CHL1    O3 3481   5.987   3.157   6.047  0.1713  0.3143 -0.7104
   48CHL1   H3' 3482   6.059   3.207   6.007  0.1791  1.3242  0.5048
   48CHL1    C4 3483   6.116   3.191   6.253 -0.2602  0.9150  0.3803
   48CHL1   H4A 3484   6.148   3.084   6.248  0.9428  1.2697  0.0965
   48CHL1   H4B 3485   6.189   3.253   6.197  0.6309 -0.8748 -0.5577
   48CHL1    C5 3486   6.104   3.218   6.402 -0.6141 -0.7446 -0.2853
   48CHL1    C6 3487   6.186   3.320   6.452  0.6031  0.4403 -0.2456
   48CHL1    H6 3488   6.255   3.363   6.378  0.7030 -1.8576 -1.5801
   48CHL1    C7 3489   6.199   3.358   6.597 -0.7445  0.2506  1.2808
   48CHL1   H7A 3490   6.306   3.373   6.620 -0.0015  0.2985 -1.8021
   48CHL1   H7B 3491   6.145   3.454   6.614 -1.4241 -0.0842  1.0581
   48CHL1    C8 3492   6.137   3.248   6.686 -0.1966 -0.1293 -0.3006
   48CHL1    H8 3493   6.194   3.153   6.695 -0.9570 -0.8276 -2.3440
   48CHL1   C14 3494   6.132   3.313   6.831  0.1926 -0.9082  0.5405
   48CHL1   H14 3495   6.075   3.407   6.824  1.9605  0.1751 -0.0953
   48CHL1   C15 3496   6.267   3.352   6.901 -0.2374 -0.4519 -0.2339
   48CHL1  H15A 3497   6.345   3.275   6.888  0.0591 -0.2382  0.2472
   48CHL1  H15B 3498   6.304   3.453   6.873 -2.0108  0.7713  1.5588
   48CHL1   C16 3499   6.228   3.337   7.054 -0.4318 -0.2541  0.2311
   48CHL1  H16A 3500   6.301   3.264   7.096  1.4086  1.0514 -0.5392
   48CHL1  H16B 3501   6.237   3.437   7.101 -2.9224 -0.0119  0.3081
   48CHL1   C17 3502   6.081   3.298   7.060 -0.8379 -0.6477 -0.8476
   48CHL1   H17 3503   6.029   3.396   7.045 -2.8871 -1.4782  0.3676
   48CHL1   C13 3504   6.061   3.219   6.927  0.4148  0.0941 -0.0281
   48CHL1   C18 3505   6.130   3.081   6.947  0.7960  0.1034 -0.4097
   48CHL1  H18A 3506   6.067   3.003   6.996  1.5165  0.0157  0.4047
   48CHL1  H18B 3507   6.175   3.045   6.852  0.1559 -0.5370 -0.4812
   48CHL1  H18C 3508   6.209   3.080   7.026  1.1383 -0.7339 -0.7543
   48CHL1   C12 3509   5.914   3.198   6.879  0.1672  0.4699  0.4189
   48CHL1  H12A 3510   5.863   3.137   6.956 -0.6819 -0.1703 -0.6183
   48CHL1  H12B 3511   5.860   3.294   6.869 -1.0859 -0.3116 -0.6255
   48CHL1   C11 3512   5.917   3.127   6.738  0.1867 -0.3974 -0.0039
   48CHL1  H11A 3513   5.952   3.023   6.755 -0.8833 -1.2034 -2.3661
   48CHL1  H11B 3514   5.812   3.124   6.702 -0.3508 -0.9795  1.5035
   48CHL1    C9 3515   6.000   3.212   6.631  0.1140  0.1579  0.2414
   48CHL1    H9 3516   5.950   3.311   6.627  1.7770  0.9927 -0.9829
   48CHL1   C10 3517   6.002   3.145   6.491 -0.6459 -0.0013 -0.1122
   48CHL1   C19 3518   6.025   2.992   6.506 -0.4647 -0.5637 -0.5788
   48CHL1  H19A 3519   6.044   2.943   6.408  1.7155 -0.6066 -0.1664
   48CHL1  H19B 3520   6.115   2.970   6.566 -1.6383  0.1293  1.5342
   48CHL1  H19C 3521   5.938   2.939   6.551  1.2583 -0.8674  2.6784
   48CHL1    C1 3522   5.867   3.177   6.417  0.3217 -0.2655  0.0981
   48CHL1   H1A 3523   5.790   3.116   6.469  1.4002 -1.3610  0.4458
   48CHL1   H1B 3524   5.847   3.286   6.428 -0.3757 -0.4299  0.5174
   48CHL1    C2 3525   5.862   3.127   6.270 -0.5922 -0.5416 -0.0126
   48CHL1   H2A 3526   5.769   3.146   6.213 -0.1586  0.3703 -0.4397
   48CHL1   H2B 3527   5.882   3.019   6.286  0.3116 -0.4027 -0.1564
   48CHL1   C20 3528   6.031   3.237   7.193  0.2903  0.2854  0.2545
   48CHL1   H20 3529   6.013   3.130   7.172  0.2582  0.8143 -3.0954
   48CHL1   C21 3530   5.894   3.294   7.218 -0.0797  0.3436  0.0408
   48CHL1  H21A 3531   5.910   3.403   7.233 -1.0753  0.2843  1.9142
   48CHL1  H21B 3532   5.855   3.238   7.306  0.9701 -1.1638 -0.4191
   48CHL1  H21C 3533   5.824   3.271   7.135 -1.1329 -1.2385  1.2735
   48CHL1   C22 3534   6.122   3.232   7.316 -0.5922 -0.8131 -0.6254
   48CHL1  H22A 3535   6.084   3.157   7.389  0.1861 -0.3112  0.3113
   48CHL1  H22B 3536   6.226   3.195   7.300 -0.8061 -0.5794 -2.9366
   48CHL1   C23 3537   6.137   3.365   7.390  0.3541 -0.6454 -0.2916
   48CHL1  H23A 3538   6.201   3.432   7.328 -0.8613  1.8329  0.9806
   48CHL1  H23B 3539   6.039   3.416   7.405 -0.2290 -2.3943  2.8288
   48CHL1   C24 3540   6.216   3.356   7.520  0.6344 -0.3993 -0.3428
   48CHL1  H24A 3541   6.169   3.276   7.581  0.3362 -1.4990 -1.9260
   48CHL1  H24B 3542   6.325   3.333   7.515  1.3162  1.7724  2.2833
   48CHL1   C25 3543   6.218   3.479   7.610 -0.4794 -1.0701 -0.8099
   48CHL1   H25 3544   6.247   3.569   7.550 -1.0311  0.6383  1.3506
   48CHL1   C26 3545   6.083   3.506   7.674  0.8653  0.7598 -0.2482
   48CHL1  H26A 3546   5.993   3.507   7.609  1.6677  1.0047 -1.3892
   48CHL1  H26B 3547   6.067   3.421   7.744  2.6306  0.5601 -0.0206
   48CHL1  H26C 3548   6.095   3.593   7.742 -0.3504 -0.4946  1.6968
   48CHL1   C27 3549   6.329   3.463   7.712  0.6542  0.9509 -0.2589
   48CHL1  H27A 3550   6.317   3.362   7.756 -1.0822  0.3911 -1.8461
   48CHL1  H27B 3551   6.428   3.464   7.661  0.0791 -1.2642 -1.5643
   48CHL1  H27C 3552   6.319   3.539   7.791 -1.9606  1.3588 -0.8785
   49CHL1    C3 3553   5.899   4.463   6.621 -1.0338  0.8051  0.7009
   49CHL1    H3 3554   5.805   4.405   6.625 -0.4046 -0.1921  1.5982
   49CHL1    O3 3555   5.919   4.506   6.487 -0.6315  0.8211 -1.1227
   49CHL1   H3' 3556   5.839   4.554   6.464 -1.1689  0.2086 -0.5730
   49CHL1    C4 3557   5.877   4.582   6.706  0.4533 -0.3179 -0.1946
   49CHL1   H4A 3558   5.951   4.663   6.686 -1.5621  1.0835 -2.4879
   49CHL1   H4B 3559   5.780   4.630   6.683 -1.7946 -2.3145  3.9894
   49CHL1    C5 3560   5.885   4.555   6.859  0.1672  0.2294 -0.0638
   49CHL1    C6 3561   5.783   4.585   6.943 -0.0283 -0.6209 -0.8014
   49CHL1    H6 3562   5.681   4.619   6.922  0.0006 -0.4847 -0.7235
   49CHL1    C7 3563   5.794   4.563   7.093  0.0286  0.0323  0.2034
   49CHL1   H7A 3564   5.762   4.662   7.132 -1.4127 -0.6206  0.7546
   49CHL1   H7B 3565   5.716   4.491   7.126 -1.5473  1.9375  0.8110
   49CHL1    C8 3566   5.935   4.529   7.148  0.0446  0.6270  0.1448
   49CHL1    H8 3567   5.979   4.630   7.162 -0.3750  0.9180 -0.5893
   49CHL1   C14 3568   5.919   4.458   7.285  0.2612 -0.1610  0.0928
   49CHL1   H14 3569   5.878   4.356   7.272  1.2977 -0.4984 -0.7961
   49CHL1   C15 3570   5.834   4.537   7.390  0.3505 -0.2260 -0.5375
   49CHL1  H15A 3571   5.856   4.645   7.380  1.4353 -0.4132 -0.2979
   49CHL1  H15B 3572   5.724   4.523   7.384 -0.0216  2.1337 -0.1031
   49CHL1   C16 3573   5.894   4.489   7.522  0.5842  0.1603 -0.3404
   49CHL1  H16A 3574   5.923   4.571   7.592 -1.3786  1.0749 -0.5385
   49CHL1  H16B 3575   5.822   4.421   7.572 -2.4860  1.8742 -2.1528
   49CHL1   C17 3576   6.013   4.395   7.496  0.3170  0.2034  0.5041
   49CHL1   H17 3577   5.979   4.290   7.487 -0.4587  0.5798 -1.3641
   49CHL1   C13 3578   6.055   4.443   7.357  0.9629  0.5751 -0.0833
   49CHL1   C18 3579   6.127   4.583   7.377 -0.0924 -0.2543 -0.3532
   49CHL1  H18A 3580   6.157   4.619   7.276  0.8171  0.0660  0.0162
   49CHL1  H18B 3581   6.065   4.656   7.432 -0.1870 -2.7605  3.2321
   49CHL1  H18C 3582   6.222   4.572   7.434  0.0728  1.5906 -0.2372
   49CHL1   C12 3583   6.143   4.353   7.271  0.2503 -0.2534  0.1196
   49CHL1  H12A 3584   6.239   4.331   7.322  0.5798 -2.8019 -1.4502
   49CHL1  H12B 3585   6.083   4.261   7.257 -0.4025  0.5473 -3.2014
   49CHL1   C11 3586   6.150   4.400   7.124 -0.6734 -0.0092  0.2743
   49CHL1  H11A 3587   6.228   4.479   7.117  0.8698 -1.5744 -0.9852
   49CHL1  H11B 3588   6.204   4.317   7.073  0.3832  0.3175  0.8291
   49CHL1    C9 3589   6.012   4.439   7.058  0.3974  0.4652 -0.2598
   49CHL1    H9 3590   5.950   4.346   7.052  0.2458  0.4476  1.2984
   49CHL1   C10 3591   6.004   4.482   6.905 -0.6938 -0.1211  0.3943
   49CHL1   C19 3592   6.131   4.559   6.881 -1.0401 -0.0174  0.2111
   49CHL1  H19A 3593   6.221   4.495   6.887 -1.6128 -0.8474  0.1609
   49CHL1  H19B 3594   6.135   4.596   6.776  1.2636  0.1487  0.3050
   49CHL1  H19C 3595   6.141   4.648   6.946  0.3502  0.2966 -0.3943
   49CHL1    C1 3596   6.013   4.347   6.822 -0.3979 -0.6266 -0.5614
   49CHL1   H1A 3597   6.111   4.302   6.851 -0.2222  0.5076  0.6851
   49CHL1   H1B 3598   5.928   4.282   6.852 -0.1287 -1.1769 -0.9520
   49CHL1    C2 3599   6.007   4.368   6.670  0.6003  0.2528  0.8179
   49CHL1   H2A 3600   5.982   4.271   6.622 -0.5106  0.6177  0.6324
   49CHL1   H2B 3601   6.108   4.399   6.637  0.0434  1.3194  0.0507
   49CHL1   C20 3602   6.104   4.405   7.618 -0.0718 -0.4826 -0.5126
   49CHL1   H20 3603   6.126   4.513   7.635  0.4649 -0.9446  2.1200
   49CHL1   C21 3604   6.236   4.328   7.593  0.5081  0.2628  0.4389
   49CHL1  H21A 3605   6.312   4.385   7.535  0.1881 -0.0571 -0.3100
   49CHL1  H21B 3606   6.225   4.245   7.519  0.7363  0.3626  0.2912
   49CHL1  H21C 3607   6.279   4.286   7.687 -0.7718 -0.4838  0.7219
   49CHL1   C22 3608   6.034   4.360   7.755  0.0442 -0.3737  0.5743
   49CHL1  H22A 3609   5.924   4.346   7.748 -0.1778  0.7612  1.4965
   49CHL1  H22B 3610   6.072   4.261   7.790 -1.5421 -0.7479  1.3538
   49CHL1   C23 3611   6.042   4.468   7.866 -0.5931 -0.0741 -0.9704
   49CHL1  H23A 3612   6.130   4.447   7.931  0.5140  2.0620 -1.6882
   49CHL1  H23B 3613   6.059   4.569   7.823  0.0380  0.9767  1.5507
   49CHL1   C24 3614   5.917   4.478   7.954  0.2975 -0.4177 -0.6458
   49CHL1  H24A 3615   5.825   4.510   7.900 -0.4359 -0.0196  0.7790
   49CHL1  H24B 3616   5.905   4.374   7.993  1.5294  0.0229  1.0087
   49CHL1   C25 3617   5.922   4.559   8.093 -0.3616 -0.3210  0.0595
   49CHL1   H25 3618   5.993   4.503   8.158  0.8922 -1.2525 -2.0043
   49CHL1   C26 3619   5.965   4.700   8.067  0.0845  0.2050  0.0947
   49CHL1  H26A 3620   5.996   4.746   8.163  1.0252  0.1118 -0.1480
   49CHL1  H26B 3621   6.055   4.717   8.004  0.4368  0.1935  0.5865
   49CHL1  H26C 3622   5.886   4.753   8.011  1.4430  2.6768  0.3721
   49CHL1   C27 3623   5.780   4.557   8.152 -0.7076 -0.4333  0.4243
   49CHL1  H27A 3624   5.775   4.597   8.255 -0.7818 -1.1266  0.6919
   49CHL1  H27B 3625   5.716   4.621   8.087  1.2049  1.7791  0.6131
   49CHL1  H27C 3626   5.739   4.454   8.160  0.4581 -0.9330  0.0888
   50CHL1    C3 3627   5.806   4.980   6.749  0.0768  0.2051 -0.0762
   50CHL1    H3 3628   5.789   4.871   6.768  1.1426  0.0809  0.1921
   50CHL1    O3 3629   5.768   4.999   6.615  0.0154 -0.2775 -0.1488
   50CHL1   H3' 3630   5.829   4.948   6.561 -0.1306 -0.4048 -0.1918
   50CHL1    C4 3631   5.718   5.037   6.857 -0.0579 -0.9071 -0.4127
   50CHL1   H4A 3632   5.711   5.145   6.831  0.1922 -0.8582 -0.2747
   50CHL1   H4B 3633   5.612   5.005   6.846 -0.8860  1.0557  1.1782
   50CHL1    C5 3634   5.766   5.026   7.002 -0.2081  0.0096  1.2969
   50CHL1    C6 3635   5.690   4.979   7.099  1.2890 -0.2487 -0.3961
   50CHL1    H6 3636   5.583   4.961   7.085  1.3984 -2.5207  1.0540
   50CHL1    C7 3637   5.733   4.966   7.247  0.5466 -0.1231 -0.0192
   50CHL1   H7A 3638   5.664   5.018   7.315  0.1123 -0.6491 -0.0485
   50CHL1   H7B 3639   5.733   4.859   7.277  3.0303 -0.3050 -0.4695
   50CHL1    C8 3640   5.867   5.028   7.276  0.4504  0.1311 -0.2892
   50CHL1    H8 3641   5.855   5.138   7.291 -1.4188  0.0456 -0.9691
   50CHL1   C14 3642   5.927   4.970   7.407  0.4107 -0.6883 -0.0864
   50CHL1   H14 3643   5.951   4.865   7.378 -1.0917 -0.9606 -0.4267
   50CHL1   C15 3644   5.838   4.952   7.536 -0.2788  0.3376 -0.3978
   50CHL1  H15A 3645   5.792   5.045   7.577  1.2233  1.2262 -0.6393
   50CHL1  H15B 3646   5.765   4.870   7.523  1.0861 -0.6293 -2.4748
   50CHL1   C16 3647   5.944   4.910   7.642  0.5520  0.3418  0.2412
   50CHL1  H16A 3648   5.932   4.980   7.727 -0.8342  0.9768 -0.4439
   50CHL1  H16B 3649   5.914   4.809   7.676  0.0910  1.0961  2.1995
   50CHL1   C17 3650   6.082   4.920   7.573  0.3246 -0.9277 -0.0824
   50CHL1   H17 3651   6.093   4.815   7.537  1.1648 -1.2645  1.1192
   50CHL1   C13 3652   6.062   5.027   7.462 -0.1115  0.1572  1.1489
   50CHL1   C18 3653   6.055   5.172   7.515  0.6601 -0.0603  0.2907
   50CHL1  H18A 3654   5.992   5.191   7.605 -2.3298 -2.2341 -1.1620
   50CHL1  H18B 3655   6.155   5.209   7.546  0.5407  0.0426  0.5567
   50CHL1  H18C 3656   6.013   5.230   7.431 -1.1301 -0.3337  0.9364
   50CHL1   C12 3657   6.156   5.024   7.342 -0.5333 -0.1533 -0.0774
   50CHL1  H12A 3658   6.254   5.069   7.368 -0.0454 -1.1605 -0.1370
   50CHL1  H12B 3659   6.179   4.918   7.318 -0.0235 -0.7225  2.5199
   50CHL1   C11 3660   6.101   5.075   7.212 -1.2095 -0.1520  0.0017
   50CHL1  H11A 3661   6.070   5.179   7.237 -0.3242 -0.0168  0.5432
   50CHL1  H11B 3662   6.178   5.086   7.132 -0.7470 -0.7670  0.3544
   50CHL1    C9 3663   5.975   5.008   7.163  0.3987  0.3121  0.1056
   50CHL1    H9 3664   5.993   4.899   7.148 -1.7582  0.0019 -0.6057
   50CHL1   C10 3665   5.918   5.052   7.025  0.2903 -0.6067 -1.5578
   50CHL1   C19 3666   5.939   5.207   7.024 -0.6255 -0.1634  0.7289
   50CHL1  H19A 3667   5.891   5.255   7.111  0.2041  1.0783  0.5306
   50CHL1  H19B 3668   6.045   5.241   7.016 -0.5134  0.0050  2.6106
   50CHL1  H19C 3669   5.890   5.240   6.930 -1.7807 -2.5741  0.4118
   50CHL1    C1 3670   6.000   4.988   6.916 -0.3524 -0.4103 -0.6054
   50CHL1   H1A 3671   6.104   5.026   6.924 -0.8899  1.1666 -0.7704
   50CHL1   H1B 3672   6.008   4.878   6.932  1.8337 -0.1081  0.8099
   50CHL1    C2 3673   5.957   5.017   6.770 -0.3855 -0.1237 -0.4454
   50CHL1   H2A 3674   6.016   4.967   6.690 -1.1954 -2.6672  0.4193
   50CHL1   H2B 3675   5.976   5.125   6.758 -0.4934 -0.1076 -0.4695
   50CHL1   C20 3676   6.199   4.936   7.671  0.7821 -0.3699  0.0193
   50CHL1   H20 3677   6.204   5.040   7.709  0.4850 -0.7181  1.0529
   50CHL1   C21 3678   6.333   4.918   7.596  0.2001  0.0123 -0.3578
   50CHL1  H21A 3679   6.349   4.820   7.546  5.4627  0.8448 -0.8961
   50CHL1  H21B 3680   6.414   4.912   7.673 -1.7893 -1.4127  1.7721
   50CHL1  H21C 3681   6.364   4.999   7.528  2.9406 -1.2083 -0.7026
   50CHL1   C22 3682   6.199   4.841   7.790  0.1910  0.3562 -0.5269
   50CHL1  H22A 3683   6.099   4.831   7.837 -0.1269  0.1862 -1.2280
   50CHL1  H22B 3684   6.240   4.740   7.770 -0.1064  0.2504 -0.6045
   50CHL1   C23 3685   6.284   4.896   7.918  0.6454  0.0508 -0.2137
   50CHL1  H23A 3686   6.271   4.813   7.992  0.8368  0.2103  0.0016
   50CHL1  H23B 3687   6.392   4.904   7.893  0.6842  1.8457  0.3997
   50CHL1   C24 3688   6.232   5.023   7.973  0.5231  0.0722 -0.5391
   50CHL1  H24A 3689   6.264   5.110   7.911 -1.8770  0.6504 -1.0572
   50CHL1  H24B 3690   6.122   5.007   7.978  0.6828 -0.7557  2.1786
   50CHL1   C25 3691   6.276   5.064   8.118  1.0501 -0.2141 -0.2003
   50CHL1   H25 3692   6.231   5.164   8.135  0.9902 -0.4496  1.1220
   50CHL1   C26 3693   6.215   4.975   8.219  0.3717  0.1755  0.0272
   50CHL1  H26A 3694   6.209   5.014   8.323 -0.0026 -0.9640  0.4526
   50CHL1  H26B 3695   6.113   4.953   8.181  0.8926 -2.1368 -0.2347
   50CHL1  H26C 3696   6.262   4.874   8.221  1.9512  0.8884  0.6128
   50CHL1   C27 3697   6.430   5.063   8.129 -0.1929  0.5682  0.5542
   50CHL1  H27A 3698   6.462   4.959   8.152 -3.0656 -0.4002  0.6015
   50CHL1  H27B 3699   6.487   5.103   8.043  0.4936 -1.2087  0.1325
   50CHL1  H27C 3700   6.456   5.125   8.218 -2.5433  1.6260  0.5859
   51CHL1    C3 3701   6.508   6.409   6.783  0.0470 -0.5237  0.3212
   51CHL1    H3 3702   6.550   6.512   6.774 -0.2584 -0.3867  0.4180
   51CHL1    O3 3703   6.457   6.373   6.659  0.4782 -0.3189  0.5003
   51CHL1   H3' 3704   6.450   6.277   6.661 -0.9477 -0.2369  2.3153
   51CHL1    C4 3705   6.637   6.338   6.815  0.4843  0.3038  0.2697
   51CHL1   H4A 3706   6.628   6.230   6.790  3.4331 -0.2022  1.0214
   51CHL1   H4B 3707   6.712   6.369   6.738  0.3004  0.6307  0.2247
   51CHL1    C5 3708   6.690   6.346   6.958 -0.3129  0.3833  0.4297
   51CHL1    C6 3709   6.821   6.358   6.980  0.4884  0.2246  0.0333
   51CHL1    H6 3710   6.889   6.339   6.895 -0.1488  1.4417 -0.7772
   51CHL1    C7 3711   6.882   6.382   7.115 -0.4468 -0.0066 -0.3158
   51CHL1   H7A 3712   6.977   6.325   7.132 -0.2334  1.0347  2.4643
   51CHL1   H7B 3713   6.899   6.491   7.115  0.0048 -0.0741  0.3234
   51CHL1    C8 3714   6.782   6.359   7.233  0.4454 -0.3119  0.7984
   51CHL1    H8 3715   6.768   6.250   7.241 -2.5918 -0.0629  0.1740
   51CHL1   C14 3716   6.845   6.404   7.370 -0.3892 -0.0243  0.5480
   51CHL1   H14 3717   6.855   6.514   7.369 -0.9204  0.0746  2.6345
   51CHL1   C15 3718   6.981   6.345   7.404  0.0429  0.1624 -0.1020
   51CHL1  H15A 3719   6.998   6.238   7.381  5.3226  1.2758 -2.9683
   51CHL1  H15B 3720   7.069   6.393   7.357 -0.3953  2.3304  1.1738
   51CHL1   C16 3721   6.976   6.372   7.558  0.1301  0.2960 -0.2380
   51CHL1  H16A 3722   7.000   6.275   7.607  0.6661 -0.3035 -1.6386
   51CHL1  H16B 3723   7.060   6.438   7.586  0.3080  0.4039 -0.9944
   51CHL1   C17 3724   6.841   6.431   7.603  0.7353  0.1707  0.1314
   51CHL1   H17 3725   6.845   6.542   7.594 -0.4012  0.0970 -1.9537
   51CHL1   C13 3726   6.752   6.386   7.483 -0.8104 -0.5498  0.1546
   51CHL1   C18 3727   6.714   6.238   7.509 -0.1080  0.2211  0.3873
   51CHL1  H18A 3728   6.666   6.188   7.422  1.5463 -0.3932 -0.2020
   51CHL1  H18B 3729   6.796   6.173   7.544 -0.3102 -1.1801 -1.5803
   51CHL1  H18C 3730   6.639   6.237   7.592  0.4698  2.2093  1.0007
   51CHL1   C12 3731   6.625   6.473   7.455 -0.3566  0.7719  0.2171
   51CHL1  H12A 3732   6.551   6.460   7.537 -1.2359  0.7191 -0.5672
   51CHL1  H12B 3733   6.655   6.578   7.435 -0.7810  0.6052 -1.5135
   51CHL1   C11 3734   6.554   6.427   7.326 -0.9088 -0.3933 -0.3834
   51CHL1  H11A 3735   6.521   6.322   7.338  1.5514 -1.3405 -1.2340
   51CHL1  H11B 3736   6.467   6.489   7.297 -1.2676 -0.3067  0.8505
   51CHL1    C9 3737   6.646   6.434   7.199  0.5700 -0.5208 -0.1273
   51CHL1    H9 3738   6.667   6.542   7.185  1.3132 -0.5269  0.8461
   51CHL1   C10 3739   6.582   6.375   7.070  1.1639  0.7188  0.3267
   51CHL1   C19 3740   6.528   6.224   7.105  0.4790 -0.6493  0.6539
   51CHL1  H19A 3741   6.444   6.225   7.178 -0.8433 -0.6432 -0.7965
   51CHL1  H19B 3742   6.482   6.174   7.017 -1.1841  1.9798 -0.0764
   51CHL1  H19C 3743   6.614   6.165   7.142 -0.3358 -2.7553 -0.6191
   51CHL1    C1 3744   6.468   6.467   7.022 -0.8452  0.0079 -0.7043
   51CHL1   H1A 3745   6.390   6.463   7.101 -1.2238  0.4596 -1.0501
   51CHL1   H1B 3746   6.520   6.565   7.023  0.5092 -0.6830  0.8423
   51CHL1    C2 3747   6.406   6.414   6.896  0.7644  0.0278  0.3847
   51CHL1   H2A 3748   6.327   6.483   6.859  0.3628 -0.9431 -0.6317
   51CHL1   H2B 3749   6.366   6.310   6.899 -0.2682  0.4323  2.7534
   51CHL1   C20 3750   6.804   6.390   7.745  0.4013  0.3802  0.1354
   51CHL1   H20 3751   6.814   6.279   7.744  1.8593  0.4973  0.0195
   51CHL1   C21 3752   6.663   6.430   7.789  0.1366 -0.1367  0.3085
   51CHL1  H21A 3753   6.588   6.428   7.708  0.4997  4.4188 -0.4518
   51CHL1  H21B 3754   6.656   6.535   7.826  0.5858 -0.3781  1.1076
   51CHL1  H21C 3755   6.635   6.371   7.878  0.4583  2.7779  2.5138
   51CHL1   C22 3756   6.912   6.445   7.847  0.2442  0.4942 -0.3041
   51CHL1  H22A 3757   7.008   6.395   7.823  0.2796 -0.4135  1.5803
   51CHL1  H22B 3758   6.920   6.556   7.848 -1.3953  0.6870  2.8190
   51CHL1   C23 3759   6.881   6.401   7.989 -0.2496  0.5510 -0.4551
   51CHL1  H23A 3760   6.791   6.456   8.025 -3.2713 -4.2148  0.2522
   51CHL1  H23B 3761   6.853   6.294   8.006 -1.6976  0.8987 -0.5544
   51CHL1   C24 3762   7.002   6.443   8.070  0.9100  0.9460  0.2380
   51CHL1  H24A 3763   7.086   6.372   8.051 -1.0402 -1.2958 -0.5104
   51CHL1  H24B 3764   7.032   6.541   8.028  0.7417 -0.1894 -2.7334
   51CHL1   C25 3765   6.972   6.450   8.221 -0.4478 -0.4064  0.2707
   51CHL1   H25 3766   6.893   6.525   8.245  1.2197  1.2378  0.8249
   51CHL1   C26 3767   6.925   6.310   8.271 -0.1284 -0.0744 -0.6315
   51CHL1  H26A 3768   6.891   6.313   8.376 -0.6973 -0.8879 -0.7756
   51CHL1  H26B 3769   6.837   6.277   8.212  0.2366  0.6140 -1.5832
   51CHL1  H26C 3770   7.009   6.240   8.251  2.5292  2.3589  1.2110
   51CHL1   C27 3771   7.093   6.505   8.298  0.5198  0.3031 -0.1063
   51CHL1  H27A 3772   7.186   6.458   8.261 -0.1127 -0.6818 -0.4924
   51CHL1  H27B 3773   7.097   6.616   8.286  0.5633  0.4509  1.1309
   51CHL1  H27C 3774   7.095   6.471   8.404  1.4144 -1.1437 -0.5539
   52CHL1    C3 3775   2.451   4.844   7.008  0.3267 -0.2571  0.0870
   52CHL1    H3 3776   2.526   4.917   7.045  0.6963 -0.5545 -0.0662
   52CHL1    O3 3777   2.464   4.828   6.865  0.2159 -0.3058 -0.5418
   52CHL1   H3' 3778   2.421   4.746   6.840  1.1621 -1.0446  0.1921
   52CHL1    C4 3779   2.481   4.715   7.089  0.9664 -0.4456  0.4468
   52CHL1   H4A 3780   2.397   4.650   7.057  0.1405  1.0661 -0.5684
   52CHL1   H4B 3781   2.576   4.676   7.048  0.3901 -0.8697 -0.5151
   52CHL1    C5 3782   2.487   4.754   7.236  0.2462  0.3234  0.1496
   52CHL1    C6 3783   2.604   4.750   7.304 -0.0332  0.8527  0.1809
   52CHL1    H6 3784   2.694   4.699   7.267 -1.2625 -1.7879  0.6128
   52CHL1    C7 3785   2.619   4.775   7.453  0.1686  0.8890 -0.4151
   52CHL1   H7A 3786   2.663   4.689   7.506  1.7922  1.2074 -1.1919
   52CHL1   H7B 3787   2.672   4.871   7.473 -0.4294  1.1966 -0.2804
   52CHL1    C8 3788   2.473   4.793   7.518 -0.0977 -0.4630  0.0618
   52CHL1    H8 3789   2.430   4.692   7.536  0.1802 -0.5558  0.2115
   52CHL1   C14 3790   2.493   4.862   7.644 -0.5273 -0.5859 -0.2766
   52CHL1   H14 3791   2.531   4.963   7.620 -2.1177  0.1742  0.2302
   52CHL1   C15 3792   2.589   4.797   7.752 -0.0062  0.3920 -0.2508
   52CHL1  H15A 3793   2.567   4.689   7.760 -1.4378  0.7340  0.7236
   52CHL1  H15B 3794   2.691   4.826   7.717  0.0743 -0.4647 -0.7558
   52CHL1   C16 3795   2.541   4.855   7.885 -0.3447 -0.0745  0.2670
   52CHL1  H16A 3796   2.500   4.783   7.959  0.0672  0.9656  1.5614
   52CHL1  H16B 3797   2.617   4.901   7.951 -0.9653  0.0453  0.9233
   52CHL1   C17 3798   2.420   4.950   7.851  0.3282  0.6025 -0.2463
   52CHL1   H17 3799   2.456   5.050   7.818  0.7593  1.2852  2.0880
   52CHL1   C13 3800   2.356   4.890   7.722  0.0035  0.6274  0.4620
   52CHL1   C18 3801   2.277   4.758   7.758  0.0422 -0.5418 -0.1608
   52CHL1  H18A 3802   2.336   4.691   7.825  1.4030  2.7624  2.2365
   52CHL1  H18B 3803   2.187   4.786   7.817  1.9366  2.0998  1.7083
   52CHL1  H18C 3804   2.244   4.695   7.673 -4.0019  0.2419  0.6294
   52CHL1   C12 3805   2.273   4.987   7.632  0.2873 -0.9726 -0.7787
   52CHL1  H12A 3806   2.177   5.026   7.672  1.7394  0.7292  1.2311
   52CHL1  H12B 3807   2.338   5.076   7.620 -1.1182  0.5144  1.7731
   52CHL1   C11 3808   2.254   4.927   7.492  0.2373 -0.0487  0.6538
   52CHL1  H11A 3809   2.186   4.839   7.499 -0.4719  0.3903 -0.4375
   52CHL1  H11B 3810   2.208   5.006   7.429 -0.5815 -1.2209 -0.2511
   52CHL1    C9 3811   2.387   4.879   7.425  0.3301 -0.1139 -0.2992
   52CHL1    H9 3812   2.455   4.966   7.413  0.4943 -0.6119 -4.3863
   52CHL1   C10 3813   2.364   4.829   7.280 -0.1946 -0.1820  0.5200
   52CHL1   C19 3814   2.256   4.718   7.293 -0.6229 -0.8564  0.1000
   52CHL1  H19A 3815   2.288   4.651   7.376  2.4349  0.1050 -0.1557
   52CHL1  H19B 3816   2.160   4.762   7.328  1.3867  3.7746  0.5779
   52CHL1  H19C 3817   2.242   4.663   7.198 -1.8933 -1.7392  0.7852
   52CHL1    C1 3818   2.316   4.943   7.186  0.5899  0.0245  0.7042
   52CHL1   H1A 3819   2.214   4.982   7.208  1.4076  1.0183  3.0703
   52CHL1   H1B 3820   2.378   5.035   7.194  1.7146 -0.3765 -2.0990
   52CHL1    C2 3821   2.317   4.911   7.034 -0.5410  0.2028 -0.2523
   52CHL1   H2A 3822   2.294   4.994   6.964  1.1662  1.2579  0.3702
   52CHL1   H2B 3823   2.232   4.841   7.021 -1.0966  0.8711 -0.2689
   52CHL1   C20 3824   2.329   4.995   7.967 -0.6497 -0.1588 -0.9841
   52CHL1   H20 3825   2.288   4.900   8.007  1.0756  0.1447  1.7312
   52CHL1   C21 3826   2.215   5.084   7.926  0.3351 -0.0816 -0.4920
   52CHL1  H21A 3827   2.146   5.101   8.011 -0.9781 -2.6953 -0.9510
   52CHL1  H21B 3828   2.152   5.031   7.851  0.4311 -0.6387 -0.1775
   52CHL1  H21C 3829   2.244   5.186   7.892 -1.4925  0.1265 -1.5388
   52CHL1   C22 3830   2.409   5.074   8.080  0.4515  0.2717  0.7717
   52CHL1  H22A 3831   2.496   5.007   8.096  1.6778  1.6068 -0.0154
   52CHL1  H22B 3832   2.447   5.171   8.040  3.0277 -1.7629 -2.1416
   52CHL1   C23 3833   2.332   5.113   8.212 -0.9001  0.8690  0.6928
   52CHL1  H23A 3834   2.275   5.209   8.209  0.1819  1.5150  0.3643
   52CHL1  H23B 3835   2.258   5.033   8.234 -2.8061  1.6546 -2.2800
   52CHL1   C24 3836   2.427   5.116   8.324  0.0492 -0.6435 -0.6866
   52CHL1  H24A 3837   2.479   5.019   8.335  2.7702  0.7337 -0.6597
   52CHL1  H24B 3838   2.504   5.192   8.298 -0.7042  1.1363  1.8502
   52CHL1   C25 3839   2.369   5.163   8.460  0.6641  0.4493  0.7949
   52CHL1   H25 3840   2.328   5.266   8.447 -0.1433  0.0268 -0.2271
   52CHL1   C26 3841   2.258   5.066   8.512  0.2928 -0.0755  0.2814
   52CHL1  H26A 3842   2.230   5.091   8.617  0.7616 -0.0981  0.4105
   52CHL1  H26B 3843   2.167   5.071   8.447  0.6552 -0.4744 -0.2623
   52CHL1  H26C 3844   2.308   4.967   8.514 -0.2618 -0.3652  0.2214
   52CHL1   C27 3845   2.478   5.173   8.562 -0.2403 -0.8644  0.0794
   52CHL1  H27A 3846   2.440   5.192   8.665 -3.5247  2.8425 -1.5330
   52CHL1  H27B 3847   2.533   5.077   8.573 -1.1006 -1.3960 -0.1917
   52CHL1  H27C 3848   2.543   5.259   8.533  1.0237 -1.3868  1.2803
   53CHL1    C3 3849   3.413   2.817   7.060 -0.0254  0.6935  0.3417
   53CHL1    H3 3850   3.519   2.785   7.053 -0.4906 -0.9128  0.3457
   53CHL1    O3 3851   3.349   2.774   6.938  0.5449  0.0309 -0.4611
   53CHL1   H3' 3852   3.402   2.822   6.874 -0.2523  0.3163 -0.9268
   53CHL1    C4 3853   3.341   2.743   7.180  0.2943  0.4893  0.1387
   53CHL1   H4A 3854   3.233   2.767   7.193  0.6073  1.7443  0.5584
   53CHL1   H4B 3855   3.354   2.633   7.171  0.4578  0.4871  0.3867
   53CHL1    C5 3856   3.411   2.787   7.306  0.2069 -0.1387 -0.2137
   53CHL1    C6 3857   3.463   2.707   7.393 -0.0419  1.3626  0.0230
   53CHL1    H6 3858   3.453   2.597   7.385 -1.1609  1.4951 -0.5608
   53CHL1    C7 3859   3.527   2.749   7.521  0.0173 -1.1049 -0.8861
   53CHL1   H7A 3860   3.498   2.689   7.610 -1.4636  0.6065 -0.1450
   53CHL1   H7B 3861   3.636   2.730   7.515  0.2849  0.0033  0.1846
   53CHL1    C8 3862   3.494   2.896   7.562  0.1263  1.0962 -0.8257
   53CHL1    H8 3863   3.389   2.901   7.598 -0.0925  1.2161 -1.4700
   53CHL1   C14 3864   3.588   2.942   7.671 -0.2674 -0.4488  0.2578
   53CHL1   H14 3865   3.689   2.935   7.625  0.5568  2.9451  1.2360
   53CHL1   C15 3866   3.599   2.863   7.800  0.2042 -1.0085 -0.4048
   53CHL1  H15A 3867   3.499   2.867   7.848 -0.3106 -1.8938 -1.3701
   53CHL1  H15B 3868   3.638   2.759   7.795  0.7399 -0.8791  0.7787
   53CHL1   C16 3869   3.687   2.954   7.886 -0.0169  0.0359 -0.3431
   53CHL1  H16A 3870   3.629   2.969   7.980  2.0215  0.4560  0.9086
   53CHL1  H16B 3871   3.783   2.912   7.922 -0.3618  0.2973  0.9269
   53CHL1   C17 3872   3.692   3.093   7.813 -0.4444 -0.0001 -0.1454
   53CHL1   H17 3873   3.791   3.096   7.762 -1.0521  0.2367 -1.3334
   53CHL1   C13 3874   3.577   3.092   7.709  0.6650  0.4945 -0.6286
   53CHL1   C18 3875   3.442   3.127   7.770  0.0849  0.3758  1.0649
   53CHL1  H18A 3876   3.426   3.104   7.878  0.4805  0.5144  1.1533
   53CHL1  H18B 3877   3.417   3.234   7.754  0.8715  0.1318 -2.4012
   53CHL1  H18C 3878   3.362   3.067   7.721  0.2732 -0.5912  1.9056
   53CHL1   C12 3879   3.604   3.175   7.587  0.0909  0.1101  0.5036
   53CHL1  H12A 3880   3.597   3.284   7.606 -1.3165  1.0439 -3.9733
   53CHL1  H12B 3881   3.698   3.144   7.536 -0.0628 -0.4703  0.5580
   53CHL1   C11 3882   3.493   3.147   7.478 -0.4895 -0.3136 -0.3803
   53CHL1  H11A 3883   3.391   3.180   7.506 -0.7388 -1.0316 -0.4123
   53CHL1  H11B 3884   3.516   3.214   7.392  2.4986 -0.1168  0.4639
   53CHL1    C9 3885   3.501   2.995   7.442 -0.4213  0.2438 -0.0012
   53CHL1    H9 3886   3.603   2.979   7.402  0.4895  0.1718  2.2493
   53CHL1   C10 3887   3.413   2.946   7.324 -0.4658 -0.0248  0.6974
   53CHL1   C19 3888   3.270   2.990   7.346  0.1588 -0.3938 -0.0171
   53CHL1  H19A 3889   3.195   2.946   7.277  1.2455 -0.2582 -1.3250
   53CHL1  H19B 3890   3.241   2.959   7.448  0.9178  1.6426  0.8555
   53CHL1  H19C 3891   3.261   3.101   7.341  1.2119 -0.2983  0.0594
   53CHL1    C1 3892   3.472   3.016   7.196 -0.3327  0.2641 -0.1728
   53CHL1   H1A 3893   3.462   3.125   7.214  0.0060  0.0374  1.5802
   53CHL1   H1B 3894   3.580   2.990   7.202 -0.5905 -0.5318  2.7355
   53CHL1    C2 3895   3.401   2.962   7.069  0.8796  0.3524  0.8132
   53CHL1   H2A 3896   3.435   3.013   6.976  0.1783  2.5420  1.6740
   53CHL1   H2B 3897   3.295   2.994   7.066  1.0050  1.3108 -4.9663
   53CHL1   C20 3898   3.693   3.216   7.921  0.7790  0.3877  0.7866
   53CHL1   H20 3899   3.597   3.203   7.974 -0.4562 -2.0118 -1.7655
   53CHL1   C21 3900   3.710   3.346   7.847  0.7982  0.0659  0.2911
   53CHL1  H21A 3901   3.619   3.379   7.792  0.5143  2.6145  2.0899
   53CHL1  H21B 3902   3.796   3.345   7.777  0.9479  1.2909  0.4325
   53CHL1  H21C 3903   3.728   3.425   7.923  0.8714  0.3516 -0.0164
   53CHL1   C22 3904   3.804   3.198   8.027  0.2103  0.5394 -0.1428
   53CHL1  H22A 3905   3.779   3.104   8.081 -1.3792  1.0530  0.0751
   53CHL1  H22B 3906   3.908   3.200   7.986 -0.4244 -0.0672 -1.8996
   53CHL1   C23 3907   3.810   3.291   8.148 -0.2622  0.9036  0.0761
   53CHL1  H23A 3908   3.837   3.392   8.109 -0.6800  0.5554 -1.1639
   53CHL1  H23B 3909   3.712   3.296   8.200 -0.8779 -0.3968 -0.9230
   53CHL1   C24 3910   3.916   3.247   8.240  0.0327 -0.5945 -0.1153
   53CHL1  H24A 3911   3.877   3.153   8.283 -0.5033 -0.2981  0.0500
   53CHL1  H24B 3912   4.018   3.243   8.195  0.6834  1.8385  0.9444
   53CHL1   C25 3913   3.949   3.335   8.365  0.1995  0.5984  0.3610
   53CHL1   H25 3914   3.992   3.433   8.334  2.9921 -0.9042 -0.8878
   53CHL1   C26 3915   3.817   3.345   8.448 -0.1594  0.5941  0.0215
   53CHL1  H26A 3916   3.794   3.263   8.519  0.6391  0.7621  0.4904
   53CHL1  H26B 3917   3.820   3.436   8.512 -4.8845 -1.1400  3.2960
   53CHL1  H26C 3918   3.731   3.359   8.380  0.2657  1.7217 -0.3036
   53CHL1   C27 3919   4.045   3.253   8.452 -0.4815 -0.6788  0.3318
   53CHL1  H27A 3920   4.000   3.154   8.472 -1.1032 -0.7793 -1.3616
   53CHL1  H27B 3921   4.134   3.231   8.389 -1.1805 -0.3113 -0.8256
   53CHL1  H27C 3922   4.064   3.300   8.550  2.2027 -0.1588 -0.3405
   54CHL1    C3 3923   4.990   4.130   6.962 -0.2061 -0.5121 -0.2936
   54CHL1    H3 3924   5.076   4.197   6.981  1.2100 -2.5692  0.8877
   54CHL1    O3 3925   4.951   4.135   6.826  0.5570  0.8052  0.1228
   54CHL1   H3' 3926   4.877   4.195   6.812 -1.0292 -1.1217 -0.1833
   54CHL1    C4 3927   5.029   3.992   7.018  0.8034 -0.2351 -0.2541
   54CHL1   H4A 3928   4.951   3.914   7.001  0.1154 -0.1542  2.1807
   54CHL1   H4B 3929   5.116   3.958   6.958  1.6020  2.7410 -0.9432
   54CHL1    C5 3930   5.058   3.989   7.170  0.5174  0.2055  0.1704
   54CHL1    C6 3931   5.175   3.944   7.217  0.4536 -0.5242  0.7072
   54CHL1    H6 3932   5.254   3.914   7.147  1.1476 -0.0311  1.2718
   54CHL1    C7 3933   5.213   3.933   7.360  0.3303  0.6409 -1.0581
   54CHL1   H7A 3934   5.247   3.831   7.389 -1.0633  0.5115  0.2863
   54CHL1   H7B 3935   5.295   4.005   7.377 -0.3631  2.0437 -3.2285
   54CHL1    C8 3936   5.090   3.955   7.454 -0.3687  0.7066  0.0818
   54CHL1    H8 3937   5.030   3.861   7.453  0.4677  0.1630 -0.7623
   54CHL1   C14 3938   5.136   3.986   7.600 -0.3934 -0.1076  0.4822
   54CHL1   H14 3939   5.183   4.086   7.593  1.0719 -0.8100 -0.0170
   54CHL1   C15 3940   5.242   3.900   7.673 -0.1996 -0.8041 -0.1275
   54CHL1  H15A 3941   5.213   3.794   7.656  2.1802 -1.1934 -2.4813
   54CHL1  H15B 3942   5.344   3.917   7.634  0.4509 -2.0773  0.9470
   54CHL1   C16 3943   5.216   3.929   7.826  0.1795 -0.2664 -0.7467
   54CHL1  H16A 3944   5.178   3.836   7.873 -1.1487  0.4367 -0.3711
   54CHL1  H16B 3945   5.307   3.960   7.882 -2.9538  4.1050  2.6604
   54CHL1   C17 3946   5.102   4.038   7.826 -0.1209  0.3454  0.0731
   54CHL1   H17 3947   5.164   4.126   7.799 -0.9642  1.3763  1.4176
   54CHL1   C13 3948   5.016   4.011   7.698  0.8905 -0.8245 -0.4207
   54CHL1   C18 3949   4.927   3.880   7.704 -0.4422 -0.0679  0.4154
   54CHL1  H18A 3950   4.894   3.855   7.601  2.0503 -0.3565 -0.3694
   54CHL1  H18B 3951   4.971   3.796   7.761 -2.6864 -0.8842  1.0603
   54CHL1  H18C 3952   4.838   3.899   7.768 -0.4675 -0.3189  0.4544
   54CHL1   C12 3953   4.934   4.135   7.647  0.0103 -0.1205 -0.6028
   54CHL1  H12A 3954   4.848   4.159   7.713  0.7999 -0.3109  0.5270
   54CHL1  H12B 3955   4.995   4.228   7.650 -1.7917  1.0739  1.0278
   54CHL1   C11 3956   4.882   4.110   7.509 -0.5592 -0.1671 -0.0161
   54CHL1  H11A 3957   4.799   4.038   7.520 -1.3642  0.6373 -0.6778
   54CHL1  H11B 3958   4.825   4.193   7.462 -1.0133  0.4143  1.5172
   54CHL1    C9 3959   4.995   4.073   7.403  0.0182  0.2050  0.0128
   54CHL1    H9 3960   5.061   4.163   7.406 -0.7652  0.8463 -1.0886
   54CHL1   C10 3961   4.947   4.053   7.254  0.4529 -1.0693 -0.0347
   54CHL1   C19 3962   4.831   3.953   7.267  0.4380  0.3450  0.3475
   54CHL1  H19A 3963   4.735   3.986   7.311  0.8746  2.5368 -0.1966
   54CHL1  H19B 3964   4.801   3.914   7.168  0.3823 -2.0145  1.2354
   54CHL1  H19C 3965   4.859   3.856   7.313  0.6936  0.8300  1.2531
   54CHL1    C1 3966   4.897   4.195   7.195 -0.6340  0.2567  0.4092
   54CHL1   H1A 3967   4.816   4.246   7.251 -0.7527  0.4961  0.0225
   54CHL1   H1B 3968   4.985   4.261   7.206 -0.8399  0.5711  0.1756
   54CHL1    C2 3969   4.867   4.185   7.046 -0.4664 -0.1333  0.3375
   54CHL1   H2A 3970   4.825   4.280   7.007 -1.3743 -0.4749  0.4468
   54CHL1   H2B 3971   4.790   4.106   7.031 -0.2404 -0.2231 -0.4168
   54CHL1   C20 3972   5.039   4.064   7.960  0.2505  0.3361 -0.9939
   54CHL1   H20 3973   4.969   3.979   7.971  2.0744 -1.3100 -1.5967
   54CHL1   C21 3974   4.965   4.197   7.959  0.3883 -0.1562 -0.1628
   54CHL1  H21A 3975   5.019   4.281   7.910  0.8440 -0.6228 -0.4757
   54CHL1  H21B 3976   4.945   4.234   8.062  1.2993 -1.0130  0.3323
   54CHL1  H21C 3977   4.868   4.173   7.910 -1.0252  0.2261  2.2885
   54CHL1   C22 3978   5.130   4.060   8.084  0.3199  0.0227 -0.0432
   54CHL1  H22A 3979   5.065   4.071   8.174  0.0840 -0.5621 -0.1337
   54CHL1  H22B 3980   5.161   3.955   8.103 -0.6566 -0.3143 -0.2708
   54CHL1   C23 3981   5.253   4.157   8.096 -0.0523  0.1002  0.1742
   54CHL1  H23A 3982   5.295   4.184   7.997  1.2882  1.1336  0.9938
   54CHL1  H23B 3983   5.202   4.248   8.134 -1.6073 -0.6410 -0.0737
   54CHL1   C24 3984   5.371   4.107   8.186  0.2362  0.3502  0.6967
   54CHL1  H24A 3985   5.335   4.070   8.284 -0.9880 -1.1684 -0.2806
   54CHL1  H24B 3986   5.410   4.019   8.131  2.5888  0.9946  1.2189
   54CHL1   C25 3987   5.492   4.195   8.196  0.0298  0.3029  0.3300
   54CHL1   H25 3988   5.497   4.253   8.101 -1.7765  0.7675  0.4686
   54CHL1   C26 3989   5.469   4.303   8.304 -0.1036 -0.0265 -0.7048
   54CHL1  H26A 3990   5.375   4.360   8.289 -0.5223  0.0794  1.8682
   54CHL1  H26B 3991   5.458   4.258   8.405 -0.6574  1.0437 -0.2776
   54CHL1  H26C 3992   5.551   4.377   8.302 -0.5391  0.4521 -1.1072
   54CHL1   C27 3993   5.625   4.118   8.217 -0.1268 -0.0124 -0.2889
   54CHL1  H27A 3994   5.622   4.048   8.303 -3.5728  0.3323  0.0114
   54CHL1  H27B 3995   5.645   4.049   8.132  0.1382 -0.6585  0.2927
   54CHL1  H27C 3996   5.710   4.188   8.230 -2.1665  2.2430  1.8086
   55CHL1    C3 3997   4.675   4.550   6.908  0.7128  0.6631 -0.2274
   55CHL1    H3 3998   4.636   4.448   6.930  0.5478  0.8717  0.4710
   55CHL1    O3 3999   4.670   4.572   6.769  0.0891 -0.0236  0.1893
   55CHL1   H3' 4000   4.726   4.505   6.729 -0.5695  1.3384 -3.4039
   55CHL1    C4 4001   4.574   4.654   6.977 -0.2856 -0.1984  0.1440
   55CHL1   H4A 4002   4.587   4.753   6.929 -0.7034 -0.6263 -0.9054
   55CHL1   H4B 4003   4.470   4.632   6.943 -0.7593  0.3260  1.2024
   55CHL1    C5 4004   4.581   4.655   7.128 -0.3383 -0.3042  0.3106
   55CHL1    C6 4005   4.467   4.639   7.204 -0.9057 -0.1263 -0.8255
   55CHL1    H6 4006   4.370   4.645   7.152 -0.3491  1.3074 -1.7566
   55CHL1    C7 4007   4.463   4.655   7.350  0.0641 -0.5636  0.1005
   55CHL1   H7A 4008   4.380   4.726   7.370  1.0692  1.1872 -1.6160
   55CHL1   H7B 4009   4.434   4.554   7.385 -0.8207 -0.4774 -0.3559
   55CHL1    C8 4010   4.602   4.700   7.406  0.5729  0.0106 -0.1265
   55CHL1    H8 4011   4.615   4.809   7.390 -0.0054  0.7473  3.5291
   55CHL1   C14 4012   4.592   4.663   7.552 -0.3908 -0.3509 -0.2848
   55CHL1   H14 4013   4.590   4.552   7.555 -1.2115 -0.3462 -0.5553
   55CHL1   C15 4014   4.486   4.720   7.642 -0.3564  0.4831  0.3430
   55CHL1  H15A 4015   4.488   4.830   7.627 -1.6531  0.5335  0.4425
   55CHL1  H15B 4016   4.388   4.671   7.620  0.4259 -0.9576 -0.0458
   55CHL1   C16 4017   4.532   4.674   7.781  0.8445  0.4135 -0.6732
   55CHL1  H16A 4018   4.522   4.759   7.852  0.9488 -0.5579  0.5349
   55CHL1  H16B 4019   4.480   4.585   7.821  1.2162  0.4561 -0.0845
   55CHL1   C17 4020   4.687   4.646   7.768  0.5747  0.3675 -0.7881
   55CHL1   H17 4021   4.705   4.536   7.758 -0.0856  0.3575 -2.1104
   55CHL1   C13 4022   4.724   4.694   7.628 -0.3248  0.5629 -0.3231
   55CHL1   C18 4023   4.760   4.844   7.636  0.2452 -0.5213 -0.2800
   55CHL1  H18A 4024   4.675   4.886   7.694 -1.2612 -2.7400 -0.7500
   55CHL1  H18B 4025   4.858   4.860   7.687  0.0172  0.6765 -0.1911
   55CHL1  H18C 4026   4.750   4.891   7.536  0.7518 -2.5189 -1.3233
   55CHL1   C12 4027   4.836   4.619   7.560  0.3537  0.3329  0.4631
   55CHL1  H12A 4028   4.920   4.635   7.631  2.4986 -2.8692 -1.0320
   55CHL1  H12B 4029   4.815   4.510   7.560  0.6975  0.2417 -0.8345
   55CHL1   C11 4030   4.850   4.653   7.410  0.3989  0.0554 -0.4614
   55CHL1  H11A 4031   4.875   4.761   7.405 -3.3401  1.0515 -1.0501
   55CHL1  H11B 4032   4.929   4.597   7.355 -0.1678 -0.1321 -1.1011
   55CHL1    C9 4033   4.718   4.631   7.336  0.3714  0.0839  0.1485
   55CHL1    H9 4034   4.694   4.523   7.348 -2.0037  0.5625  0.2956
   55CHL1   C10 4035   4.726   4.668   7.183 -0.1190  0.5473  0.0462
   55CHL1   C19 4036   4.785   4.809   7.161  0.2341  0.1100 -0.3429
   55CHL1  H19A 4037   4.896   4.804   7.166  0.2227 -0.4715 -0.6217
   55CHL1  H19B 4038   4.759   4.853   7.063 -0.4261  0.5731  0.0344
   55CHL1  H19C 4039   4.739   4.866   7.245  0.7710 -0.6375  0.4883
   55CHL1    C1 4040   4.818   4.562   7.114  0.6844 -0.5248 -0.6808
   55CHL1   H1A 4041   4.922   4.581   7.149  0.1998 -1.1512  1.1940
   55CHL1   H1B 4042   4.800   4.464   7.162  0.7744  0.2617  1.0284
   55CHL1    C2 4043   4.816   4.562   6.963 -0.3055  0.0552  0.0550
   55CHL1   H2A 4044   4.891   4.497   6.913  0.6376  2.8467 -2.4785
   55CHL1   H2B 4045   4.851   4.659   6.923  3.3683 -1.4842 -0.8459
   55CHL1   C20 4046   4.766   4.683   7.891 -0.3080 -0.4578 -0.3888
   55CHL1   H20 4047   4.737   4.788   7.911 -1.6458 -0.8917  0.0660
   55CHL1   C21 4048   4.921   4.661   7.888  0.0958  0.0511 -0.1075
   55CHL1  H21A 4049   4.968   4.732   7.816  1.3290  0.6879  1.2823
   55CHL1  H21B 4050   4.936   4.557   7.852  0.0588  0.0013  0.0211
   55CHL1  H21C 4051   4.964   4.688   7.986 -0.9530  1.4427  0.0035
   55CHL1   C22 4052   4.705   4.610   8.014 -0.0515  0.1742 -0.1660
   55CHL1  H22A 4053   4.596   4.594   8.005  0.1393 -0.9354 -0.6980
   55CHL1  H22B 4054   4.757   4.512   8.004  0.3225  0.1918  1.2882
   55CHL1   C23 4055   4.726   4.679   8.147 -0.2114  0.4699 -0.7378
   55CHL1  H23A 4056   4.831   4.707   8.166  0.2972 -0.6998 -1.7221
   55CHL1  H23B 4057   4.661   4.770   8.148 -0.6160  0.1858 -0.0590
   55CHL1   C24 4058   4.686   4.585   8.261  0.1331  0.2046 -0.9388
   55CHL1  H24A 4059   4.577   4.566   8.255  0.0173  0.0803  0.7777
   55CHL1  H24B 4060   4.740   4.488   8.247 -1.4552 -0.7668 -0.5760
   55CHL1   C25 4061   4.737   4.630   8.404  0.0152  0.2580  0.0702
   55CHL1   H25 4062   4.684   4.567   8.479 -0.4435 -0.0084 -0.4678
   55CHL1   C26 4063   4.887   4.613   8.421 -0.5349 -0.0403  0.4643
   55CHL1  H26A 4064   4.939   4.694   8.477  0.3515  0.8087 -1.5086
   55CHL1  H26B 4065   4.912   4.514   8.464  1.4080 -2.0023 -4.5008
   55CHL1  H26C 4066   4.932   4.620   8.320  1.8881 -0.2766  1.4602
   55CHL1   C27 4067   4.705   4.773   8.438  0.2838 -0.1558 -0.2425
   55CHL1  H27A 4068   4.772   4.846   8.388 -1.0109  0.1414 -1.6133
   55CHL1  H27B 4069   4.607   4.796   8.391  1.6585  0.8675 -2.7600
   55CHL1  H27C 4070   4.711   4.776   8.549 -1.9083 -1.3634 -0.0293
   56CHL1    C3 4071   4.333   4.313   6.895  0.1139 -0.0325  1.1185
   56CHL1    H3 4072   4.359   4.417   6.923  1.3396  0.3389 -1.1257
   56CHL1    O3 4073   4.339   4.288   6.755  0.1439 -0.1690  0.8278
   56CHL1   H3' 4074   4.340   4.380   6.730 -0.0596 -0.4511 -0.2401
   56CHL1    C4 4075   4.434   4.224   6.959  0.5684 -0.5633 -0.0498
   56CHL1   H4A 4076   4.421   4.119   6.925  0.5866 -0.8608  0.8494
   56CHL1   H4B 4077   4.537   4.244   6.922  0.0575 -1.2425 -1.9652
   56CHL1    C5 4078   4.430   4.235   7.113 -0.0978 -0.3192 -0.7530
   56CHL1    C6 4079   4.535   4.268   7.184 -0.6668  0.2928  0.3930
   56CHL1    H6 4080   4.634   4.288   7.141 -1.5737  0.6233 -1.6815
   56CHL1    C7 4081   4.542   4.273   7.335 -0.1972 -0.1621  0.1346
   56CHL1   H7A 4082   4.626   4.215   7.379  0.0361 -0.2824 -0.4589
   56CHL1   H7B 4083   4.555   4.379   7.365  1.7820 -0.8432  1.9285
   56CHL1    C8 4084   4.419   4.227   7.414  1.0296  0.5197  0.2200
   56CHL1    H8 4085   4.426   4.117   7.410 -0.6668  0.3697  0.4487
   56CHL1   C14 4086   4.414   4.283   7.553  0.0669  0.2932 -1.3859
   56CHL1   H14 4087   4.408   4.394   7.544 -1.4715  0.2623 -1.1343
   56CHL1   C15 4088   4.538   4.259   7.633  0.0858 -0.7100  0.4917
   56CHL1  H15A 4089   4.568   4.152   7.625 -0.9378 -0.9973  0.3720
   56CHL1  H15B 4090   4.611   4.331   7.593 -1.5579  0.2558 -0.9185
   56CHL1   C16 4091   4.494   4.287   7.778 -0.4465 -0.4155 -0.2816
   56CHL1  H16A 4092   4.530   4.198   7.834 -1.1810 -1.0184 -0.7510
   56CHL1  H16B 4093   4.539   4.383   7.814 -0.5943 -0.1324 -0.8521
   56CHL1   C17 4094   4.335   4.298   7.775  0.0653  0.0021  0.1421
   56CHL1   H17 4095   4.306   4.405   7.766 -1.8402 -0.2556  2.2485
   56CHL1   C13 4096   4.296   4.236   7.639  0.1687  0.1254 -0.0441
   56CHL1   C18 4097   4.308   4.085   7.653  0.8019  0.5328 -1.1534
   56CHL1  H18A 4098   4.213   4.046   7.694  0.1323  3.5108  0.3847
   56CHL1  H18B 4099   4.321   4.036   7.554  2.3318 -3.6188  0.8683
   56CHL1  H18C 4100   4.398   4.068   7.716  0.2450  1.7705  0.0306
   56CHL1   C12 4101   4.174   4.287   7.568 -0.7323 -0.4296 -0.8122
   56CHL1  H12A 4102   4.083   4.257   7.623  0.3461  1.6614  2.3906
   56CHL1  H12B 4103   4.184   4.397   7.553 -0.7899 -0.6347 -2.6239
   56CHL1   C11 4104   4.163   4.237   7.423  0.1830 -0.1238  0.1874
   56CHL1  H11A 4105   4.134   4.130   7.420 -1.2191  0.2591 -0.5244
   56CHL1  H11B 4106   4.080   4.289   7.372 -0.9923 -2.2396 -0.1513
   56CHL1    C9 4107   4.295   4.266   7.333  0.0288  0.2048 -0.0556
   56CHL1    H9 4108   4.295   4.377   7.327  0.8483  0.1325 -2.2144
   56CHL1   C10 4109   4.294   4.219   7.178  0.3179  0.3171 -0.1001
   56CHL1   C19 4110   4.256   4.062   7.174  0.2843 -0.4043  0.2410
   56CHL1  H19A 4111   4.342   4.003   7.214 -0.1330 -1.1605  0.0420
   56CHL1  H19B 4112   4.165   4.050   7.236  0.5548 -1.9683  0.3728
   56CHL1  H19C 4113   4.244   4.031   7.067 -0.5173 -1.2026  0.5486
   56CHL1    C1 4114   4.190   4.293   7.099 -0.4284  0.0183 -0.1454
   56CHL1   H1A 4115   4.088   4.271   7.138  0.5287 -0.4094  2.2693
   56CHL1   H1B 4116   4.195   4.398   7.135 -0.7213 -0.2350  0.6471
   56CHL1    C2 4117   4.191   4.283   6.951  0.2004 -0.4446 -0.1507
   56CHL1   H2A 4118   4.121   4.350   6.897 -0.7381 -2.5386 -1.6811
   56CHL1   H2B 4119   4.174   4.174   6.933  1.8829 -1.0967  1.7501
   56CHL1   C20 4120   4.263   4.246   7.897 -0.6059 -0.1863  0.0553
   56CHL1   H20 4121   4.284   4.138   7.909 -2.0742 -0.6642 -1.3357
   56CHL1   C21 4122   4.108   4.253   7.893 -0.1379  0.0238 -0.0503
   56CHL1  H21A 4123   4.060   4.185   7.819 -2.1251  0.7166  0.5294
   56CHL1  H21B 4124   4.062   4.354   7.892  0.7611  0.4414  0.2249
   56CHL1  H21C 4125   4.070   4.206   7.986  0.7394  0.5872  0.5978
   56CHL1   C22 4126   4.314   4.328   8.019 -0.0136  0.0458 -0.0112
   56CHL1  H22A 4127   4.425   4.326   8.013  0.0480  2.1359 -0.0197
   56CHL1  H22B 4128   4.294   4.437   8.021  1.7148  0.4367 -1.3359
   56CHL1   C23 4129   4.273   4.278   8.156  0.6026  0.0764  0.3407
   56CHL1  H23A 4130   4.164   4.288   8.176  0.3906  0.3004 -0.8504
   56CHL1  H23B 4131   4.293   4.169   8.161  1.8966  0.3363  1.2031
   56CHL1   C24 4132   4.361   4.332   8.267  0.3926  0.1393 -0.1870
   56CHL1  H24A 4133   4.468   4.313   8.245 -0.0397  0.2088 -2.5323
   56CHL1  H24B 4134   4.347   4.441   8.283 -0.3397  0.2013 -1.1594
   56CHL1   C25 4135   4.333   4.259   8.400  0.8663  0.0326 -0.2072
   56CHL1   H25 4136   4.331   4.151   8.376  1.4747  0.6773 -3.5593
   56CHL1   C26 4137   4.439   4.286   8.503  0.3434 -0.6073  0.0368
   56CHL1  H26A 4138   4.530   4.229   8.474  0.7955 -0.6446  1.4170
   56CHL1  H26B 4139   4.413   4.259   8.608 -1.5761  1.6457  0.2181
   56CHL1  H26C 4140   4.453   4.396   8.501  1.2679 -0.6194 -4.4715
   56CHL1   C27 4141   4.194   4.301   8.451  0.3691  0.0766 -0.4724
   56CHL1  H27A 4142   4.193   4.411   8.458 -0.2060  0.0588 -0.2161
   56CHL1  H27B 4143   4.115   4.263   8.382 -0.3271  2.0558 -0.8341
   56CHL1  H27C 4144   4.173   4.262   8.553 -2.5026 -0.9620 -1.3487
   57SAPC     N 4145   3.461   1.395  10.960  0.4234  0.0263 -0.0521
   57SAPC   C12 4146   3.549   1.312  10.873 -0.7644  0.2395  0.4213
   57SAPC  H12A 4147   3.651   1.302  10.907 -0.2806  0.7823 -0.8095
   57SAPC  H12B 4148   3.554   1.360  10.776 -0.1579  0.1600  0.4099
   57SAPC   C13 4149   3.329   1.421  10.899  0.3914  0.1798  0.0314
   57SAPC  H13A 4150   3.344   1.473  10.806 -0.8309  0.7676  0.1395
   57SAPC  H13B 4151   3.282   1.325  10.886 -0.5320  0.4145  1.3650
   57SAPC  H13C 4152   3.268   1.489  10.957 -0.2524  0.8802 -1.4263
   57SAPC   C14 4153   3.447   1.344  11.103  0.1797  0.7827 -0.4110
   57SAPC  H14A 4154   3.534   1.349  11.168 -1.6094  0.2242  2.2055
   57SAPC  H14B 4155   3.367   1.398  11.152  0.3518  3.2350 -2.6237
   57SAPC  H14C 4156   3.411   1.243  11.093  0.7324  0.4416  0.7622
   57SAPC   C15 4157   3.529   1.529  10.975 -0.3737 -0.1714 -0.9331
   57SAPC  H15A 4158   3.616   1.522  11.038 -2.4124 -0.5700  1.9936
   57SAPC  H15B 4159   3.563   1.577  10.884  0.9620  0.3343 -0.1979
   57SAPC  H15C 4160   3.463   1.596  11.027  0.5278  1.0829 -1.3509
   57SAPC   C11 4161   3.506   1.164  10.840 -0.2123 -0.1913 -0.3169
   57SAPC  H11A 4162   3.449   1.110  10.918 -2.6691  2.5573 -0.0749
   57SAPC  H11B 4163   3.589   1.093  10.818  0.1016 -0.1102  0.5822
   57SAPC     P 4164   3.474   1.208  10.578 -0.4220 -0.2782  0.2021
   57SAPC   O13 4165   3.359   1.272  10.505 -0.2811  0.1559  0.3667
   57SAPC   O14 4166   3.598   1.288  10.594 -0.3411  0.0850  0.4121
   57SAPC   O12 4167   3.422   1.176  10.725 -0.0744 -0.1657 -0.1484
   57SAPC   O11 4168   3.508   1.061  10.518 -0.0045 -0.4317  0.0421
   57SAPC    C1 4169   3.611   1.061  10.416  0.4169  0.0803 -0.1051
   57SAPC    HA 4170   3.694   1.133  10.429  0.9449  0.2181 -3.4070
   57SAPC    HB 4171   3.658   0.961  10.406  0.9305  0.2270  0.7776
   57SAPC    C2 4172   3.556   1.087  10.271 -0.3195 -0.0739 -0.1290
   57SAPC    HS 4173   3.519   1.191  10.269 -2.7837 -0.8702  0.1857
   57SAPC   O21 4174   3.455   0.988  10.243 -0.2666  0.6930 -0.6002
   57SAPC   C21 4175   3.346   1.024  10.168 -1.1569 -0.4442  0.3321
   57SAPC   O22 4176   3.342   1.123  10.102 -0.4287 -0.2576 -0.2757
   57SAPC   C22 4177   3.244   0.920  10.171  0.4380 -0.0323  0.0692
   57SAPC   H2R 4178   3.292   0.822  10.193  0.7451  0.0526 -0.2120
   57SAPC   H2S 4179   3.177   0.942  10.257 -0.7271  0.0687 -0.8436
   57SAPC    C3 4180   3.667   1.067  10.166 -0.3369  0.5942  0.2777
   57SAPC    HX 4181   3.691   0.959  10.179  0.1598  0.4479 -1.6516
   57SAPC    HY 4182   3.753   1.131  10.195 -2.0576  1.9243  2.9506
   57SAPC   O31 4183   3.624   1.083  10.028 -0.4173  0.2533  0.0873
   57SAPC   C31 4184   3.620   1.211   9.985  0.1039  0.6713 -0.3429
   57SAPC   O32 4185   3.678   1.303  10.043 -0.6312 -0.6297  0.0662
   57SAPC   C32 4186   3.521   1.210   9.872  0.6277 -0.6421  0.1235
   57SAPC   H2X 4187   3.419   1.166   9.884  0.3263  0.1680  0.6204
   57SAPC   H2Y 4188   3.571   1.151   9.792  2.7015  0.8714  0.2271
   57SAPC   C23 4189   3.154   0.923  10.050  0.0129 -0.0031  0.7022
   57SAPC   H3R 4190   3.201   0.931   9.949  1.8315  3.3035  1.6595
   57SAPC   H3S 4191   3.094   1.016  10.057  0.3338  0.1819  1.0564
   57SAPC   C24 4192   3.047   0.805  10.056 -0.3183 -0.3193 -0.4326
   57SAPC   H4R 4193   2.961   0.832   9.992 -2.3167 -0.1468  2.1684
   57SAPC   H4S 4194   3.003   0.800  10.158 -0.0435 -0.2847 -0.3103
   57SAPC   C25 4195   3.113   0.670  10.034  0.5397 -0.1108  0.1012
   57SAPC   H5R 4196   3.190   0.650  10.111  0.3956  0.1491  0.3163
   57SAPC   C26 4197   3.086   0.584   9.934  0.3949  0.1993 -0.6363
   57SAPC   H6R 4198   3.137   0.488   9.917  0.5337  0.0947  0.3124
   57SAPC   C27 4199   2.983   0.607   9.830 -0.5053 -0.3485  0.3302
   57SAPC   H7R 4200   3.004   0.529   9.753  0.4071 -1.8758  2.0311
   57SAPC   H7S 4201   3.017   0.701   9.783 -0.5383 -0.0881  0.8220
   57SAPC   C28 4202   2.836   0.606   9.866  0.1165 -0.5117  0.3938
   57SAPC   H8R 4203   2.809   0.605   9.973 -1.2175 -3.9968  0.1610
   57SAPC   C29 4204   2.740   0.614   9.778  0.0426  0.3307 -0.0313
   57SAPC   H9R 4205   2.636   0.589   9.805  0.4975  1.6189  3.2901
   57SAPC  C210 4206   2.766   0.629   9.629 -0.0517  0.1416 -0.2331
   57SAPC  H10R 4207   2.874   0.643   9.605  0.6016 -0.9214  1.8255
   57SAPC  H10S 4208   2.733   0.733   9.607 -1.4323 -0.3173 -0.4551
   57SAPC  C211 4209   2.694   0.541   9.540 -0.4773  0.5497  0.3866
   57SAPC  H11R 4210   2.670   0.439   9.573  0.4430  0.3545  0.4724
   57SAPC  C212 4211   2.643   0.578   9.422 -0.8869 -0.2589  0.2297
   57SAPC  H12R 4212   2.588   0.505   9.362 -0.6678 -1.2877  1.2578
   57SAPC  C213 4213   2.665   0.716   9.359 -0.2096 -0.2192 -0.0762
   57SAPC  H13R 4214   2.760   0.765   9.389  1.1306 -1.4850 -1.9595
   57SAPC  H13S 4215   2.591   0.790   9.395 -0.2820  1.1093 -2.6872
   57SAPC  C214 4216   2.648   0.737   9.205  0.1290  0.2075  0.4119
   57SAPC  H14R 4217   2.551   0.782   9.177 -0.8771 -2.1922 -0.1388
   57SAPC  C215 4218   2.736   0.712   9.111 -0.5206 -0.8988 -0.1303
   57SAPC  H15R 4219   2.720   0.739   9.006  5.6420 -0.5262 -1.3519
   57SAPC  C216 4220   2.871   0.655   9.140  0.3361 -0.1911  0.0094
   57SAPC  H16R 4221   2.890   0.579   9.061 -1.0297  0.6944 -1.2311
   57SAPC  H16S 4222   2.878   0.605   9.239 -0.5466  0.9088  0.6485
   57SAPC  C217 4223   2.983   0.764   9.134 -0.0095 -0.2246 -0.0410
   57SAPC  H17R 4224   3.063   0.734   9.205  1.5085 -0.0842 -1.6086
   57SAPC  H17S 4225   2.943   0.862   9.166  0.3796 -0.3519  0.8516
   57SAPC  C218 4226   3.041   0.799   8.994 -0.2614 -0.3048  0.2239
   57SAPC  H18R 4227   2.961   0.851   8.937  1.8613 -0.2228 -2.8738
   57SAPC  H18S 4228   3.052   0.708   8.932 -1.6670 -1.1128  1.1111
   57SAPC  C219 4229   3.165   0.890   8.995 -0.1914 -0.7485  0.7982
   57SAPC  H19R 4230   3.226   0.827   9.063 -1.3928 -1.2615  1.4526
   57SAPC  H19S 4231   3.152   0.984   9.053 -0.0367 -0.6910  0.7367
   57SAPC  C220 4232   3.215   0.917   8.858  0.6039 -0.2550 -0.3582
   57SAPC  H20R 4233   3.321   0.950   8.860  0.1833  1.2143 -0.6924
   57SAPC  H20S 4234   3.153   0.996   8.810 -1.2853 -0.9685  0.7902
   57SAPC  H20T 4235   3.200   0.829   8.792 -0.0692  0.0151 -0.5784
   57SAPC   C33 4236   3.518   1.354   9.814  0.4489 -0.0864  0.8246
   57SAPC   H3X 4237   3.615   1.399   9.783 -0.4783  1.6371  0.3433
   57SAPC   H3Y 4238   3.462   1.429   9.873 -2.0016  0.8573 -2.3909
   57SAPC   C34 4239   3.440   1.335   9.686  0.3929  0.3510  0.6620
   57SAPC   H4X 4240   3.332   1.316   9.707  0.3138 -0.5088 -0.4043
   57SAPC   H4Y 4241   3.470   1.246   9.627 -0.1661 -0.3091  1.3510
   57SAPC   C35 4242   3.440   1.453   9.595  0.5388  0.4169  0.8884
   57SAPC   H5X 4243   3.398   1.546   9.640 -0.7882 -0.0916  0.7337
   57SAPC   H5Y 4244   3.382   1.428   9.503  0.3560  1.4768  0.7007
   57SAPC   C36 4245   3.574   1.492   9.522 -0.2120 -0.3157 -0.2564
   57SAPC   H6X 4246   3.626   1.408   9.472 -1.9258  0.1777 -3.0305
   57SAPC   H6Y 4247   3.647   1.534   9.595  0.3651 -1.0021 -0.4293
   57SAPC   C37 4248   3.558   1.588   9.419  0.5186  0.8694  0.3944
   57SAPC   H7X 4249   3.491   1.670   9.452  1.5351  2.1455 -0.6295
   57SAPC   H7Y 4250   3.502   1.539   9.336 -1.8611 -0.3595  2.5453
   57SAPC   C38 4251   3.690   1.656   9.385 -0.2362 -0.4330  0.6394
   57SAPC   H8X 4252   3.753   1.578   9.336  0.1958 -0.2452  0.8906
   57SAPC   H8Y 4253   3.741   1.686   9.479 -0.4463 -1.3798  1.0719
   57SAPC   C39 4254   3.690   1.785   9.294  0.0929  0.4710  0.0883
   57SAPC   H9X 4255   3.793   1.827   9.286  0.5997 -0.8986 -0.9743
   57SAPC   H9Y 4256   3.617   1.860   9.332 -0.5936  0.3849 -1.0248
   57SAPC  C310 4257   3.641   1.755   9.152 -0.2366 -0.1565 -0.2274
   57SAPC  H10X 4258   3.534   1.727   9.148 -0.8611  2.0244 -0.2305
   57SAPC  H10Y 4259   3.697   1.669   9.109 -1.4345 -0.7254 -0.6785
   57SAPC  C311 4260   3.664   1.870   9.052  0.0555  0.4704  0.3612
   57SAPC  H11X 4261   3.766   1.911   9.068 -0.7061  2.6015  0.0878
   57SAPC  H11Y 4262   3.585   1.948   9.065  1.3045  1.8939 -0.2863
   57SAPC  C312 4263   3.654   1.839   8.904  0.2818 -0.4404 -0.2318
   57SAPC  H12X 4264   3.550   1.809   8.879 -0.3995  1.4352  0.2136
   57SAPC  H12Y 4265   3.723   1.753   8.886  0.4603  0.3660 -4.0371
   57SAPC  C313 4266   3.704   1.954   8.820 -0.8042 -0.5246  0.4976
   57SAPC  H13X 4267   3.629   2.034   8.841 -1.4025 -0.9649  0.0686
   57SAPC  H13Y 4268   3.687   1.943   8.711  2.1148 -1.1645  0.0425
   57SAPC  C314 4269   3.854   1.993   8.845  0.1681 -0.4098 -0.3689
   57SAPC  H14X 4270   3.912   1.904   8.877 -0.8883 -2.0243 -2.6934
   57SAPC  H14Y 4271   3.846   2.062   8.932 -1.2161 -0.0770 -0.7334
   57SAPC  C315 4272   3.905   2.059   8.713 -0.5649  0.4855  0.0044
   57SAPC  H15X 4273   3.843   2.150   8.697 -1.0581  0.1951  0.2456
   57SAPC  H15Y 4274   3.873   1.988   8.634  0.2718  0.7514 -0.5856
   57SAPC  C316 4275   4.053   2.097   8.715  0.9007 -0.4629  0.1074
   57SAPC  H16X 4276   4.116   2.032   8.780  2.4746  0.0649 -0.8456
   57SAPC  H16Y 4277   4.059   2.201   8.753 -0.5372  0.5108 -2.1539
   57SAPC  C317 4278   4.116   2.106   8.575  0.2558  0.0994 -0.4305
   57SAPC  H17X 4279   4.222   2.138   8.582  0.5701 -1.0235  0.1703
   57SAPC  H17Y 4280   4.058   2.184   8.520 -1.2883 -0.9318 -0.3324
   57SAPC  C318 4281   4.111   1.978   8.490 -0.0258  0.2025  0.0035
   57SAPC  H18X 4282   4.129   1.892   8.558 -0.4847 -0.0756 -0.2223
   57SAPC  H18Y 4283   4.177   1.981   8.400  0.0796 -3.6324 -0.1832
   57SAPC  H18Z 4284   4.007   1.957   8.456  0.7560 -1.4182 -1.5868
   58SAPC     N 4285   6.426   5.799  11.123 -0.2351 -0.6528  0.0167
   58SAPC   C12 4286   6.461   5.862  10.995 -0.9666  0.5770  0.9243
   58SAPC  H12A 4287   6.507   5.793  10.926 -2.3610  1.5229 -1.0537
   58SAPC  H12B 4288   6.544   5.929  11.015 -0.4158  0.8135 -1.7853
   58SAPC   C13 4289   6.548   5.783  11.205  0.5910  0.2793 -0.1165
   58SAPC  H13A 4290   6.606   5.874  11.200 -0.7380  1.2380  0.9860
   58SAPC  H13B 4291   6.528   5.775  11.311  1.6350 -0.7273  0.0304
   58SAPC  H13C 4292   6.607   5.698  11.175 -0.2338 -2.0980  4.1406
   58SAPC   C14 4293   6.337   5.888  11.204  0.0763 -0.0359 -0.2272
   58SAPC  H14A 4294   6.234   5.885  11.173 -0.1748  1.5832  0.3892
   58SAPC  H14B 4295   6.330   5.854  11.307 -0.7097 -1.6719 -0.7761
   58SAPC  H14C 4296   6.367   5.991  11.207  2.2229 -0.6217  1.7454
   58SAPC   C15 4297   6.361   5.662  11.108  0.5388 -0.8516 -0.1186
   58SAPC  H15A 4298   6.436   5.588  11.086  0.5405 -1.0557  0.5590
   58SAPC  H15B 4299   6.323   5.617  11.199  0.8317  0.7289  0.8156
   58SAPC  H15C 4300   6.275   5.658  11.043  0.2894  0.7365  0.0644
   58SAPC   C11 4301   6.347   5.930  10.914  0.4225 -0.3206 -0.4588
   58SAPC  H11A 4302   6.402   5.984  10.834  0.7729  1.9778  1.2489
   58SAPC  H11B 4303   6.303   6.010  10.977  0.9096 -0.8970  0.6451
   58SAPC     P 4304   6.266   5.778  10.718 -0.1693  0.1000 -0.0998
   58SAPC   O13 4305   6.410   5.748  10.689  0.0384 -0.4318  0.1381
   58SAPC   O14 4306   6.176   5.662  10.707  0.2873 -0.0283 -0.7236
   58SAPC   O12 4307   6.249   5.844  10.856 -0.9127 -0.0404  0.2937
   58SAPC   O11 4308   6.217   5.891  10.616  0.2000 -0.2983  0.1753
   58SAPC    C1 4309   6.213   5.863  10.481  0.2395 -0.6164 -0.0826
   58SAPC    HA 4310   6.211   5.754  10.464 -1.7111 -0.3522 -1.9162
   58SAPC    HB 4311   6.122   5.915  10.444  0.9507  0.2849 -0.6235
   58SAPC    C2 4312   6.329   5.923  10.399  0.0047 -0.0796 -0.0612
   58SAPC    HS 4313   6.411   5.849  10.409 -0.2428 -0.2707  0.6327
   58SAPC   O21 4314   6.372   6.042  10.465  0.2878 -0.3494 -0.2908
   58SAPC   C21 4315   6.502   6.062  10.479  0.2893 -0.0919  0.0935
   58SAPC   O22 4316   6.592   5.994  10.427  0.1655 -0.2633  0.0520
   58SAPC   C22 4317   6.525   6.170  10.581  0.0214 -0.0662  0.4647
   58SAPC   H2R 4318   6.440   6.239  10.564  0.3802  0.3568  0.3672
   58SAPC   H2S 4319   6.510   6.114  10.676  2.7336  0.4206  1.2697
   58SAPC    C3 4320   6.272   5.954  10.259  0.0644 -0.5050 -0.3327
   58SAPC    HX 4321   6.216   6.050  10.257  0.7851 -0.0439  0.7224
   58SAPC    HY 4322   6.189   5.882  10.239  1.2919 -1.4100 -2.5566
   58SAPC   O31 4323   6.364   5.951  10.151  0.0940  0.2054 -0.6623
   58SAPC   C31 4324   6.401   5.831  10.112  0.2277 -0.2098 -0.1419
   58SAPC   O32 4325   6.350   5.727  10.154  0.1351  0.0039  0.1612
   58SAPC   C32 4326   6.510   5.848  10.015  0.0192 -0.5228 -0.3834
   58SAPC   H2X 4327   6.564   5.752   9.998  1.2707  0.1339 -0.2781
   58SAPC   H2Y 4328   6.588   5.914  10.059 -1.1861  1.5929 -1.2737
   58SAPC   C23 4329   6.662   6.239  10.573 -0.3294 -0.5450  0.0542
   58SAPC   H3R 4330   6.749   6.175  10.599 -0.4599 -1.6001 -1.8825
   58SAPC   H3S 4331   6.664   6.319  10.649  0.0792  2.5967 -3.0068
   58SAPC   C24 4332   6.687   6.306  10.439 -1.3116  0.2740 -0.1796
   58SAPC   H4R 4333   6.713   6.238  10.356  0.6339  0.4236  0.2608
   58SAPC   H4S 4334   6.785   6.354  10.459 -1.5479  0.0581  1.6800
   58SAPC   C25 4335   6.581   6.409  10.390 -0.3017 -0.2497  0.5212
   58SAPC   H5R 4336   6.528   6.464  10.470 -1.0440 -0.7805  0.3995
   58SAPC   C26 4337   6.560   6.454  10.262  0.0248 -0.5925  0.0956
   58SAPC   H6R 4338   6.473   6.519  10.250 -0.7970 -2.0853 -3.0920
   58SAPC   C27 4339   6.627   6.429  10.131 -0.3352 -0.6662 -0.7250
   58SAPC   H7R 4340   6.730   6.470  10.134 -1.5554  2.8234 -1.5466
   58SAPC   H7S 4341   6.570   6.486  10.055  0.3525  0.6398 -0.2917
   58SAPC   C28 4342   6.620   6.283  10.096 -0.6055 -1.2296 -0.0101
   58SAPC   H8R 4343   6.590   6.212  10.175  1.7491 -1.4532  0.7447
   58SAPC   C29 4344   6.663   6.232   9.980 -0.5737 -0.4073 -0.2481
   58SAPC   H9R 4345   6.652   6.126   9.953  1.3906 -0.8134  0.4218
   58SAPC  C210 4346   6.722   6.322   9.867  0.1179  1.0256  0.3190
   58SAPC  H10R 4347   6.784   6.402   9.912  2.8148 -1.4773  1.3414
   58SAPC  H10S 4348   6.640   6.357   9.801 -0.9569 -1.8860 -0.0604
   58SAPC  C211 4349   6.818   6.225   9.791  0.2049 -0.0126  0.1111
   58SAPC  H11R 4350   6.865   6.139   9.841  0.9423  1.2461  1.6932
   58SAPC  C212 4351   6.834   6.248   9.656 -0.0250  0.0314 -0.8934
   58SAPC  H12R 4352   6.906   6.184   9.603 -0.8071 -3.6091  1.9787
   58SAPC  C213 4353   6.774   6.362   9.577 -0.4836  0.5926  0.0940
   58SAPC  H13R 4354   6.747   6.450   9.640  0.8601  1.7273 -0.8821
   58SAPC  H13S 4355   6.673   6.324   9.548 -0.9165  0.9210  1.1115
   58SAPC  C214 4356   6.857   6.409   9.457  0.7733  0.1566  0.1382
   58SAPC  H14R 4357   6.921   6.498   9.463  0.7259  0.0843  2.2921
   58SAPC  C215 4358   6.848   6.352   9.331  0.0420 -0.0385 -0.6101
   58SAPC  H15R 4359   6.905   6.395   9.249 -0.0176 -1.4885 -1.4498
   58SAPC  C216 4360   6.754   6.242   9.284  0.5652  0.0195  0.3843
   58SAPC  H16R 4361   6.669   6.298   9.240  0.5264  0.3746  0.8921
   58SAPC  H16S 4362   6.720   6.177   9.367  0.2235  1.1493  1.1593
   58SAPC  C217 4363   6.824   6.160   9.178  0.1591  0.1662 -0.1025
   58SAPC  H17R 4364   6.916   6.116   9.221 -2.0511 -0.8780  4.1229
   58SAPC  H17S 4365   6.830   6.225   9.088 -0.0741  0.9899  0.4698
   58SAPC  C218 4366   6.739   6.035   9.145  0.6724 -0.0216  0.1888
   58SAPC  H18R 4367   6.638   6.068   9.114  0.9326  1.2290  0.5805
   58SAPC  H18S 4368   6.707   5.979   9.236 -0.1243  0.1867  0.0464
   58SAPC  C219 4369   6.794   5.934   9.045 -0.1702 -0.0755 -0.1050
   58SAPC  H19R 4370   6.883   5.883   9.089  0.3820  0.3994 -0.6500
   58SAPC  H19S 4371   6.827   5.996   8.958  0.0265  0.8209  0.5942
   58SAPC  C220 4372   6.692   5.824   9.004 -0.1777 -1.0954 -0.7966
   58SAPC  H20R 4373   6.672   5.757   9.091 -2.0549  0.7791  0.2811
   58SAPC  H20S 4374   6.722   5.779   8.907  2.4267 -0.7519 -0.2211
   58SAPC  H20T 4375   6.601   5.884   8.984 -0.4975 -0.8931  1.0610
   58SAPC   C33 4376   6.470   5.924   9.879  0.1472 -0.2280 -0.1319
   58SAPC   H3X 4377   6.421   6.020   9.905  1.4783  0.4439  0.0310
   58SAPC   H3Y 4378   6.389   5.861   9.837  0.8086  0.4111 -2.5548
   58SAPC   C34 4379   6.585   5.919   9.772 -0.0001 -0.3942 -0.4995
   58SAPC   H4X 4380   6.606   5.815   9.738  0.5561 -0.8691  1.2006
   58SAPC   H4Y 4381   6.676   5.962   9.819 -0.4934 -0.4771  0.5531
   58SAPC   C35 4382   6.565   6.017   9.650 -0.1336 -0.1801 -0.3094
   58SAPC   H5X 4383   6.654   6.020   9.583  0.5089  0.6763  0.5469
   58SAPC   H5Y 4384   6.556   6.123   9.682 -2.7768  0.3979 -2.6149
   58SAPC   C36 4385   6.439   5.975   9.571 -0.5269  0.1590  0.0620
   58SAPC   H6X 4386   6.344   5.982   9.629 -0.4904 -1.1970  0.3419
   58SAPC   H6Y 4387   6.450   5.868   9.540  0.4540  0.1310  0.4545
   58SAPC   C37 4388   6.424   6.035   9.433 -1.0069 -0.1404 -0.2145
   58SAPC   H7X 4389   6.360   5.982   9.360  0.0283 -1.3431 -0.2852
   58SAPC   H7Y 4390   6.525   6.049   9.388 -0.8200 -1.6234 -0.2944
   58SAPC   C38 4391   6.370   6.181   9.444  0.2067 -0.6041  0.3037
   58SAPC   H8X 4392   6.437   6.253   9.495  0.8159 -0.8678 -0.1066
   58SAPC   H8Y 4393   6.278   6.169   9.505 -0.6838 -1.9046 -1.2058
   58SAPC   C39 4394   6.343   6.251   9.304 -0.0067  0.5675 -0.5640
   58SAPC   H9X 4395   6.436   6.291   9.257  0.5196  0.0054 -0.0204
   58SAPC   H9Y 4396   6.287   6.346   9.314  0.3063  0.6032  1.0274
   58SAPC  C310 4397   6.273   6.165   9.199 -0.5383  0.6792  0.3415
   58SAPC  H10X 4398   6.192   6.107   9.249 -1.4012  1.2274 -0.3836
   58SAPC  H10Y 4399   6.347   6.096   9.154 -1.3963 -0.4429  0.5855
   58SAPC  C311 4400   6.220   6.244   9.082  0.2561  0.4739  0.6653
   58SAPC  H11X 4401   6.310   6.282   9.029  1.4229 -0.2689  2.0412
   58SAPC  H11Y 4402   6.164   6.327   9.131 -0.4583 -1.2613  2.9540
   58SAPC  C312 4403   6.140   6.152   8.989  0.6053 -0.6101 -0.3325
   58SAPC  H12X 4404   6.085   6.212   8.914  3.6565  1.5314 -1.0372
   58SAPC  H12Y 4405   6.072   6.096   9.058 -1.0467  0.0777 -1.3282
   58SAPC  C313 4406   6.222   6.055   8.904 -0.7762  0.1766 -0.0533
   58SAPC  H13X 4407   6.139   5.993   8.863  0.2460 -0.1662 -1.7247
   58SAPC  H13Y 4408   6.272   5.992   8.980 -1.4038 -0.1948  0.0571
   58SAPC  C314 4409   6.315   6.125   8.808  0.0805 -0.1208  0.1103
   58SAPC  H14X 4410   6.312   6.231   8.838  0.0143 -0.9036  3.1376
   58SAPC  H14Y 4411   6.281   6.110   8.703  1.8167 -1.4590 -0.3093
   58SAPC  C315 4412   6.460   6.072   8.808  0.7428 -0.1741  0.7270
   58SAPC  H15X 4413   6.439   5.964   8.788  0.4828 -0.0772  0.4582
   58SAPC  H15Y 4414   6.515   6.072   8.905 -0.8696 -1.2011  1.7025
   58SAPC  C316 4415   6.548   6.124   8.690 -0.7033  0.7966  0.3072
   58SAPC  H16X 4416   6.498   6.145   8.593  1.9978  0.4054 -1.2646
   58SAPC  H16Y 4417   6.617   6.040   8.671 -0.4917  0.8012  1.0209
   58SAPC  C317 4418   6.639   6.242   8.730 -0.2861  0.3273  0.4393
   58SAPC  H17X 4419   6.685   6.223   8.829  0.7332 -0.0413 -0.0890
   58SAPC  H17Y 4420   6.585   6.338   8.745 -0.1526  0.9246 -2.3240
   58SAPC  C318 4421   6.753   6.271   8.626 -0.5116 -0.3647  0.4452
   58SAPC  H18X 4422   6.711   6.302   8.528 -0.5651  2.0886  1.1766
   58SAPC  H18Y 4423   6.815   6.179   8.614  1.5731  0.6820  2.4142
   58SAPC  H18Z 4424   6.823   6.345   8.671  2.6705 -1.8484 -1.6697
   59SAPC     N 4425   0.397   6.652  11.426  0.4058  0.3203 -0.1465
   59SAPC   C12 4426   0.401   6.710  11.287  0.5752 -0.2924 -0.2238
   59SAPC  H12A 4427   0.506   6.719  11.262  0.7787 -3.6059 -1.1316
   59SAPC  H12B 4428   0.356   6.808  11.287 -1.8251 -1.2780 -2.2638
   59SAPC   C13 4429   0.457   6.753  11.516  0.3307  0.2339  0.0339
   59SAPC  H13A 4430   0.563   6.768  11.499  0.4650 -0.3649  0.2905
   59SAPC  H13B 4431   0.416   6.851  11.501 -0.8958 -0.3496 -0.6067
   59SAPC  H13C 4432   0.441   6.725  11.619 -0.8550  0.4651 -0.0772
   59SAPC   C14 4433   0.258   6.619  11.470 -0.1225  0.5047  0.1241
   59SAPC  H14A 4434   0.195   6.705  11.486 -3.3563 -1.8607  1.2493
   59SAPC  H14B 4435   0.195   6.577  11.393  2.0689 -0.8378 -1.0589
   59SAPC  H14C 4436   0.257   6.559  11.560 -0.1499 -0.9326 -0.8054
   59SAPC   C15 4437   0.478   6.520  11.431  0.4727 -0.3780  0.1403
   59SAPC  H15A 4438   0.582   6.549  11.437  0.4900 -0.2310 -0.7771
   59SAPC  H15B 4439   0.450   6.460  11.517  0.8374 -1.0411 -0.1989
   59SAPC  H15C 4440   0.468   6.456  11.345 -1.5910  0.7706 -0.5161
   59SAPC   C11 4441   0.330   6.626  11.170 -0.2083  0.3070 -0.3026
   59SAPC  H11A 4442   0.349   6.517  11.181 -2.7066 -0.1995 -0.5647
   59SAPC  H11B 4443   0.378   6.655  11.074  1.1360  0.2264  0.3141
   59SAPC     P 4444   0.139   6.796  11.142  0.1771  0.1599  0.3089
   59SAPC   O13 4445  -0.000   6.791  11.195 -0.2556  0.1837 -0.0685
   59SAPC   O14 4446   0.229   6.902  11.198  0.0664 -0.2216 -0.0618
   59SAPC   O12 4447   0.193   6.653  11.164 -0.0970  0.6992  0.0137
   59SAPC   O11 4448   0.130   6.811  10.980 -0.5702 -0.4776 -0.9254
   59SAPC    C1 4449   0.043   6.726  10.906  0.0866  0.6910  0.2293
   59SAPC    HA 4450  -0.050   6.699  10.960  1.0147 -3.1912  0.1802
   59SAPC    HB 4451   0.007   6.781  10.816  1.9430  0.3042 -0.8055
   59SAPC    C2 4452   0.106   6.599  10.855 -0.1026  0.4087 -0.6071
   59SAPC    HS 4453   0.114   6.521  10.934  0.9404  1.0208 -0.0987
   59SAPC   O21 4454   0.238   6.630  10.806 -0.1101 -0.0290  0.3205
   59SAPC   C21 4455   0.316   6.528  10.782  0.0010  0.0875  1.0323
   59SAPC   O22 4456   0.286   6.410  10.795  0.1006  0.1773  0.3971
   59SAPC   C22 4457   0.452   6.562  10.731 -0.7071 -0.1439  0.5654
   59SAPC   H2R 4458   0.466   6.549  10.622  0.5430  2.3631  0.3627
   59SAPC   H2S 4459   0.461   6.672  10.743  1.4525 -0.0252 -1.4356
   59SAPC    C3 4460   0.021   6.527  10.750  0.8953  0.0530 -0.2846
   59SAPC    HX 4461  -0.075   6.490  10.792  0.2373  0.5736 -1.2982
   59SAPC    HY 4462   0.074   6.438  10.710  1.2588  0.9324 -1.8639
   59SAPC   O31 4463  -0.022   6.608  10.639 -0.2401 -0.3312 -0.0950
   59SAPC   C31 4464   0.058   6.624  10.528  0.3397 -0.3977 -0.2411
   59SAPC   O32 4465   0.151   6.553  10.498 -0.0200  0.2612  0.1094
   59SAPC   C32 4466   0.008   6.741  10.447  0.2157 -0.2508 -0.3537
   59SAPC   H2X 4467   0.054   6.833  10.489  1.0083 -0.5220 -0.6102
   59SAPC   H2Y 4468  -0.102   6.754  10.450  0.3728  1.9793 -1.8401
   59SAPC   C23 4469   0.569   6.497  10.813 -0.4204 -0.4835  0.4187
   59SAPC   H3R 4470   0.547   6.501  10.921  2.3424  1.1319  1.0205
   59SAPC   H3S 4471   0.662   6.552  10.788 -0.3169 -0.8218  0.0463
   59SAPC   C24 4472   0.587   6.346  10.773 -0.2402 -0.0292 -0.6455
   59SAPC   H4R 4473   0.501   6.290  10.815 -0.2075  1.0558  0.9627
   59SAPC   H4S 4474   0.673   6.308  10.833 -0.5869 -1.0640 -0.7806
   59SAPC   C25 4475   0.593   6.314  10.626 -1.3753  0.4704 -0.1988
   59SAPC   H5R 4476   0.499   6.319  10.569 -0.9342  0.4613 -0.9466
   59SAPC   C26 4477   0.700   6.278  10.554 -0.0605  0.5339 -0.0564
   59SAPC   H6R 4478   0.678   6.252  10.450 -3.1417 -0.9215  0.8427
   59SAPC   C27 4479   0.839   6.264  10.606 -0.4815 -0.4750  0.7302
   59SAPC   H7R 4480   0.845   6.266  10.717  0.5678  1.6428  0.6995
   59SAPC   H7S 4481   0.890   6.361  10.587 -2.9175  0.7520 -0.0804
   59SAPC   C28 4482   0.918   6.150  10.551 -0.6083 -0.1677  0.1883
   59SAPC   H8R 4483   0.928   6.065  10.620 -0.7820 -0.4195 -0.0949
   59SAPC   C29 4484   0.983   6.148  10.432  0.3122  0.3725  0.8411
   59SAPC   H9R 4485   1.025   6.051  10.402 -2.2153 -1.2540  2.1795
   59SAPC  C210 4486   0.995   6.258  10.328 -0.0822  0.3730 -0.1176
   59SAPC  H10R 4487   0.907   6.325  10.344  0.3880  0.6996  1.2593
   59SAPC  H10S 4488   1.009   6.224  10.223  4.1070  0.4687  0.2553
   59SAPC  C211 4489   1.114   6.343  10.363  0.1785 -0.3643 -0.3835
   59SAPC  H11R 4490   1.144   6.346  10.469  1.6134 -0.7557 -0.7488
   59SAPC  C212 4491   1.187   6.410  10.266 -0.0143  0.2612 -0.1482
   59SAPC  H12R 4492   1.270   6.477  10.294 -0.6675  1.8968 -1.9201
   59SAPC  C213 4493   1.156   6.411  10.117  0.7716  0.2918 -0.4905
   59SAPC  H13R 4494   1.115   6.510  10.088 -0.2215 -0.5276 -2.0007
   59SAPC  H13S 4495   1.078   6.341  10.082  1.5501 -0.1779 -1.3291
   59SAPC  C214 4496   1.278   6.409  10.028 -0.8333  0.8091 -0.6576
   59SAPC  H14R 4497   1.366   6.377  10.085 -2.1066  0.1328  1.0250
   59SAPC  C215 4498   1.288   6.437   9.895 -0.5059 -0.0143 -0.1972
   59SAPC  H15R 4499   1.386   6.423   9.846 -0.5451  1.4891 -0.7431
   59SAPC  C216 4500   1.180   6.472   9.799 -0.2399  0.1027 -0.1319
   59SAPC  H16R 4501   1.168   6.582   9.793  1.5164  0.3460  0.2880
   59SAPC  H16S 4502   1.084   6.442   9.847 -1.3111  0.5430 -1.9202
   59SAPC  C217 4503   1.200   6.408   9.662 -0.1741 -0.0861 -0.2304
   59SAPC  H17R 4504   1.210   6.298   9.669  2.5029 -0.0456 -2.1900
   59SAPC  H17S 4505   1.298   6.434   9.617 -0.9565  0.5882 -1.5999
   59SAPC  C218 4506   1.087   6.427   9.558 -0.1863  0.4685  0.6315
   59SAPC  H18R 4507   1.071   6.537   9.555 -1.2924  0.2986 -1.1212
   59SAPC  H18S 4508   0.998   6.385   9.609 -0.6309 -0.0823 -0.5602
   59SAPC  C219 4509   1.118   6.346   9.434 -0.0115 -0.0358 -0.2909
   59SAPC  H19R 4510   1.130   6.239   9.462  1.8279 -0.3347 -1.9685
   59SAPC  H19S 4511   1.217   6.369   9.388 -0.8349 -0.0987 -2.2003
   59SAPC  C220 4512   1.014   6.374   9.320  0.0499  0.0048 -0.2574
   59SAPC  H20R 4513   0.984   6.480   9.307 -1.2453 -0.4236 -0.9826
   59SAPC  H20S 4514   0.927   6.305   9.320  0.4179 -0.4706  0.1652
   59SAPC  H20T 4515   1.062   6.336   9.227 -0.1346  1.8047 -1.1405
   59SAPC   C33 4516   0.056   6.725  10.298 -0.3457 -0.1907  0.6016
   59SAPC   H3X 4517   0.010   6.639  10.246 -0.2700  0.4704 -0.5794
   59SAPC   H3Y 4518   0.164   6.703  10.300  0.0864  1.7402  1.9737
   59SAPC   C34 4519   0.022   6.855  10.219 -0.6379  0.6198 -0.3033
   59SAPC   H4X 4520   0.107   6.919  10.249  2.6925 -3.2507 -0.6168
   59SAPC   H4Y 4521  -0.078   6.880  10.262 -1.6516 -3.4130  0.1431
   59SAPC   C35 4522   0.012   6.845  10.066  0.3476 -0.6698 -0.2516
   59SAPC   H5X 4523   0.110   6.805  10.033  0.1341 -0.7917 -0.7471
   59SAPC   H5Y 4524  -0.006   6.951  10.036 -0.3726 -0.2476  1.5214
   59SAPC   C36 4525  -0.109   6.764  10.012  0.1089 -0.5446 -0.1056
   59SAPC   H6X 4526  -0.199   6.781  10.075  0.2048 -0.4948  0.0180
   59SAPC   H6Y 4527  -0.091   6.654  10.010  0.3859 -0.5159  0.4847
   59SAPC   C37 4528  -0.153   6.803   9.873  0.5613  0.1897 -0.3503
   59SAPC   H7X 4529  -0.194   6.905   9.859  3.0234  1.0350 -2.0081
   59SAPC   H7Y 4530  -0.240   6.740   9.847  0.2538 -0.0216  1.0976
   59SAPC   C38 4531  -0.038   6.779   9.774  0.2298 -0.3879 -0.0661
   59SAPC   H8X 4532  -0.042   6.673   9.743 -1.5971 -0.5863  0.7355
   59SAPC   H8Y 4533   0.066   6.806   9.806 -0.5058  1.4470  0.9451
   59SAPC   C39 4534  -0.066   6.858   9.637 -0.3256 -0.4763 -0.4457
   59SAPC   H9X 4535  -0.090   6.963   9.661 -2.4981 -1.2176  0.8210
   59SAPC   H9Y 4536  -0.155   6.817   9.585 -0.6651 -0.8186  0.3964
   59SAPC  C310 4537   0.051   6.853   9.541 -0.2767  0.5196  0.7878
   59SAPC  H10X 4538   0.099   6.753   9.530  1.1699  1.4501 -2.4549
   59SAPC  H10Y 4539   0.128   6.926   9.574 -0.8035  1.1804  0.5552
   59SAPC  C311 4540  -0.002   6.885   9.398 -0.2400  0.0265  0.9784
   59SAPC  H11X 4541  -0.032   6.992   9.398  1.9709  0.6993 -0.0433
   59SAPC  H11Y 4542  -0.095   6.827   9.379 -1.2460  1.0293  2.5717
   59SAPC  C312 4543   0.103   6.876   9.288  0.0118  0.3456 -0.0465
   59SAPC  H12X 4544   0.192   6.938   9.311 -0.3903  0.9343 -0.0499
   59SAPC  H12Y 4545   0.054   6.909   9.194 -2.8733  1.2932  1.6583
   59SAPC  C313 4546   0.157   6.734   9.263  0.5637  0.5512 -0.1784
   59SAPC  H13X 4547   0.076   6.659   9.248  2.6354 -1.6209 -0.9628
   59SAPC  H13Y 4548   0.218   6.701   9.350  0.3844 -2.2420 -1.0216
   59SAPC  C314 4549   0.254   6.718   9.142  0.4326  0.2529  0.3445
   59SAPC  H14X 4550   0.314   6.625   9.147  1.1733  0.3566 -3.4555
   59SAPC  H14Y 4551   0.329   6.800   9.143  1.3442 -0.5524  2.3556
   59SAPC  C315 4552   0.175   6.703   9.008 -0.4095  0.1325  0.1463
   59SAPC  H15X 4553   0.112   6.794   8.992  0.6110  0.5034 -2.1416
   59SAPC  H15Y 4554   0.103   6.619   9.002  1.3746 -1.3494 -1.9658
   59SAPC  C316 4555   0.271   6.702   8.886  0.4229 -0.4821  0.3066
   59SAPC  H16X 4556   0.355   6.630   8.903  2.6279  1.9737  0.4245
   59SAPC  H16Y 4557   0.328   6.797   8.878 -2.6717  1.3598 -2.4698
   59SAPC  C317 4558   0.195   6.681   8.753 -0.7140 -0.0007 -0.2270
   59SAPC  H17X 4559   0.090   6.700   8.783 -0.1314 -0.5153  2.4059
   59SAPC  H17Y 4560   0.195   6.579   8.708  2.2716 -1.7590  3.2028
   59SAPC  C318 4561   0.229   6.782   8.646 -0.0369  0.8140  0.0328
   59SAPC  H18X 4562   0.329   6.760   8.604  0.2923  2.0590  0.1094
   59SAPC  H18Y 4563   0.232   6.887   8.682  0.8604  0.1412  2.0680
   59SAPC  H18Z 4564   0.159   6.768   8.561  1.0768 -0.1106 -0.7685
   60SAPC     N 4565   2.689   6.636  10.729  0.2284  0.0396 -0.3011
   60SAPC   C12 4566   2.662   6.550  10.607  0.8417  0.2509 -0.0916
   60SAPC  H12A 4567   2.704   6.592  10.517 -0.9129  0.8493 -0.6717
   60SAPC  H12B 4568   2.558   6.546  10.579  0.7631  1.5789 -0.0682
   60SAPC   C13 4569   2.830   6.615  10.775 -0.6350  0.0792  0.7681
   60SAPC  H13A 4570   2.835   6.521  10.828  0.6645 -0.1851  0.2112
   60SAPC  H13B 4571   2.898   6.618  10.691 -0.6667  1.9854  0.7731
   60SAPC  H13C 4572   2.877   6.692  10.835  0.2384  0.1213  0.0480
   60SAPC   C14 4573   2.670   6.778  10.685 -0.6595 -0.2931  0.3686
   60SAPC  H14A 4574   2.574   6.801  10.642 -1.1224  3.3277  2.8445
   60SAPC  H14B 4575   2.692   6.845  10.766  1.1833 -0.2974 -0.0767
   60SAPC  H14C 4576   2.738   6.788  10.601  0.1551  0.1922  1.0700
   60SAPC   C15 4577   2.594   6.612  10.847  0.2144  1.0191  0.0157
   60SAPC  H15A 4578   2.498   6.605  10.798  1.0818 -0.2815 -1.6377
   60SAPC  H15B 4579   2.611   6.522  10.904 -0.2319  1.5415  0.9942
   60SAPC  H15C 4580   2.584   6.707  10.897  1.2631  1.8543 -1.2894
   60SAPC   C11 4581   2.698   6.393  10.609 -0.6379  0.2281  0.0190
   60SAPC  H11A 4582   2.803   6.381  10.644 -1.1940  1.0135  2.1261
   60SAPC  H11B 4583   2.692   6.334  10.515  0.1081 -2.0598  1.3284
   60SAPC     P 4584   2.471   6.277  10.657 -0.1095 -0.0364 -0.5877
   60SAPC   O13 4585   2.392   6.256  10.781 -0.9540 -0.3971  0.2855
   60SAPC   O14 4586   2.417   6.380  10.567 -0.7836  0.0269 -0.3115
   60SAPC   O12 4587   2.617   6.322  10.707 -0.4821 -0.5080  0.2232
   60SAPC   O11 4588   2.500   6.139  10.575 -0.2734 -0.5280 -0.3111
   60SAPC    C1 4589   2.411   6.076  10.486  0.5340  0.1319  0.1791
   60SAPC    HA 4590   2.432   5.967  10.492  2.6272  0.4152 -1.0013
   60SAPC    HB 4591   2.308   6.084  10.528  1.2837 -1.4563  2.5154
   60SAPC    C2 4592   2.424   6.132  10.340 -0.1679 -0.3298  0.4614
   60SAPC    HS 4593   2.428   6.242  10.351  1.1481 -0.3319  0.1162
   60SAPC   O21 4594   2.312   6.078  10.270  0.1266 -0.2044 -0.3390
   60SAPC   C21 4595   2.236   6.162  10.211 -0.2707  0.4553 -0.6312
   60SAPC   O22 4596   2.250   6.282  10.211 -0.8294 -0.2842 -0.2533
   60SAPC   C22 4597   2.115   6.091  10.150 -0.6070 -0.3093 -0.5856
   60SAPC   H2R 4598   2.154   6.008  10.088 -0.1215 -1.7417  1.5226
   60SAPC   H2S 4599   2.071   6.033  10.234  2.1698 -2.9543 -0.7828
   60SAPC    C3 4600   2.559   6.093  10.280 -0.1887 -0.1315  1.0500
   60SAPC    HX 4601   2.569   5.983  10.289  2.1213  0.1262  2.4246
   60SAPC    HY 4602   2.645   6.131  10.340  1.5569 -0.2859 -1.1910
   60SAPC   O31 4603   2.563   6.137  10.142  0.3613 -0.4719  0.0369
   60SAPC   C31 4604   2.653   6.229  10.110  0.9079 -0.1229 -0.3931
   60SAPC   O32 4605   2.713   6.299  10.187 -0.3366  0.5393  0.1782
   60SAPC   C32 4606   2.644   6.240   9.964  0.2134  0.1792  0.6547
   60SAPC   H2X 4607   2.596   6.338   9.942 -1.2288 -0.0009  2.7270
   60SAPC   H2Y 4608   2.567   6.169   9.927 -0.7314  1.3131  0.4181
   60SAPC   C23 4609   2.012   6.178  10.074 -0.2623 -0.3155  0.1704
   60SAPC   H3R 4610   2.069   6.207   9.983  1.0385 -1.7476  0.4841
   60SAPC   H3S 4611   1.987   6.270  10.132 -0.2946  1.0657 -1.9110
   60SAPC   C24 4612   1.894   6.094  10.028  0.3357  0.1328 -0.3873
   60SAPC   H4R 4613   1.840   6.061  10.119  1.0077 -2.1320 -0.7581
   60SAPC   H4S 4614   1.929   6.001   9.979 -1.0016 -0.7529  0.2685
   60SAPC   C25 4615   1.807   6.175   9.938 -0.2364 -0.4788 -0.3680
   60SAPC   H5R 4616   1.735   6.235   9.995 -1.2222 -1.8041 -0.1624
   60SAPC   C26 4617   1.826   6.193   9.800 -0.1570  0.2194 -0.3637
   60SAPC   H6R 4618   1.769   6.264   9.737  1.6036  2.2567  0.2075
   60SAPC   C27 4619   1.928   6.112   9.720  0.0241  0.1813 -0.6055
   60SAPC   H7R 4620   1.979   6.038   9.786  1.0462 -0.7747 -2.3966
   60SAPC   H7S 4621   2.008   6.181   9.688  1.1640 -0.5658  0.5272
   60SAPC   C28 4622   1.860   6.037   9.609  0.5214  0.0535 -0.2333
   60SAPC   H8R 4623   1.771   5.985   9.647  1.2519 -0.8845  0.2217
   60SAPC   C29 4624   1.883   6.033   9.476  0.0388  0.1052  0.5529
   60SAPC   H9R 4625   1.817   5.971   9.414  2.1618  0.6325 -2.4142
   60SAPC  C210 4626   1.984   6.115   9.407  0.5213 -0.2214  0.3787
   60SAPC  H10R 4627   1.968   6.220   9.440 -0.3638 -0.0481 -0.5523
   60SAPC  H10S 4628   1.960   6.110   9.298 -0.9981  0.7726  0.6410
   60SAPC  C211 4629   2.128   6.075   9.443 -0.0815 -0.5259 -0.5800
   60SAPC  H11R 4630   2.143   5.992   9.515 -1.5630 -0.0866  0.2782
   60SAPC  C212 4631   2.231   6.147   9.395 -0.4357  0.2815 -0.6742
   60SAPC  H12R 4632   2.328   6.114   9.436 -1.4157 -0.5579  1.0844
   60SAPC  C213 4633   2.235   6.260   9.304  0.3235  0.4076 -0.6571
   60SAPC  H13R 4634   2.187   6.220   9.212 -0.8057 -3.7191  1.4314
   60SAPC  H13S 4635   2.342   6.282   9.288  0.5275  1.6319  1.8925
   60SAPC  C214 4636   2.169   6.393   9.332 -0.4317 -0.2559 -0.1211
   60SAPC  H14R 4637   2.224   6.449   9.409  1.1510 -1.2670 -0.4713
   60SAPC  C215 4638   2.055   6.438   9.277 -0.2745  0.0298  0.3827
   60SAPC  H15R 4639   2.012   6.534   9.309 -0.4252 -0.3870  1.4615
   60SAPC  C216 4640   1.955   6.366   9.181  0.7332 -0.1496 -0.2995
   60SAPC  H16R 4641   1.855   6.384   9.227  1.1679  2.3972 -0.2434
   60SAPC  H16S 4642   1.985   6.263   9.151  3.4279  0.5489 -0.2920
   60SAPC  C217 4643   1.970   6.448   9.049  0.3663  0.7922  0.3177
   60SAPC  H17R 4644   2.076   6.445   9.017 -0.8219  2.4173 -4.5973
   60SAPC  H17S 4645   1.946   6.555   9.071 -1.4598  0.4498  0.2090
   60SAPC  C218 4646   1.889   6.387   8.935 -0.0192  0.2797 -0.4325
   60SAPC  H18R 4647   1.783   6.377   8.967  0.0411  0.9372 -0.0215
   60SAPC  H18S 4648   1.926   6.283   8.920 -1.5844 -0.4252  0.3441
   60SAPC  C219 4649   1.891   6.460   8.801 -0.0475 -0.0366 -0.6729
   60SAPC  H19R 4650   1.987   6.426   8.758  1.1548  0.7065  1.2808
   60SAPC  H19S 4651   1.876   6.570   8.810  0.5208  0.2552 -2.8510
   60SAPC  C220 4652   1.775   6.422   8.710 -0.4058 -0.4823  0.1874
   60SAPC  H20R 4653   1.771   6.480   8.615  0.8034  0.3073  0.6087
   60SAPC  H20S 4654   1.688   6.464   8.765  1.6820  1.6980  1.9925
   60SAPC  H20T 4655   1.755   6.313   8.698 -1.2178 -0.6041  2.3073
   60SAPC   C33 4656   2.781   6.228   9.894 -0.5514  0.0907  0.5982
   60SAPC   H3X 4657   2.854   6.287   9.952  0.0493  2.8107 -2.6196
   60SAPC   H3Y 4658   2.784   6.279   9.796 -0.3378 -1.5681 -0.2932
   60SAPC   C34 4659   2.835   6.079   9.870  0.4296 -0.8302  0.2722
   60SAPC   H4X 4660   2.819   6.020   9.962 -0.7294 -2.4529 -0.9242
   60SAPC   H4Y 4661   2.946   6.070   9.858  0.1421 -1.9507 -2.1761
   60SAPC   C35 4662   2.773   6.001   9.753 -0.7266 -0.9127  0.3284
   60SAPC   H5X 4663   2.674   6.042   9.724  0.0756  2.9037  2.4346
   60SAPC   H5Y 4664   2.759   5.895   9.784  0.5592 -1.1586  0.1073
   60SAPC   C36 4665   2.867   6.009   9.632  0.6645 -0.1427  0.0621
   60SAPC   H6X 4666   2.971   5.975   9.649  1.5328  0.7393 -2.9196
   60SAPC   H6Y 4667   2.876   6.114   9.597  1.8444 -0.8263 -1.8663
   60SAPC   C37 4668   2.818   5.922   9.503 -0.3072  0.6862 -0.9590
   60SAPC   H7X 4669   2.722   5.971   9.475 -0.4994  0.9681  0.1533
   60SAPC   H7Y 4670   2.798   5.821   9.545 -2.8013  2.0257  1.3825
   60SAPC   C38 4671   2.926   5.925   9.390  0.5249  0.5263 -1.5186
   60SAPC   H8X 4672   3.022   5.873   9.415 -0.5308 -0.7185  0.1788
   60SAPC   H8Y 4673   2.954   6.032   9.384 -1.1755  1.0339 -0.8730
   60SAPC   C39 4674   2.867   5.889   9.254 -0.3823  0.3067 -0.4934
   60SAPC   H9X 4675   2.790   5.966   9.229 -0.3601  1.3950  2.3513
   60SAPC   H9Y 4676   2.828   5.785   9.245 -0.0765 -0.0124  1.3810
   60SAPC  C310 4677   2.967   5.900   9.131 -0.4402 -0.3835 -0.3279
   60SAPC  H10X 4678   2.923   5.863   9.036 -2.2129  3.4839 -1.2051
   60SAPC  H10Y 4679   3.058   5.841   9.153 -0.2266  0.3622  0.8635
   60SAPC  C311 4680   3.023   6.044   9.113  0.0305 -0.2551 -0.1890
   60SAPC  H11X 4681   3.054   6.099   9.204 -0.3504  0.8901 -0.7307
   60SAPC  H11Y 4682   2.931   6.093   9.072  1.0390  0.5301 -1.5968
   60SAPC  C312 4683   3.136   6.064   9.016 -0.3444  0.5811  0.5152
   60SAPC  H12X 4684   3.102   6.014   8.923 -3.3120  3.2885 -0.0452
   60SAPC  H12Y 4685   3.227   6.012   9.052  0.6107  3.1693  2.1894
   60SAPC  C313 4686   3.169   6.205   8.987 -1.3119 -0.2235  0.1350
   60SAPC  H13X 4687   3.277   6.222   9.004 -0.8469  1.0091 -3.2088
   60SAPC  H13Y 4688   3.112   6.262   9.063  1.6303  0.5125  1.9337
   60SAPC  C314 4689   3.131   6.253   8.850 -0.1803  0.1645 -0.1468
   60SAPC  H14X 4690   3.129   6.363   8.837  0.2247 -0.0537 -2.3980
   60SAPC  H14Y 4691   3.029   6.221   8.820  0.3831  0.3157 -2.3710
   60SAPC  C315 4692   3.228   6.211   8.741  0.1513 -0.1650 -0.3151
   60SAPC  H15X 4693   3.242   6.102   8.731 -0.5380 -0.5178  2.0579
   60SAPC  H15Y 4694   3.326   6.260   8.762  0.2478 -1.5152  2.8808
   60SAPC  C316 4695   3.169   6.259   8.604  0.0403  0.6972 -0.5471
   60SAPC  H16X 4696   3.118   6.358   8.608 -1.2463 -0.0036  2.6930
   60SAPC  H16Y 4697   3.089   6.187   8.579  0.8255  0.5088 -2.7393
   60SAPC  C317 4698   3.261   6.222   8.486 -0.6319  0.2374  0.2079
   60SAPC  H17X 4699   3.236   6.283   8.396  1.6920  2.0863  0.7091
   60SAPC  H17Y 4700   3.256   6.113   8.463  0.1003  0.0355  0.9624
   60SAPC  C318 4701   3.412   6.251   8.506  0.5009  0.0202  0.4758
   60SAPC  H18X 4702   3.419   6.360   8.529  1.0126 -0.2140  1.5029
   60SAPC  H18Y 4703   3.465   6.218   8.414  2.0831  0.6844  1.1176
   60SAPC  H18Z 4704   3.453   6.188   8.589  2.0947 -2.3607 -1.9569
   61SAPC     N 4705   2.273   2.957  11.072  0.0477  0.2094  0.4170
   61SAPC   C12 4706   2.303   2.850  10.971 -0.5725 -0.4973  0.4052
   61SAPC  H12A 4707   2.210   2.802  10.942 -0.5129 -0.9917  1.0269
   61SAPC  H12B 4708   2.367   2.773  11.010  1.7433  1.9086  1.6810
   61SAPC   C13 4709   2.194   3.063  11.009 -0.2922 -0.6519  1.0001
   61SAPC  H13A 4710   2.091   3.047  10.983  0.2817 -1.0028 -1.2877
   61SAPC  H13B 4711   2.194   3.143  11.082  1.5589  1.1329 -0.8101
   61SAPC  H13C 4712   2.248   3.106  10.926 -0.1694 -1.1561  0.8198
   61SAPC   C14 4713   2.180   2.900  11.177  0.0303 -0.8819 -0.0036
   61SAPC  H14A 4714   2.151   2.977  11.247  1.2509  2.3876 -2.8230
   61SAPC  H14B 4715   2.087   2.866  11.135 -0.8448  1.4367 -0.0587
   61SAPC  H14C 4716   2.223   2.823  11.240  1.8270 -3.5596 -4.0936
   61SAPC   C15 4717   2.396   3.024  11.134 -0.0642 -0.1432  0.3979
   61SAPC  H15A 4718   2.446   2.953  11.199 -0.6579 -2.4263 -1.4974
   61SAPC  H15B 4719   2.460   3.057  11.053 -1.1832  1.8066  0.2636
   61SAPC  H15C 4720   2.370   3.112  11.190  0.7724  0.8814 -0.7825
   61SAPC   C11 4721   2.377   2.887  10.835 -0.3015 -0.4451 -0.3554
   61SAPC  H11A 4722   2.320   2.975  10.800  0.3335 -0.1086 -0.5581
   61SAPC  H11B 4723   2.358   2.819  10.749  0.0234  2.3496 -2.7933
   61SAPC     P 4724   2.616   2.801  10.897 -0.4944  0.1207 -0.1885
   61SAPC   O13 4725   2.728   2.865  10.970 -0.3013  0.2466 -0.3607
   61SAPC   O14 4726   2.547   2.690  10.969 -0.6256 -0.2999 -0.4849
   61SAPC   O12 4727   2.515   2.916  10.866  1.3703 -0.3640  0.0380
   61SAPC   O11 4728   2.669   2.756  10.757  0.6771  0.0215 -0.1145
   61SAPC    C1 4729   2.691   2.857  10.655 -0.1443 -0.0996  0.8829
   61SAPC    HA 4730   2.611   2.934  10.650 -0.9737 -1.0361 -2.2468
   61SAPC    HB 4731   2.782   2.917  10.680 -0.2040 -0.1246  1.1674
   61SAPC    C2 4732   2.707   2.809  10.510  0.2972  1.2291  0.7048
   61SAPC    HS 4733   2.742   2.891  10.443 -2.6651 -0.3316 -3.1776
   61SAPC   O21 4734   2.579   2.761  10.459  1.0527  0.0730  0.4376
   61SAPC   C21 4735   2.494   2.861  10.424 -0.4960 -0.6841 -0.3505
   61SAPC   O22 4736   2.524   2.980  10.427  0.2992 -0.1988 -0.6291
   61SAPC   C22 4737   2.367   2.807  10.372 -0.4692 -0.6857 -0.0242
   61SAPC   H2R 4738   2.392   2.732  10.293 -3.0272 -0.7947 -0.8305
   61SAPC   H2S 4739   2.311   2.764  10.457 -1.0630  0.0843 -0.0091
   61SAPC    C3 4740   2.808   2.683  10.509 -0.3817  0.2288 -0.6379
   61SAPC    HX 4741   2.764   2.606  10.576 -1.3139  1.5124  0.2797
   61SAPC    HY 4742   2.901   2.720  10.556 -0.6927 -1.2012  1.2226
   61SAPC   O31 4743   2.818   2.618  10.379  0.7368 -0.0185 -0.3086
   61SAPC   C31 4744   2.921   2.660  10.302  0.3840  0.6045 -0.1697
   61SAPC   O32 4745   3.005   2.745  10.321  0.3486  0.3118  0.0055
   61SAPC   C32 4746   2.921   2.562  10.181 -0.1574  0.1325  0.2412
   61SAPC   H2X 4747   2.853   2.614  10.110 -0.6070  0.0867  0.6359
   61SAPC   H2Y 4748   2.875   2.461  10.193  1.5253 -0.6274  0.6242
   61SAPC   C23 4749   2.291   2.911  10.293  0.2271  0.0418 -0.9256
   61SAPC   H3R 4750   2.355   2.966  10.221 -1.3483 -0.1611 -2.5607
   61SAPC   H3S 4751   2.245   2.981  10.365 -0.2183 -1.4846  0.3440
   61SAPC   C24 4752   2.185   2.855  10.198 -0.0100  0.6550 -0.1784
   61SAPC   H4R 4753   2.120   2.787  10.257 -1.0218  1.2831 -0.5499
   61SAPC   H4S 4754   2.235   2.785  10.128  1.1121  1.0101  0.2480
   61SAPC   C25 4755   2.113   2.968  10.127  0.7704 -0.0943 -0.5402
   61SAPC   H5R 4756   2.033   3.003  10.193  1.2870 -1.2247  0.7312
   61SAPC   C26 4757   2.123   3.020  10.000 -0.1301 -0.2416  0.0491
   61SAPC   H6R 4758   2.055   3.096   9.959  0.7230  0.1556 -0.6696
   61SAPC   C27 4759   2.240   2.995   9.904 -0.6626 -0.5887  0.4145
   61SAPC   H7R 4760   2.323   2.994   9.978  0.1385  1.7933 -0.3863
   61SAPC   H7S 4761   2.261   3.077   9.833  2.5034 -1.2371  0.4490
   61SAPC   C28 4762   2.215   2.866   9.823  0.1273 -0.2420 -0.1744
   61SAPC   H8R 4763   2.163   2.799   9.893 -2.0854  1.4904 -0.0565
   61SAPC   C29 4764   2.241   2.840   9.692 -0.5526 -0.6201 -0.2560
   61SAPC   H9R 4765   2.207   2.740   9.661 -1.2994 -0.7915  1.0382
   61SAPC  C210 4766   2.329   2.936   9.613  0.1603 -0.0461  0.1260
   61SAPC  H10R 4767   2.381   2.870   9.541  0.2210 -0.4198  0.5087
   61SAPC  H10S 4768   2.413   2.986   9.666  0.3624  2.1472 -2.0876
   61SAPC  C211 4769   2.254   3.048   9.538  0.2164 -0.2242  0.0413
   61SAPC  H11R 4770   2.200   3.119   9.603  1.4417 -0.5594  1.4860
   61SAPC  C212 4771   2.245   3.062   9.402 -0.1139 -0.2328  0.7626
   61SAPC  H12R 4772   2.191   3.147   9.359 -0.3818 -0.7185  0.1322
   61SAPC  C213 4773   2.304   2.981   9.287  0.8157  0.5486 -0.1755
   61SAPC  H13R 4774   2.390   2.920   9.325  1.5102 -0.4022 -3.0040
   61SAPC  H13S 4775   2.349   3.052   9.215  0.4124 -0.6409 -1.6331
   61SAPC  C214 4776   2.205   2.883   9.229 -0.1843  0.0149  0.1255
   61SAPC  H14R 4777   2.154   2.820   9.303  0.4108 -0.1437  0.4092
   61SAPC  C215 4778   2.175   2.883   9.099 -0.1061  0.3124  0.5149
   61SAPC  H15R 4779   2.089   2.821   9.071 -0.1332 -1.0359  3.2072
   61SAPC  C216 4780   2.236   2.972   8.989  0.5569  0.5023  0.1144
   61SAPC  H16R 4781   2.347   2.976   8.980  0.4501 -0.2056 -1.8761
   61SAPC  H16S 4782   2.208   3.074   9.023  1.1045  0.0877  1.9325
   61SAPC  C217 4783   2.175   2.948   8.851  0.0541  0.0588 -0.2175
   61SAPC  H17R 4784   2.221   2.857   8.807 -0.3138 -0.9649  1.4080
   61SAPC  H17S 4785   2.203   3.038   8.793  0.2203  0.2648  0.1764
   61SAPC  C218 4786   2.023   2.919   8.840 -0.4992  0.0460 -0.8615
   61SAPC  H18R 4787   1.959   2.994   8.893 -0.3699 -1.6369  1.8558
   61SAPC  H18S 4788   1.996   2.825   8.893 -0.1163 -0.3981 -1.4487
   61SAPC  C219 4789   1.968   2.919   8.706  0.7779  0.4153 -0.3146
   61SAPC  H19R 4790   2.022   2.845   8.643 -1.6334  0.5228 -2.7055
   61SAPC  H19S 4791   1.985   3.023   8.673  1.2003  0.4675  0.0601
   61SAPC  C220 4792   1.821   2.875   8.714 -0.1275  0.2940 -0.1203
   61SAPC  H20R 4793   1.767   2.901   8.620  1.1718  0.2221 -0.9127
   61SAPC  H20S 4794   1.770   2.925   8.799  0.8459 -1.1775  1.3749
   61SAPC  H20T 4795   1.819   2.769   8.748 -0.7186  0.1251 -0.6555
   61SAPC   C33 4796   3.063   2.551  10.119 -0.4541  0.5014  0.3546
   61SAPC   H3X 4797   3.070   2.445  10.088 -3.4089 -0.2184  1.7416
   61SAPC   H3Y 4798   3.140   2.566  10.197 -0.5073  3.0947  0.0117
   61SAPC   C34 4799   3.103   2.640  10.000  0.0016 -0.0077 -0.9509
   61SAPC   H4X 4800   3.214   2.639   9.996  0.0069  0.5974 -1.0971
   61SAPC   H4Y 4801   3.066   2.743  10.020 -0.0619  0.2790 -2.4629
   61SAPC   C35 4802   3.047   2.590   9.865 -0.5322  0.0687  0.5695
   61SAPC   H5X 4803   2.939   2.588   9.891 -0.4586  1.5621  1.1176
   61SAPC   H5Y 4804   3.070   2.483   9.848  3.3692  0.9682 -1.1015
   61SAPC   C36 4805   3.076   2.678   9.745  0.1146  0.2450 -0.0896
   61SAPC   H6X 4806   3.185   2.697   9.760  0.7593 -1.3690 -2.2205
   61SAPC   H6Y 4807   3.033   2.779   9.760  2.0650  0.7940  2.5903
   61SAPC   C37 4808   3.035   2.611   9.612 -0.1340 -0.0245 -0.4281
   61SAPC   H7X 4809   2.929   2.583   9.633  0.5637 -0.2750  3.6243
   61SAPC   H7Y 4810   3.096   2.519   9.603  0.1727 -0.0546  1.4990
   61SAPC   C38 4811   3.050   2.697   9.488  0.2034 -0.3221 -0.0096
   61SAPC   H8X 4812   3.153   2.737   9.476 -0.1843  1.0393  0.9714
   61SAPC   H8Y 4813   2.980   2.783   9.493 -0.0250 -0.4198 -1.2686
   61SAPC   C39 4814   2.995   2.629   9.365 -0.9330  0.7217  0.2090
   61SAPC   H9X 4815   2.897   2.581   9.385 -0.3910 -0.3759  0.3228
   61SAPC   H9Y 4816   3.060   2.542   9.342 -3.4096 -1.2345  0.2014
   61SAPC  C310 4817   2.988   2.713   9.234 -0.6224 -0.0994 -0.3561
   61SAPC  H10X 4818   2.938   2.807   9.266  1.5412  1.1656 -0.5017
   61SAPC  H10Y 4819   2.925   2.662   9.158 -0.2549 -0.5809 -0.3369
   61SAPC  C311 4820   3.134   2.752   9.187  0.1619  0.3368 -0.0721
   61SAPC  H11X 4821   3.185   2.659   9.152 -0.6953 -0.5818  1.0317
   61SAPC  H11Y 4822   3.183   2.774   9.284 -0.0651 -1.3893  0.4775
   61SAPC  C312 4823   3.146   2.876   9.095  0.2403 -0.4601 -0.5732
   61SAPC  H12X 4824   3.254   2.897   9.085  0.3504 -1.0944 -0.7724
   61SAPC  H12Y 4825   3.088   2.951   9.154 -1.7503  0.0825 -3.0379
   61SAPC  C313 4826   3.090   2.853   8.960 -0.1532 -0.1612 -0.0489
   61SAPC  H13X 4827   2.984   2.881   8.948  0.3258  2.8519  1.6893
   61SAPC  H13Y 4828   3.100   2.747   8.927  0.9433  0.4905 -1.9467
   61SAPC  C314 4829   3.163   2.936   8.849  0.1810 -0.5616 -0.2049
   61SAPC  H14X 4830   3.268   2.941   8.884 -0.1512  0.2597  0.7265
   61SAPC  H14Y 4831   3.129   3.041   8.861 -1.8185 -0.9015 -2.2168
   61SAPC  C315 4832   3.142   2.880   8.710 -0.3368  0.0336  0.5292
   61SAPC  H15X 4833   3.185   2.779   8.695  0.5948  0.3210  1.1676
   61SAPC  H15Y 4834   3.196   2.951   8.644  0.3677 -0.0406  1.0146
   61SAPC  C316 4835   2.999   2.869   8.661 -0.4263 -0.0481  0.2753
   61SAPC  H16X 4836   2.938   2.962   8.656  0.7609  0.7466  0.1749
   61SAPC  H16Y 4837   2.940   2.799   8.723  1.7856 -2.1750  0.0968
   61SAPC  C317 4838   2.998   2.820   8.513  0.1094  0.1313  0.5848
   61SAPC  H17X 4839   3.054   2.882   8.440 -1.6367  0.6890 -0.3342
   61SAPC  H17Y 4840   2.890   2.826   8.491  0.1862 -0.7268 -0.0891
   61SAPC  C318 4841   3.011   2.669   8.496  0.1177 -1.0262  0.2063
   61SAPC  H18X 4842   3.108   2.625   8.527  1.1119 -1.2312 -2.8257
   61SAPC  H18Y 4843   3.008   2.639   8.389 -3.0487  1.9445 -0.7243
   61SAPC  H18Z 4844   2.931   2.626   8.559 -0.3166  2.4919  2.3182
   62SAPC     N 4845   1.105   2.631  10.647 -0.1719  0.1647 -0.0776
   62SAPC   C12 4846   1.078   2.773  10.702  0.1123 -0.3473  0.4229
   62SAPC  H12A 4847   1.136   2.844  10.646 -1.8116  1.0086  0.0417
   62SAPC  H12B 4848   1.110   2.786  10.804  2.3285 -0.6358 -0.1696
   62SAPC   C13 4849   1.252   2.609  10.665  0.1371  0.1610 -0.9269
   62SAPC  H13A 4850   1.278   2.602  10.770  0.3677 -2.5683 -1.0968
   62SAPC  H13B 4851   1.284   2.514  10.627 -0.7892 -0.3800 -0.4075
   62SAPC  H13C 4852   1.300   2.686  10.607  0.7342  0.2006 -0.3854
   62SAPC   C14 4853   1.021   2.522  10.720  0.0601  0.7831 -0.0984
   62SAPC  H14A 4854   1.038   2.419  10.693 -0.9717  0.0107  1.9460
   62SAPC  H14B 4855   1.032   2.523  10.828 -0.0559 -3.1353  0.0873
   62SAPC  H14C 4856   0.922   2.541  10.681  0.2590  1.5887 -0.2315
   62SAPC   C15 4857   1.089   2.628  10.500  0.9437  0.2052  0.7088
   62SAPC  H15A 4858   1.155   2.684  10.434 -1.6519  2.7102 -0.0032
   62SAPC  H15B 4859   1.091   2.525  10.469  1.7028  0.0804  1.1658
   62SAPC  H15C 4860   0.992   2.670  10.477  1.4729 -0.1726 -2.7374
   62SAPC   C11 4861   0.928   2.814  10.700  0.4775 -0.1176  0.4233
   62SAPC  H11A 4862   0.916   2.900  10.769  2.0226 -1.8803  3.0334
   62SAPC  H11B 4863   0.861   2.746  10.755 -0.6925 -0.9641 -1.9214
   62SAPC     P 4864   0.906   2.964  10.486 -0.1224 -0.1303 -0.5234
   62SAPC   O13 4865   0.886   3.093  10.555  0.1537 -0.2426  0.1697
   62SAPC   O14 4866   1.041   2.940  10.434 -0.3444  0.4640 -0.1960
   62SAPC   O12 4867   0.865   2.843  10.571 -0.4842  0.1365 -0.1203
   62SAPC   O11 4868   0.810   2.946  10.358 -0.2900  0.1902  0.5409
   62SAPC    C1 4869   0.687   2.878  10.357 -0.9494  0.1865 -0.2022
   62SAPC    HA 4870   0.626   2.891  10.449 -2.2644 -1.2245 -0.8191
   62SAPC    HB 4871   0.625   2.913  10.272 -0.9400  0.6215 -0.0343
   62SAPC    C2 4872   0.702   2.725  10.315 -0.1849  0.6136 -0.4170
   62SAPC    HS 4873   0.770   2.676  10.388 -0.0748 -0.2224 -1.0706
   62SAPC   O21 4874   0.745   2.722  10.174 -0.9128  0.0277 -0.1500
   62SAPC   C21 4875   0.845   2.637  10.136 -0.6571 -0.1509  0.0616
   62SAPC   O22 4876   0.896   2.546  10.201  0.5927 -0.0248  0.1594
   62SAPC   C22 4877   0.902   2.680   9.994  0.0847 -0.0522 -0.9979
   62SAPC   H2R 4878   0.812   2.694   9.930 -2.1674 -1.2558  1.6462
   62SAPC   H2S 4879   0.948   2.780  10.011 -3.0310  1.4419 -0.5168
   62SAPC    C3 4880   0.566   2.655  10.343  0.1528  0.3957 -0.2623
   62SAPC    HX 4881   0.527   2.686  10.442 -1.9868  1.6871 -1.4350
   62SAPC    HY 4882   0.582   2.545  10.337  0.4830  0.2820  1.9238
   62SAPC   O31 4883   0.470   2.699  10.246  0.7127  0.2327 -0.3347
   62SAPC   C31 4884   0.355   2.619  10.241  0.5045 -0.4847 -0.3725
   62SAPC   O32 4885   0.338   2.526  10.312 -0.1478  0.0356  0.1969
   62SAPC   C32 4886   0.264   2.661  10.127  0.2437  0.3686 -0.4502
   62SAPC   H2X 4887   0.238   2.769  10.136 -0.5080  0.0737  1.4314
   62SAPC   H2Y 4888   0.172   2.600  10.134 -0.2275  1.2465  2.5199
   62SAPC   C23 4889   0.999   2.584   9.908  0.2476 -1.1553 -0.5332
   62SAPC   H3R 4890   1.001   2.620   9.803  1.9422 -1.0448 -0.5019
   62SAPC   H3S 4891   0.968   2.477   9.907 -1.5606 -0.6592 -1.0361
   62SAPC   C24 4892   1.152   2.580   9.943  0.6212 -0.4032  0.1290
   62SAPC   H4R 4893   1.201   2.508   9.874  1.2214  0.6489 -0.5916
   62SAPC   H4S 4894   1.165   2.529  10.040  2.4695  1.9170  1.2144
   62SAPC   C25 4895   1.225   2.710   9.956  0.1382 -0.0513  0.2669
   62SAPC   H5R 4896   1.265   2.736  10.055  0.8811 -1.5881  0.3984
   62SAPC   C26 4897   1.286   2.760   9.847 -0.2057 -0.2608 -0.4013
   62SAPC   H6R 4898   1.360   2.842   9.852 -0.1707 -0.1818 -1.8641
   62SAPC   C27 4899   1.280   2.709   9.705  0.7202  0.0013  0.2962
   62SAPC   H7R 4900   1.276   2.598   9.705  0.2551 -0.0013  1.8251
   62SAPC   H7S 4901   1.372   2.730   9.645 -0.1469 -3.0720 -2.4046
   62SAPC   C28 4902   1.154   2.758   9.627 -0.1927  0.5905 -0.8728
   62SAPC   H8R 4903   1.078   2.802   9.694 -2.2398 -0.3561 -2.4466
   62SAPC   C29 4904   1.136   2.729   9.494 -0.5969 -0.3222  0.0739
   62SAPC   H9R 4905   1.045   2.776   9.452 -0.4681 -1.1629 -1.1715
   62SAPC  C210 4906   1.237   2.659   9.405 -0.1449  0.0861 -0.2996
   62SAPC  H10R 4907   1.187   2.573   9.355  0.0015 -2.0497  2.9347
   62SAPC  H10S 4908   1.318   2.609   9.462 -0.9663  0.9350  1.6663
   62SAPC  C211 4909   1.302   2.755   9.304  0.1171 -1.0060 -0.3297
   62SAPC  H11R 4910   1.371   2.830   9.343 -0.0408 -0.4213 -1.1450
   62SAPC  C212 4911   1.274   2.762   9.171 -0.1513 -1.0249 -0.0308
   62SAPC  H12R 4912   1.316   2.836   9.101 -1.4894 -0.0674  0.1508
   62SAPC  C213 4913   1.164   2.682   9.110 -0.5459  0.3636  0.6880
   62SAPC  H13R 4914   1.123   2.730   9.018  1.2579  0.5925 -0.0361
   62SAPC  H13S 4915   1.077   2.676   9.179 -1.2128 -0.4355 -0.1884
   62SAPC  C214 4916   1.203   2.541   9.082  0.9095  0.2077 -0.4493
   62SAPC  H14R 4917   1.248   2.485   9.166  2.9033  1.4306 -0.6498
   62SAPC  C215 4918   1.184   2.475   8.965  0.2148 -0.6137  0.2966
   62SAPC  H15R 4919   1.206   2.367   8.956 -1.5554 -1.1512  1.9197
   62SAPC  C216 4920   1.135   2.530   8.839 -0.0958  0.2059  0.2618
   62SAPC  H16R 4921   1.186   2.625   8.811  0.9525 -0.3298  0.3040
   62SAPC  H16S 4922   1.025   2.532   8.857 -0.0429  0.3785  0.5738
   62SAPC  C217 4923   1.151   2.440   8.712  0.2034  0.1857  0.4869
   62SAPC  H17R 4924   1.255   2.413   8.685 -0.4100  0.0352 -1.9884
   62SAPC  H17S 4925   1.132   2.503   8.622  1.9475  0.0660 -0.0004
   62SAPC  C218 4926   1.071   2.307   8.699 -0.3826 -0.0789  0.0069
   62SAPC  H18R 4927   0.975   2.326   8.751  1.3474  1.1878  3.0324
   62SAPC  H18S 4928   1.122   2.222   8.750 -1.8320 -1.8798 -1.3788
   62SAPC  C219 4929   1.045   2.273   8.553 -0.4189  0.3111  0.4458
   62SAPC  H19R 4930   1.133   2.258   8.487  0.3306  0.6048  1.3555
   62SAPC  H19S 4931   0.980   2.354   8.514 -0.7848 -0.5325 -0.7616
   62SAPC  C220 4932   0.967   2.143   8.542  0.6072 -0.1407  0.1174
   62SAPC  H20R 4933   1.008   2.068   8.613  1.6604  1.4613  1.2651
   62SAPC  H20S 4934   0.960   2.112   8.436  0.2366 -0.0721  0.1180
   62SAPC  H20T 4935   0.865   2.175   8.574  0.7766  2.0026 -1.2787
   62SAPC   C33 4936   0.331   2.646   9.992 -0.2274  0.1303 -0.0792
   62SAPC   H3X 4937   0.350   2.543   9.955  0.8405  1.3365 -3.3028
   62SAPC   H3Y 4938   0.428   2.702   9.996  0.2092 -0.6940  2.9864
   62SAPC   C34 4939   0.256   2.711   9.872 -0.1638  0.1002 -0.2161
   62SAPC   H4X 4940   0.226   2.806   9.921 -0.7040 -0.9803  1.6592
   62SAPC   H4Y 4941   0.169   2.647   9.844 -2.0298  1.7879  1.3872
   62SAPC   C35 4942   0.344   2.736   9.743  0.0476  0.6530  0.0368
   62SAPC   H5X 4943   0.389   2.640   9.712 -1.4397 -0.5326  1.3749
   62SAPC   H5Y 4944   0.418   2.817   9.762 -1.1845  1.8250  0.0354
   62SAPC   C36 4945   0.254   2.779   9.628 -0.7463 -0.6172  0.5825
   62SAPC   H6X 4946   0.223   2.884   9.648  3.1112  0.7202  0.3705
   62SAPC   H6Y 4947   0.172   2.705   9.622 -1.5892  0.2628  0.9421
   62SAPC   C37 4948   0.325   2.770   9.489  0.3231 -0.0939 -0.2874
   62SAPC   H7X 4949   0.369   2.670   9.474 -1.2276 -0.8932  0.2735
   62SAPC   H7Y 4950   0.414   2.837   9.481  0.3468  0.0122  0.7012
   62SAPC   C38 4951   0.229   2.785   9.370  0.6152 -0.3601 -0.4335
   62SAPC   H8X 4952   0.205   2.893   9.357  1.6400  0.0968  1.1547
   62SAPC   H8Y 4953   0.141   2.719   9.385  0.1605  0.4214  0.4784
   62SAPC   C39 4954   0.294   2.753   9.234 -0.1093  0.1412  0.4813
   62SAPC   H9X 4955   0.222   2.759   9.151  1.2327  1.1673 -0.6474
   62SAPC   H9Y 4956   0.325   2.647   9.248  0.1837 -0.0027 -1.0611
   62SAPC  C310 4957   0.417   2.835   9.192 -0.5241 -0.1239  0.3754
   62SAPC  H10X 4958   0.503   2.799   9.251  0.4393  3.3667  1.3462
   62SAPC  H10Y 4959   0.409   2.944   9.211 -0.0327 -0.4936  2.9332
   62SAPC  C311 4960   0.442   2.815   9.038 -0.0532 -0.6522 -0.4474
   62SAPC  H11X 4961   0.357   2.868   8.992 -0.8373  1.1135  2.7664
   62SAPC  H11Y 4962   0.435   2.707   9.012  0.1316 -0.9235  0.5922
   62SAPC  C312 4963   0.579   2.880   9.001  0.1643  0.1368 -0.3701
   62SAPC  H12X 4964   0.663   2.819   9.039  0.8757  0.6655 -1.0524
   62SAPC  H12Y 4965   0.591   2.982   9.043  2.0084 -0.2708  0.1940
   62SAPC  C313 4966   0.601   2.886   8.853 -0.3706 -0.8436  0.0788
   62SAPC  H13X 4967   0.576   2.788   8.809  0.0371 -0.7403 -0.3901
   62SAPC  H13Y 4968   0.711   2.905   8.851 -0.4355  0.0821  2.1508
   62SAPC  C314 4969   0.517   2.992   8.783 -0.2397  0.7371  0.2663
   62SAPC  H14X 4970   0.563   3.093   8.791  0.0615  0.5620  0.7924
   62SAPC  H14Y 4971   0.423   3.017   8.836  0.4490  2.6576  0.6837
   62SAPC  C315 4972   0.496   2.959   8.632  0.4496  0.1156  0.1731
   62SAPC  H15X 4973   0.422   3.035   8.596  1.4885  1.9514  1.7037
   62SAPC  H15Y 4974   0.440   2.863   8.635 -0.4436  0.5199 -1.6328
   62SAPC  C316 4975   0.622   2.930   8.543  0.3035 -0.1871  0.1494
   62SAPC  H16X 4976   0.691   2.869   8.605  2.5342  0.7710 -1.2849
   62SAPC  H16Y 4977   0.682   3.022   8.526  1.8309 -1.2864 -0.6589
   62SAPC  C317 4978   0.602   2.849   8.415  0.1066  0.5413 -0.3778
   62SAPC  H17X 4979   0.569   2.749   8.451 -0.4294  1.3544  1.4529
   62SAPC  H17Y 4980   0.699   2.831   8.365  1.3528  3.0325  1.0128
   62SAPC  C318 4981   0.497   2.903   8.317 -0.0764  0.0306  0.5058
   62SAPC  H18X 4982   0.521   3.009   8.291  1.5447  0.0231  1.7873
   62SAPC  H18Y 4983   0.397   2.901   8.365  1.1460  0.4777  3.2769
   62SAPC  H18Z 4984   0.498   2.834   8.231  3.4116  1.2058 -0.5515
   63SAPC     N 4985   6.457   1.470   6.266 -0.4684  0.1073 -0.2386
   63SAPC   C12 4986   6.479   1.348   6.347 -0.2680  0.0880  0.3328
   63SAPC  H12A 4987   6.582   1.316   6.337 -0.1005  0.8080 -0.2763
   63SAPC  H12B 4988   6.421   1.264   6.312  0.3876 -0.8832  1.4756
   63SAPC   C13 4989   6.504   1.443   6.128 -0.5435  0.7630  0.3317
   63SAPC  H13A 4990   6.470   1.526   6.068 -1.3004 -0.5871 -1.1856
   63SAPC  H13B 4991   6.611   1.442   6.118 -0.7735  1.8561 -4.4124
   63SAPC  H13C 4992   6.456   1.355   6.089  0.9257  0.5753 -1.1737
   63SAPC   C14 4993   6.313   1.509   6.261  0.2317 -0.6670 -0.0559
   63SAPC  H14A 4994   6.248   1.433   6.219 -3.1783  0.5918  2.5259
   63SAPC  H14B 4995   6.276   1.530   6.360 -1.0099 -1.5026 -0.3186
   63SAPC  H14C 4996   6.287   1.603   6.213 -0.8735 -1.7046 -1.5892
   63SAPC   C15 4997   6.533   1.589   6.325  0.0762 -0.6462  0.1989
   63SAPC  H15A 4998   6.512   1.681   6.271 -0.8625 -0.9754 -0.0311
   63SAPC  H15B 4999   6.494   1.617   6.422 -2.5029 -0.9019 -0.6904
   63SAPC  H15C 5000   6.639   1.572   6.327 -0.3720 -4.2712 -0.0213
   63SAPC   C11 5001   6.451   1.361   6.503 -0.3588 -0.1977  0.2471
   63SAPC  H11A 5002   6.516   1.441   6.543  0.6091 -1.9111  2.2916
   63SAPC  H11B 5003   6.483   1.273   6.562  1.3534  0.1626 -0.0836
   63SAPC     P 5004   6.213   1.291   6.538  0.1118 -0.3232  0.2535
   63SAPC   O13 5005   6.078   1.349   6.576 -0.4367 -0.0342 -0.0835
   63SAPC   O14 5006   6.209   1.205   6.417 -0.3862 -0.2391  0.8332
   63SAPC   O12 5007   6.319   1.411   6.527 -0.5113  0.7185  0.4662
   63SAPC   O11 5008   6.257   1.193   6.653 -0.3035 -0.6700 -0.2447
   63SAPC    C1 5009   6.283   1.250   6.785  0.2938 -0.2432  0.3610
   63SAPC    HA 5010   6.352   1.177   6.833 -0.6172 -0.0829  1.9819
   63SAPC    HB 5011   6.333   1.349   6.779 -0.6226  0.2372  0.6280
   63SAPC    C2 5012   6.151   1.247   6.877 -0.4455 -0.1322  0.4516
   63SAPC    HS 5013   6.092   1.338   6.853  0.5703  0.1922 -0.9139
   63SAPC   O21 5014   6.209   1.258   7.008  0.3769  0.4111  0.6642
   63SAPC   C21 5015   6.137   1.311   7.101 -0.8289 -0.1488 -0.5626
   63SAPC   O22 5016   6.022   1.352   7.087 -0.5755  0.3218 -0.2349
   63SAPC   C22 5017   6.215   1.311   7.238 -0.1969  0.2138 -0.4013
   63SAPC   H2R 5018   6.153   1.341   7.325 -0.5024  1.3664 -1.0027
   63SAPC   H2S 5019   6.245   1.207   7.263  1.2003  0.8227  0.6059
   63SAPC    C3 5020   6.060   1.117   6.863  0.1327 -0.3476 -0.4094
   63SAPC    HX 5021   6.128   1.030   6.874 -0.5955 -0.6130  2.8593
   63SAPC    HY 5022   6.032   1.119   6.755 -2.6981 -1.8158  0.1882
   63SAPC   O31 5023   5.949   1.101   6.947  0.0900 -0.7149  0.2007
   63SAPC   C31 5024   5.834   1.149   6.905 -0.6792 -0.1703 -0.0754
   63SAPC   O32 5025   5.820   1.222   6.808 -0.5860  0.3098 -0.3284
   63SAPC   C32 5026   5.728   1.097   6.993  0.1268  0.2848 -0.2217
   63SAPC   H2X 5027   5.749   0.993   7.025  2.1206  0.5871 -0.3890
   63SAPC   H2Y 5028   5.640   1.106   6.926  0.7042 -0.4250 -1.0895
   63SAPC   C23 5029   6.348   1.381   7.216  0.3146 -0.1760 -0.7304
   63SAPC   H3R 5030   6.340   1.488   7.187 -0.7037 -0.2802 -0.8746
   63SAPC   H3S 5031   6.408   1.341   7.131  0.4668  0.8082 -1.0906
   63SAPC   C24 5032   6.430   1.368   7.346 -0.4151 -0.5488 -0.2310
   63SAPC   H4R 5033   6.447   1.262   7.372 -0.5817  0.2289  3.8104
   63SAPC   H4S 5034   6.362   1.404   7.426  0.3328  0.3228  0.0279
   63SAPC   C25 5035   6.556   1.442   7.342  0.3644 -0.9923 -0.6627
   63SAPC   H5R 5036   6.617   1.422   7.253  1.3145  0.2119 -0.3124
   63SAPC   C26 5037   6.592   1.540   7.431 -0.0693 -0.7498 -0.1863
   63SAPC   H6R 5038   6.686   1.594   7.417  0.4059 -1.3457  0.5895
   63SAPC   C27 5039   6.513   1.594   7.547  0.5337 -0.1938 -0.6724
   63SAPC   H7R 5040   6.410   1.606   7.507 -0.6175 -1.4704  1.7380
   63SAPC   H7S 5041   6.552   1.697   7.555 -0.6426  0.1784  0.6287
   63SAPC   C28 5042   6.525   1.526   7.683  0.0409 -0.7299  0.0994
   63SAPC   H8R 5043   6.631   1.520   7.712  0.2217  0.3463 -0.2957
   63SAPC   C29 5044   6.436   1.458   7.757  0.7553  0.5848  0.4191
   63SAPC   H9R 5045   6.469   1.428   7.858  0.8431  0.2624  0.2953
   63SAPC  C210 5046   6.285   1.442   7.719  0.3681 -0.0474  0.9042
   63SAPC  H10R 5047   6.270   1.434   7.610 -1.2678  0.0313  1.1053
   63SAPC  H10S 5048   6.227   1.528   7.759  2.2378  0.5270  2.5945
   63SAPC  C211 5049   6.222   1.322   7.788  0.3212 -0.0635  0.8193
   63SAPC  H11R 5050   6.222   1.235   7.722  0.5395 -0.2640  1.0825
   63SAPC  C212 5051   6.166   1.316   7.908  0.1558 -0.8121 -0.4210
   63SAPC  H12R 5052   6.113   1.226   7.944 -0.3350 -0.0094  0.9443
   63SAPC  C213 5053   6.150   1.426   8.005 -0.2094 -0.2761  0.1898
   63SAPC  H13R 5054   6.044   1.436   8.037 -0.4181  0.2225 -0.6181
   63SAPC  H13S 5055   6.164   1.523   7.952 -0.3167  0.3386  1.2626
   63SAPC  C214 5056   6.265   1.438   8.106  0.2917  0.2423 -0.3344
   63SAPC  H14R 5057   6.357   1.489   8.074  1.3675 -1.9164 -0.8801
   63SAPC  C215 5058   6.264   1.391   8.234  0.3454  0.7360  0.4953
   63SAPC  H15R 5059   6.361   1.386   8.286  0.3390  1.7621  0.6148
   63SAPC  C216 5060   6.152   1.309   8.300  0.1817  0.4319  0.6041
   63SAPC  H16R 5061   6.175   1.240   8.384  1.5840 -0.6279 -0.5958
   63SAPC  H16S 5062   6.123   1.243   8.215  4.0183  1.6198 -1.8483
   63SAPC  C217 5063   6.025   1.394   8.337 -0.5921 -0.0368  0.2131
   63SAPC  H17R 5064   5.994   1.439   8.240 -1.4227  2.7392  1.6757
   63SAPC  H17S 5065   6.052   1.478   8.403 -0.4095  1.7631 -2.0445
   63SAPC  C218 5066   5.907   1.322   8.396  0.1431  0.4066 -0.2021
   63SAPC  H18R 5067   5.941   1.287   8.496 -2.0808 -2.7701 -0.4116
   63SAPC  H18S 5068   5.878   1.232   8.338  0.9115 -0.2889  0.4773
   63SAPC  C219 5069   5.800   1.414   8.422  1.1198 -0.7220 -0.4087
   63SAPC  H19R 5070   5.758   1.426   8.320  0.4186  1.9567  0.1245
   63SAPC  H19S 5071   5.827   1.513   8.465 -1.7676 -0.2014  0.4775
   63SAPC  C220 5072   5.685   1.361   8.510  0.4350  0.0085 -0.3941
   63SAPC  H20R 5073   5.629   1.442   8.561  0.7430  0.5081 -0.8358
   63SAPC  H20S 5074   5.723   1.291   8.587 -1.9779 -0.6390  0.3190
   63SAPC  H20T 5075   5.624   1.299   8.440  0.4259 -1.9004  1.2294
   63SAPC   C33 5076   5.705   1.179   7.119 -0.0008  0.2167 -0.0795
   63SAPC   H3X 5077   5.797   1.193   7.180  0.9552 -0.0397 -1.4298
   63SAPC   H3Y 5078   5.633   1.135   7.192 -0.3473 -0.0405 -0.5735
   63SAPC   C34 5079   5.663   1.329   7.093  0.3894 -0.4319  0.9011
   63SAPC   H4X 5080   5.557   1.332   7.060  0.4013  0.0954  0.8904
   63SAPC   H4Y 5081   5.713   1.373   7.004  0.9832 -0.1085  1.3832
   63SAPC   C35 5082   5.682   1.417   7.214  0.2918  0.2490 -0.6257
   63SAPC   H5X 5083   5.630   1.511   7.187  0.5775  0.1073 -1.7372
   63SAPC   H5Y 5084   5.788   1.437   7.241 -0.2741  1.5776  0.6724
   63SAPC   C36 5085   5.604   1.366   7.340 -0.4257 -0.2487  0.7993
   63SAPC   H6X 5086   5.631   1.260   7.362 -2.9236 -0.9699  0.7081
   63SAPC   H6Y 5087   5.496   1.369   7.316 -0.1172 -0.0056 -0.6143
   63SAPC   C37 5088   5.642   1.452   7.464  0.0572  0.3340  0.7850
   63SAPC   H7X 5089   5.587   1.427   7.556  1.0070  0.5465  1.4219
   63SAPC   H7Y 5090   5.625   1.561   7.452 -0.0855  0.3863  1.4513
   63SAPC   C38 5091   5.783   1.433   7.523  0.2233  0.2699  0.0317
   63SAPC   H8X 5092   5.852   1.471   7.445  0.3945 -0.4108 -0.1539
   63SAPC   H8Y 5093   5.802   1.324   7.531  0.1508  0.1273 -1.4025
   63SAPC   C39 5094   5.805   1.514   7.656 -0.2316  0.4129  0.7068
   63SAPC   H9X 5095   5.763   1.615   7.637  1.3499  1.4604  2.4061
   63SAPC   H9Y 5096   5.912   1.512   7.684 -0.2354 -1.0954  0.6976
   63SAPC  C310 5097   5.734   1.469   7.789 -0.0422  0.0757 -0.6333
   63SAPC  H10X 5098   5.624   1.456   7.780 -0.6210  1.0132  3.3866
   63SAPC  H10Y 5099   5.762   1.540   7.869  2.5170 -0.3099 -1.1131
   63SAPC  C311 5100   5.781   1.325   7.832  0.8423  0.8384 -0.3908
   63SAPC  H11X 5101   5.892   1.326   7.838  0.8714  0.2278 -0.7303
   63SAPC  H11Y 5102   5.751   1.248   7.758  1.5096 -1.0372  1.2249
   63SAPC  C312 5103   5.712   1.294   7.971  0.1709  0.7592 -0.3799
   63SAPC  H12X 5104   5.602   1.278   7.970  0.2297  0.0012  1.3263
   63SAPC  H12Y 5105   5.729   1.379   8.040 -0.0145  1.9273 -1.7441
   63SAPC  C313 5106   5.778   1.176   8.039 -0.3201  0.8156 -0.1164
   63SAPC  H13X 5107   5.876   1.211   8.080  0.2046 -0.3760 -0.3201
   63SAPC  H13Y 5108   5.801   1.112   7.951  0.7344  2.4399 -1.0873
   63SAPC  C314 5109   5.705   1.106   8.156  0.3107 -0.1743  0.2054
   63SAPC  H14X 5110   5.614   1.059   8.113  0.9179 -0.5143 -0.7617
   63SAPC  H14Y 5111   5.671   1.177   8.234 -0.1560  1.7865 -1.7016
   63SAPC  C315 5112   5.795   1.003   8.210  0.1355 -0.7778  0.3726
   63SAPC  H15X 5113   5.896   1.043   8.231 -0.5294  0.2436  1.8443
   63SAPC  H15Y 5114   5.811   0.926   8.131  1.0144 -2.6911  2.3215
   63SAPC  C316 5115   5.751   0.928   8.334 -0.1119  0.3296  0.0778
   63SAPC  H16X 5116   5.838   0.862   8.356  1.5399  2.1992 -0.5791
   63SAPC  H16Y 5117   5.667   0.860   8.310  1.8569 -1.3210 -2.7243
   63SAPC  C317 5118   5.716   1.015   8.453 -0.2285  0.0382  0.2004
   63SAPC  H17X 5119   5.620   1.067   8.435 -1.1416 -1.8604 -0.7464
   63SAPC  H17Y 5120   5.798   1.088   8.471 -0.6876  0.5563  0.2107
   63SAPC  C318 5121   5.720   0.936   8.578  0.2905  0.1122  0.5221
   63SAPC  H18X 5122   5.662   0.841   8.567 -2.5425  1.7081  0.7343
   63SAPC  H18Y 5123   5.673   0.993   8.661  0.4007  1.8842 -0.5779
   63SAPC  H18Z 5124   5.824   0.903   8.598 -0.5327 -3.7235 -0.6052
   64SAPC     N 5125   0.125   1.748   5.647 -0.6844 -0.1806 -0.0922
   64SAPC   C12 5126   0.182   1.863   5.723  0.2056 -0.1784 -0.4033
   64SAPC  H12A 5127   0.176   1.949   5.658  0.9803  0.5352  0.4298
   64SAPC  H12B 5128   0.287   1.848   5.744 -0.1444 -1.6663  0.3847
   64SAPC   C13 5129  -0.019   1.778   5.612 -0.6477  0.5683  0.5382
   64SAPC  H13A 5130  -0.057   1.696   5.553 -1.4621  1.1452  0.2508
   64SAPC  H13B 5131  -0.077   1.777   5.703 -2.1182 -1.6694 -0.3203
   64SAPC  H13C 5132  -0.028   1.873   5.562 -2.7902  0.5275  0.7476
   64SAPC   C14 5133   0.210   1.711   5.538 -0.0187 -0.8854  0.4395
   64SAPC  H14A 5134   0.186   1.613   5.501  1.1902 -0.8806 -0.3980
   64SAPC  H14B 5135   0.200   1.776   5.453  2.7428  1.3610  1.6480
   64SAPC  H14C 5136   0.316   1.714   5.558 -0.3299  1.6270  2.2662
   64SAPC   C15 5137   0.130   1.627   5.749  0.3846 -0.5786  0.0774
   64SAPC  H15A 5138   0.223   1.624   5.803  0.7098 -0.2115 -0.4550
   64SAPC  H15B 5139   0.065   1.646   5.833 -0.4823  1.3635 -0.9677
   64SAPC  H15C 5140   0.109   1.531   5.705  0.5047  0.0018 -1.3216
   64SAPC   C11 5141   0.119   1.894   5.861  0.0727 -0.2612  0.1688
   64SAPC  H11A 5142   0.009   1.894   5.856  0.0967 -0.0583 -0.4445
   64SAPC  H11B 5143   0.155   1.997   5.885  0.7449 -0.6398  0.8408
   64SAPC     P 5144   0.302   1.786   6.022  0.2746 -0.0344 -0.1130
   64SAPC   O13 5145   0.303   1.678   6.120  0.8789  0.0407  0.7030
   64SAPC   O14 5146   0.389   1.760   5.901  0.2573 -0.5345  0.1879
   64SAPC   O12 5147   0.154   1.797   5.966  0.3750  0.0257  0.1235
   64SAPC   O11 5148   0.317   1.927   6.085 -0.0867 -0.3883  0.2418
   64SAPC    C1 5149   0.259   1.948   6.217 -0.1934  0.1571 -1.1928
   64SAPC    HA 5150   0.148   1.957   6.215 -0.2887 -0.8620 -1.0091
   64SAPC    HB 5151   0.279   1.863   6.286 -2.9317 -0.7709 -1.4282
   64SAPC    C2 5152   0.330   2.063   6.270 -0.4013 -0.0986 -0.6669
   64SAPC    HS 5153   0.440   2.061   6.250  0.3234  0.7456  2.5392
   64SAPC   O21 5154   0.303   2.076   6.409 -0.6580 -0.1130 -0.0466
   64SAPC   C21 5155   0.387   2.033   6.495 -0.3913  0.4544 -0.6807
   64SAPC   O22 5156   0.480   1.959   6.480 -0.2288  0.0524  0.0341
   64SAPC   C22 5157   0.347   2.095   6.630 -0.7645  0.3566  0.0982
   64SAPC   H2R 5158   0.420   2.179   6.634  0.7050 -0.8855  0.1989
   64SAPC   H2S 5159   0.245   2.137   6.620 -1.5281 -0.6472  2.8136
   64SAPC    C3 5160   0.289   2.195   6.198  0.2414  0.3194  0.5321
   64SAPC    HX 5161   0.180   2.209   6.211 -0.0374  0.0752 -1.3955
   64SAPC    HY 5162   0.307   2.187   6.089 -0.1019 -0.1749  0.5091
   64SAPC   O31 5163   0.348   2.315   6.262 -0.4215  0.3625  0.0440
   64SAPC   C31 5164   0.460   2.355   6.207  0.5994  0.5589 -1.2556
   64SAPC   O32 5165   0.516   2.299   6.118 -0.6241  0.6132  0.0153
   64SAPC   C32 5166   0.508   2.480   6.276 -0.7786  0.2969 -0.2731
   64SAPC   H2X 5167   0.435   2.560   6.253 -0.9204  1.3577  3.2791
   64SAPC   H2Y 5168   0.605   2.508   6.231 -1.4173  0.8866 -1.3023
   64SAPC   C23 5169   0.361   2.000   6.748 -0.1090  0.2813 -1.6771
   64SAPC   H3R 5170   0.344   2.049   6.847 -0.2963 -1.7756 -0.6423
   64SAPC   H3S 5171   0.465   1.963   6.755 -0.0787  0.5909  3.1712
   64SAPC   C24 5172   0.253   1.896   6.745 -0.2056 -0.4220 -0.2057
   64SAPC   H4R 5173   0.151   1.932   6.719  0.1263 -0.7068 -2.0208
   64SAPC   H4S 5174   0.242   1.853   6.847  3.0702  0.3395  0.5755
   64SAPC   C25 5175   0.277   1.779   6.650  0.1642 -0.2951 -0.8968
   64SAPC   H5R 5176   0.380   1.744   6.632  0.0247 -0.5757 -1.1847
   64SAPC   C26 5177   0.179   1.704   6.597  0.1150  0.0715  0.8317
   64SAPC   H6R 5178   0.213   1.631   6.522  0.5975  1.8327 -0.7249
   64SAPC   C27 5179   0.031   1.717   6.617  0.1516 -0.0128  0.3651
   64SAPC   H7R 5180   0.015   1.732   6.726  1.2970  0.4293  0.4899
   64SAPC   H7S 5181  -0.030   1.628   6.593 -1.0282  1.1523 -1.1987
   64SAPC   C28 5182  -0.032   1.826   6.535 -0.1116 -0.6283 -0.3311
   64SAPC   H8R 5183   0.012   1.850   6.438  0.3700  0.7694  0.2114
   64SAPC   C29 5184  -0.151   1.885   6.552  0.1590 -0.1493 -0.4200
   64SAPC   H9R 5185  -0.196   1.951   6.476 -2.2767 -0.6514  0.4994
   64SAPC  C210 5186  -0.228   1.865   6.678  0.6129  0.4080 -0.6618
   64SAPC  H10R 5187  -0.213   1.762   6.717  1.3023  0.9716  0.6264
   64SAPC  H10S 5188  -0.335   1.874   6.651  0.9371 -0.1166 -2.1910
   64SAPC  C211 5189  -0.187   1.958   6.789  0.0169 -0.1170 -0.4480
   64SAPC  H11R 5190  -0.090   1.928   6.833  0.5739  0.5350 -1.2022
   64SAPC  C212 5191  -0.257   2.058   6.837 -0.5321  0.3828 -0.8056
   64SAPC  H12R 5192  -0.211   2.124   6.912  1.6325  0.7170 -2.3276
   64SAPC  C213 5193  -0.389   2.110   6.792  1.0071 -1.0209  0.5886
   64SAPC  H13R 5194  -0.437   2.030   6.733  0.7597 -1.2775  1.1307
   64SAPC  H13S 5195  -0.371   2.199   6.727  2.0482  0.0673  2.2796
   64SAPC  C214 5196  -0.481   2.153   6.906  1.1960 -0.2687 -0.2944
   64SAPC  H14R 5197  -0.577   2.099   6.912 -0.8142  3.0535  0.0060
   64SAPC  C215 5198  -0.458   2.248   6.998  0.1255  0.5971  0.7146
   64SAPC  H15R 5199  -0.540   2.267   7.069 -0.2055 -0.0676  0.5250
   64SAPC  C216 5200  -0.342   2.335   7.015  0.6534  0.4236 -0.0477
   64SAPC  H16R 5201  -0.377   2.439   7.033 -1.9447 -0.3654 -0.2563
   64SAPC  H16S 5202  -0.285   2.327   6.920 -1.7606  1.8379 -1.7286
   64SAPC  C217 5203  -0.248   2.303   7.134  0.4479  0.4379 -0.1814
   64SAPC  H17R 5204  -0.153   2.358   7.118  0.3497  0.3833 -0.9916
   64SAPC  H17S 5205  -0.229   2.194   7.129  4.5378  1.0472 -1.1424
   64SAPC  C218 5206  -0.301   2.363   7.267 -0.1856  0.6179 -0.6052
   64SAPC  H18R 5207  -0.405   2.330   7.288  0.0944  1.6524  3.0124
   64SAPC  H18S 5208  -0.311   2.473   7.255 -3.8816  0.4802  0.0148
   64SAPC  C219 5209  -0.207   2.326   7.381 -0.0213 -0.4466  0.2178
   64SAPC  H19R 5210  -0.100   2.352   7.367  0.5018 -2.1417  0.8280
   64SAPC  H19S 5211  -0.210   2.221   7.416  0.0783 -1.4918 -2.6911
   64SAPC  C220 5212  -0.246   2.401   7.502  0.2045 -0.0639 -0.0237
   64SAPC  H20R 5213  -0.352   2.387   7.533  0.2359  2.2298  1.3725
   64SAPC  H20S 5214  -0.225   2.510   7.501  0.0328 -0.0268  0.2923
   64SAPC  H20T 5215  -0.188   2.371   7.592  0.4594  1.4479  0.3467
   64SAPC   C33 5216   0.509   2.460   6.434  0.5540 -0.4988  0.7716
   64SAPC   H3X 5217   0.602   2.411   6.469  0.9071 -0.0301  0.4864
   64SAPC   H3Y 5218   0.424   2.397   6.470  0.3980 -0.5996  0.2345
   64SAPC   C34 5219   0.506   2.596   6.504 -0.0545 -0.0618 -0.4818
   64SAPC   H4X 5220   0.432   2.662   6.454  1.3980  2.5205  0.5814
   64SAPC   H4Y 5221   0.610   2.633   6.490  0.2421 -1.2215 -1.4891
   64SAPC   C35 5222   0.464   2.574   6.651 -0.2294 -0.6479  0.3394
   64SAPC   H5X 5223   0.375   2.507   6.657 -0.1118 -0.8565 -0.2045
   64SAPC   H5Y 5224   0.449   2.676   6.692 -1.7617  0.6729 -3.1329
   64SAPC   C36 5225   0.567   2.512   6.740  0.3060  0.0865  0.5639
   64SAPC   H6X 5226   0.661   2.569   6.727  1.5204 -2.0811 -0.6438
   64SAPC   H6Y 5227   0.581   2.414   6.690 -0.9037 -0.3588  1.0492
   64SAPC   C37 5228   0.528   2.502   6.886  0.2467  0.5429 -0.0462
   64SAPC   H7X 5229   0.461   2.589   6.902  0.3309  0.6819 -0.4244
   64SAPC   H7Y 5230   0.621   2.514   6.945  0.8192 -3.4622  0.1500
   64SAPC   C38 5231   0.456   2.372   6.930 -0.1299  0.1250 -0.7001
   64SAPC   H8X 5232   0.508   2.287   6.880 -0.4793  0.6306 -1.9633
   64SAPC   H8Y 5233   0.351   2.354   6.899  0.1797 -0.9444 -1.1759
   64SAPC   C39 5234   0.468   2.366   7.079 -0.3421  0.3123 -0.4393
   64SAPC   H9X 5235   0.471   2.466   7.128 -0.2101  1.3574 -2.4939
   64SAPC   H9Y 5236   0.571   2.330   7.101  0.0593  2.8091  2.5099
   64SAPC  C310 5237   0.367   2.274   7.157 -0.6374  0.5250  0.3040
   64SAPC  H10X 5238   0.355   2.173   7.112 -1.0619 -0.2436  2.0551
   64SAPC  H10Y 5239   0.271   2.331   7.157  0.6838  2.9150 -1.0817
   64SAPC  C311 5240   0.392   2.247   7.309  0.1410 -0.4023 -0.4171
   64SAPC  H11X 5241   0.493   2.199   7.305  1.5366  2.3888 -1.3014
   64SAPC  H11Y 5242   0.313   2.179   7.348  0.5679 -0.6323  0.0614
   64SAPC  C312 5243   0.405   2.364   7.407  0.3229  0.1650  0.1328
   64SAPC  H12X 5244   0.315   2.428   7.394 -1.8124 -2.0812  2.6821
   64SAPC  H12Y 5245   0.497   2.423   7.384  1.3680 -0.9295  1.3348
   64SAPC  C313 5246   0.407   2.311   7.557 -0.8702 -0.0012 -0.6049
   64SAPC  H13X 5247   0.474   2.383   7.608  1.9049 -2.1408 -1.0020
   64SAPC  H13Y 5248   0.469   2.219   7.570  2.1246  1.8515 -0.8384
   64SAPC  C314 5249   0.265   2.318   7.624 -0.4956  0.5958 -0.8856
   64SAPC  H14X 5250   0.216   2.221   7.600  0.8263 -0.0857 -0.9112
   64SAPC  H14Y 5251   0.216   2.405   7.575 -1.4295  0.7001  0.2228
   64SAPC  C315 5252   0.276   2.342   7.772 -0.1389  0.2139 -0.6672
   64SAPC  H15X 5253   0.314   2.444   7.793 -4.7893  2.1296 -0.4663
   64SAPC  H15Y 5254   0.341   2.265   7.821 -1.0794  0.1245  0.4768
   64SAPC  C316 5255   0.144   2.334   7.856  0.0488  0.2063 -0.0856
   64SAPC  H16X 5256   0.085   2.255   7.804  1.3352  0.1555 -1.5402
   64SAPC  H16Y 5257   0.091   2.432   7.847 -3.4336 -1.4151  0.9485
   64SAPC  C317 5258   0.166   2.296   8.003 -0.2694 -0.4640  0.2532
   64SAPC  H17X 5259   0.233   2.372   8.047 -2.3269  2.2796 -1.0712
   64SAPC  H17Y 5260   0.225   2.202   8.012 -0.9409 -0.8224  1.0825
   64SAPC  C318 5261   0.035   2.288   8.074  0.4768 -0.2059  0.1201
   64SAPC  H18X 5262   0.048   2.253   8.179 -0.7215  0.4887  0.5205
   64SAPC  H18Y 5263  -0.024   2.205   8.029  0.1407  1.2219 -2.2355
   64SAPC  H18Z 5264  -0.027   2.380   8.075 -1.0223 -1.1815  0.7364
   65SAPC     N 5265   0.762   3.687   5.625 -0.2662 -0.4133  0.4359
   65SAPC   C12 5266   0.709   3.772   5.743 -0.0693 -0.0849  0.4283
   65SAPC  H12A 5267   0.667   3.703   5.814  0.4346 -1.1945 -0.3214
   65SAPC  H12B 5268   0.631   3.841   5.714 -0.2731  0.0699  1.2977
   65SAPC   C13 5269   0.643   3.612   5.579 -0.0861  0.7496 -0.4274
   65SAPC  H13A 5270   0.565   3.675   5.539 -1.3288  0.0926  0.8587
   65SAPC  H13B 5271   0.670   3.553   5.493  0.7612 -0.4029  0.5898
   65SAPC  H13C 5272   0.606   3.539   5.650  1.1983  0.7263  0.2573
   65SAPC   C14 5273   0.799   3.781   5.516  0.4695  0.5674 -0.6553
   65SAPC  H14A 5274   0.822   3.721   5.429 -0.8332 -0.1307 -0.5548
   65SAPC  H14B 5275   0.722   3.851   5.487 -0.8047 -0.4048  0.2595
   65SAPC  H14C 5276   0.876   3.847   5.554  0.9842 -0.1010 -0.5171
   65SAPC   C15 5277   0.881   3.602   5.670 -0.0533  0.1936  0.3190
   65SAPC  H15A 5278   0.861   3.559   5.767 -2.4377  1.1224  0.3031
   65SAPC  H15B 5279   0.899   3.520   5.602  1.8995  1.1576 -0.4224
   65SAPC  H15C 5280   0.972   3.660   5.666 -2.1245  3.6291 -1.5633
   65SAPC   C11 5281   0.813   3.862   5.820  0.4531  0.4421 -0.2096
   65SAPC  H11A 5282   0.876   3.787   5.874  1.2639  3.5445  3.6533
   65SAPC  H11B 5283   0.755   3.916   5.898  2.5738  1.0283  1.0636
   65SAPC     P 5284   1.006   4.026   5.822 -0.1911 -0.1820 -0.2729
   65SAPC   O13 5285   1.115   4.048   5.733 -0.7149  0.0167  0.2915
   65SAPC   O14 5286   0.945   4.153   5.875  0.4360 -0.0845 -0.2005
   65SAPC   O12 5287   0.894   3.951   5.744  0.0498  0.3701  0.4928
   65SAPC   O11 5288   1.051   3.927   5.938 -0.0117  0.3457 -0.4491
   65SAPC    C1 5289   1.121   3.983   6.051 -0.5449 -0.8521 -0.2618
   65SAPC    HA 5290   1.227   3.998   6.021 -0.7499 -1.6626 -1.4883
   65SAPC    HB 5291   1.077   4.075   6.095  0.9428  0.5037 -1.5205
   65SAPC    C2 5292   1.120   3.884   6.169  0.5241  0.2670  0.4148
   65SAPC    HS 5293   1.159   3.933   6.260  1.8132  1.4628 -0.7309
   65SAPC   O21 5294   1.204   3.770   6.140  0.1603 -0.1855 -0.3274
   65SAPC   C21 5295   1.332   3.792   6.164 -0.4902 -0.2748  0.3271
   65SAPC   O22 5296   1.379   3.895   6.208 -0.0071 -0.1377 -0.5781
   65SAPC   C22 5297   1.406   3.664   6.127 -0.2089 -0.4971  0.6678
   65SAPC   H2R 5298   1.390   3.632   6.022 -1.6287  1.1329  0.3589
   65SAPC   H2S 5299   1.516   3.679   6.142 -0.1905 -1.1856  1.3274
   65SAPC    C3 5300   0.969   3.845   6.196  0.4097  0.6142 -0.0240
   65SAPC    HX 5301   0.932   3.760   6.135 -0.8592  0.2237  1.2313
   65SAPC    HY 5302   0.902   3.930   6.171  0.0452 -0.0386 -1.3875
   65SAPC   O31 5303   0.951   3.797   6.338  0.1618 -0.1459  0.5800
   65SAPC   C31 5304   0.951   3.903   6.425  0.2128 -0.1072  0.7420
   65SAPC   O32 5305   0.929   4.017   6.390 -0.2089  0.2421 -0.0705
   65SAPC   C32 5306   1.009   3.861   6.557  0.1551 -0.1644 -0.1170
   65SAPC   H2X 5307   1.117   3.836   6.544  0.4084  1.0849 -0.6171
   65SAPC   H2Y 5308   0.957   3.767   6.584  3.0218 -1.7787  0.2939
   65SAPC   C23 5309   1.352   3.555   6.224 -0.2760  0.4595  0.3541
   65SAPC   H3R 5310   1.383   3.462   6.172  0.8618  1.0747 -0.1124
   65SAPC   H3S 5311   1.241   3.546   6.218 -0.3109  0.8257  0.4025
   65SAPC   C24 5312   1.390   3.575   6.371  0.5686 -0.5144  0.0713
   65SAPC   H4R 5313   1.342   3.494   6.429 -2.0251  0.8611 -0.0368
   65SAPC   H4S 5314   1.337   3.669   6.398 -0.3980 -0.2466 -2.5036
   65SAPC   C25 5315   1.534   3.594   6.412  0.4777  0.2762  0.6570
   65SAPC   H5R 5316   1.591   3.681   6.377  1.3555 -0.0002  1.3516
   65SAPC   C26 5317   1.607   3.517   6.494 -0.4437  0.3030 -0.4099
   65SAPC   H6R 5318   1.710   3.555   6.505 -1.7771  4.2635 -0.0205
   65SAPC   C27 5319   1.579   3.388   6.569  0.4525  0.0293 -0.3625
   65SAPC   H7R 5320   1.479   3.353   6.535 -1.4029  2.1668  2.4225
   65SAPC   H7S 5321   1.564   3.418   6.675 -0.3786 -1.7682  0.0813
   65SAPC   C28 5322   1.692   3.287   6.538 -0.3208  0.3990  0.4690
   65SAPC   H8R 5323   1.684   3.235   6.442 -1.6602  1.7016 -0.1721
   65SAPC   C29 5324   1.785   3.241   6.628 -0.3722  0.2585  0.1538
   65SAPC   H9R 5325   1.876   3.195   6.586 -0.6086 -0.5463  0.5097
   65SAPC  C210 5326   1.812   3.273   6.773 -0.8773 -0.3783  0.4133
   65SAPC  H10R 5327   1.752   3.362   6.800  1.5567  0.8083  2.3441
   65SAPC  H10S 5328   1.920   3.301   6.781 -0.3675 -1.6120 -1.4505
   65SAPC  C211 5329   1.773   3.159   6.857 -0.1973  0.2308 -0.1054
   65SAPC  H11R 5330   1.765   3.063   6.802 -0.0418  0.7829 -1.1072
   65SAPC  C212 5331   1.738   3.167   6.984 -0.3706  0.6988 -0.6841
   65SAPC  H12R 5332   1.693   3.084   7.040  0.5036  0.9702  0.4615
   65SAPC  C213 5333   1.718   3.294   7.065 -0.2598  0.6796  0.3820
   65SAPC  H13R 5334   1.741   3.392   7.019 -3.1609  0.8624 -0.9275
   65SAPC  H13S 5335   1.792   3.278   7.146  0.1652  0.4347 -0.0552
   65SAPC  C214 5336   1.579   3.309   7.118  0.3813  0.6426 -0.1197
   65SAPC  H14R 5337   1.504   3.330   7.041  0.4736  0.8796 -0.1452
   65SAPC  C215 5338   1.544   3.294   7.248  0.5006  0.4756  0.2011
   65SAPC  H15R 5339   1.437   3.310   7.268  0.5424  1.3220 -0.2136
   65SAPC  C216 5340   1.632   3.267   7.362 -0.4580  0.3418  1.0928
   65SAPC  H16R 5341   1.729   3.316   7.339  0.2645 -0.9661  1.2436
   65SAPC  H16S 5342   1.660   3.161   7.382  4.0938  1.1750  0.2399
   65SAPC  C217 5343   1.576   3.324   7.495  0.1374  0.0024  0.2543
   65SAPC  H17R 5344   1.471   3.295   7.518 -0.7008  1.5939 -1.2664
   65SAPC  H17S 5345   1.579   3.434   7.479  0.5399 -0.2587 -1.8717
   65SAPC  C218 5346   1.671   3.310   7.615  0.5140 -0.0255  0.1537
   65SAPC  H18R 5347   1.776   3.321   7.583  0.2652  2.4339 -0.0583
   65SAPC  H18S 5348   1.647   3.216   7.669  2.1038  0.9729  2.7814
   65SAPC  C219 5349   1.647   3.427   7.718 -0.0745 -0.0201 -0.9225
   65SAPC  H19R 5350   1.537   3.429   7.737  0.0645 -1.1999  0.1397
   65SAPC  H19S 5351   1.680   3.522   7.672 -1.5664  1.2382  0.4784
   65SAPC  C220 5352   1.719   3.423   7.848 -0.2248  0.0112  0.0427
   65SAPC  H20R 5353   1.710   3.517   7.907  0.2908 -0.5179  0.9820
   65SAPC  H20S 5354   1.821   3.385   7.825 -0.1055 -0.1736  0.8469
   65SAPC  H20T 5355   1.679   3.333   7.899 -0.3490  0.0584  0.0285
   65SAPC   C33 5356   0.994   3.969   6.664 -0.0024  0.1429 -0.0510
   65SAPC   H3X 5357   0.889   3.974   6.702  0.5944 -0.5641  1.8211
   65SAPC   H3Y 5358   1.034   4.067   6.632 -0.0801  0.0734 -0.3688
   65SAPC   C34 5359   1.059   3.922   6.798  0.5559  0.0693 -0.2593
   65SAPC   H4X 5360   1.168   3.910   6.780  0.2481 -1.4739 -1.2873
   65SAPC   H4Y 5361   1.018   3.819   6.801  0.2684 -0.0742 -4.0471
   65SAPC   C35 5362   1.025   4.004   6.923 -0.2895 -0.2451  0.0668
   65SAPC   H5X 5363   0.916   4.006   6.946  0.1338  1.1411  2.3490
   65SAPC   H5Y 5364   1.060   4.105   6.892  0.1584 -0.8252 -1.3725
   65SAPC   C36 5365   1.091   3.948   7.057 -0.2332  0.8975 -0.0779
   65SAPC   H6X 5366   1.199   3.920   7.053 -0.3569  0.2536  0.8455
   65SAPC   H6Y 5367   1.037   3.855   7.081 -1.5699  1.4546 -0.8087
   65SAPC   C37 5368   1.075   4.047   7.169 -0.6203 -0.3922  0.0928
   65SAPC   H7X 5369   0.970   4.062   7.203  0.2882  2.9068  1.9537
   65SAPC   H7Y 5370   1.105   4.150   7.139 -2.2504 -0.0811 -0.5659
   65SAPC   C38 5371   1.149   4.018   7.302  0.4265  0.1113  0.4876
   65SAPC   H8X 5372   1.256   4.027   7.272 -0.7102 -0.2701 -4.6748
   65SAPC   H8Y 5373   1.133   3.913   7.334 -0.6981  0.0646 -0.1876
   65SAPC   C39 5374   1.104   4.128   7.404 -0.1065 -0.8034  0.5212
   65SAPC   H9X 5375   0.993   4.127   7.398 -0.4209  0.5153  3.9992
   65SAPC   H9Y 5376   1.155   4.222   7.375  1.3054 -1.3077  1.2787
   65SAPC  C310 5377   1.147   4.105   7.547 -0.0268 -0.8226 -0.1564
   65SAPC  H10X 5378   1.250   4.142   7.568 -0.5635  0.2672  0.6303
   65SAPC  H10Y 5379   1.158   3.999   7.579  0.7882  0.2915  3.9414
   65SAPC  C311 5380   1.044   4.176   7.635  0.2076  1.1612 -0.1972
   65SAPC  H11X 5381   0.949   4.159   7.580  2.1427 -5.5759 -2.4562
   65SAPC  H11Y 5382   1.070   4.283   7.645  1.7852  0.6930  1.0844
   65SAPC  C312 5383   1.041   4.124   7.784 -0.7203  0.0180  0.5487
   65SAPC  H12X 5384   1.136   4.149   7.835 -0.0615 -1.1450 -0.0896
   65SAPC  H12Y 5385   1.013   4.017   7.782  0.5885 -0.3240 -1.3935
   65SAPC  C313 5386   0.935   4.207   7.857 -0.4803  0.0565  0.3892
   65SAPC  H13X 5387   0.830   4.173   7.842  0.0022 -1.4294  0.2003
   65SAPC  H13Y 5388   0.942   4.312   7.824  1.7262  0.3295  1.5075
   65SAPC  C314 5389   0.959   4.187   8.011  0.4546  0.5172 -0.4161
   65SAPC  H14X 5390   1.060   4.225   8.038  0.2384  0.5449  0.3768
   65SAPC  H14Y 5391   0.959   4.077   8.028  2.2625  0.5272 -0.0925
   65SAPC  C315 5392   0.851   4.259   8.095  0.1569  0.3926 -0.2280
   65SAPC  H15X 5393   0.756   4.252   8.039 -0.4276 -1.7544  0.9167
   65SAPC  H15Y 5394   0.877   4.368   8.095 -0.5341  0.6119 -2.4502
   65SAPC  C316 5395   0.810   4.206   8.237 -0.2011  0.0173 -0.2689
   65SAPC  H16X 5396   0.907   4.205   8.292  0.0527 -1.7253 -0.6996
   65SAPC  H16Y 5397   0.753   4.111   8.231  0.3857 -0.4425  1.0101
   65SAPC  C317 5398   0.718   4.303   8.313 -0.3627  0.0358 -0.4882
   65SAPC  H17X 5399   0.619   4.296   8.263 -0.9333 -2.5657  0.7847
   65SAPC  H17Y 5400   0.769   4.401   8.303  1.4520 -0.8055 -0.0411
   65SAPC  C318 5401   0.698   4.268   8.466  0.7403  0.5246  0.1283
   65SAPC  H18X 5402   0.643   4.172   8.471 -0.2910  0.9090 -2.4154
   65SAPC  H18Y 5403   0.632   4.344   8.511 -0.1766 -1.6510  2.7292
   65SAPC  H18Z 5404   0.799   4.275   8.513  0.6255 -1.0410  0.6749
   66SAPC     N 5405   5.661   3.585   5.831 -0.2925 -1.1002  0.3010
   66SAPC   C12 5406   5.587   3.525   5.948 -0.0033  0.0072 -0.1548
   66SAPC  H12A 5407   5.484   3.501   5.923 -0.5375  2.1665 -0.3097
   66SAPC  H12B 5408   5.572   3.600   6.025  2.2078 -0.5493  0.9013
   66SAPC   C13 5409   5.578   3.700   5.781 -0.2401  0.6299  0.4515
   66SAPC  H13A 5410   5.485   3.659   5.744 -0.7016 -0.6720  2.8781
   66SAPC  H13B 5411   5.551   3.773   5.855 -2.8063 -0.3331  0.5498
   66SAPC  H13C 5412   5.635   3.743   5.700 -0.4016 -3.2461 -1.9967
   66SAPC   C14 5413   5.794   3.651   5.871  0.1736  0.3142 -1.1243
   66SAPC  H14A 5414   5.850   3.699   5.792  0.8250 -0.2249 -1.0030
   66SAPC  H14B 5415   5.769   3.734   5.935 -1.3698 -0.9196 -0.0569
   66SAPC  H14C 5416   5.863   3.581   5.918  0.3395  0.2817 -1.4134
   66SAPC   C15 5417   5.691   3.498   5.716 -0.3942 -0.3393 -0.1390
   66SAPC  H15A 5418   5.603   3.478   5.657 -1.0343  0.4183  0.5448
   66SAPC  H15B 5419   5.760   3.548   5.649  1.2489  1.6910  2.8601
   66SAPC  H15C 5420   5.743   3.408   5.746 -0.2075 -0.2083 -0.0700
   66SAPC   C11 5421   5.656   3.399   6.009  0.3745  0.0270 -0.0656
   66SAPC  H11A 5422   5.616   3.382   6.111  1.3871  1.7405  0.6719
   66SAPC  H11B 5423   5.765   3.419   6.011  0.3690  0.1058  2.3854
   66SAPC     P 5424   5.494   3.217   5.914 -0.2388 -0.3463  0.0715
   66SAPC   O13 5425   5.393   3.309   5.859  0.3333 -0.2391 -0.4921
   66SAPC   O14 5426   5.518   3.094   5.837 -0.6600  0.7418  0.2473
   66SAPC   O12 5427   5.630   3.291   5.929 -0.0949 -0.7209  0.5431
   66SAPC   O11 5428   5.449   3.180   6.056 -0.2743  0.0071 -0.0790
   66SAPC    C1 5429   5.489   3.062   6.122 -0.3980 -0.0762 -0.0434
   66SAPC    HA 5430   5.439   2.975   6.075  2.0274 -0.5030 -2.0833
   66SAPC    HB 5431   5.599   3.046   6.114 -0.0806  1.7571  0.1906
   66SAPC    C2 5432   5.466   3.074   6.276  0.3550 -1.1584  0.3955
   66SAPC    HS 5433   5.356   3.086   6.285  0.5821  0.7885  1.0540
   66SAPC   O21 5434   5.530   3.193   6.318 -0.1033 -0.6625  0.0905
   66SAPC   C21 5435   5.460   3.272   6.397 -0.2758  0.2218 -0.5488
   66SAPC   O22 5436   5.357   3.236   6.455  0.2134 -0.0968 -0.2278
   66SAPC   C22 5437   5.529   3.408   6.408 -0.0936  0.4320 -0.4861
   66SAPC   H2R 5438   5.638   3.390   6.405  0.5697  3.6256  0.8519
   66SAPC   H2S 5439   5.503   3.469   6.319  0.3769 -0.1291 -1.0158
   66SAPC    C3 5440   5.509   2.948   6.353 -0.2411 -0.1889 -0.7477
   66SAPC    HX 5441   5.620   2.955   6.359 -0.0374 -2.3093 -1.4968
   66SAPC    HY 5442   5.479   2.866   6.285  0.5482 -0.1419 -1.1666
   66SAPC   O31 5443   5.439   2.928   6.484 -0.1692 -0.2462  0.2434
   66SAPC   C31 5444   5.505   2.965   6.586 -1.0207 -0.0053  0.9135
   66SAPC   O32 5445   5.618   3.013   6.588  0.2151  0.3533  0.7394
   66SAPC   C32 5446   5.417   2.944   6.715 -0.8181 -0.7843  0.0835
   66SAPC   H2X 5447   5.417   2.835   6.734 -2.1738 -0.4655  2.2066
   66SAPC   H2Y 5448   5.317   2.988   6.699 -0.6406 -0.6063 -0.5798
   66SAPC   C23 5449   5.486   3.481   6.540 -0.3192 -0.5957 -0.0042
   66SAPC   H3R 5450   5.376   3.473   6.545 -0.4683  1.4867  1.1404
   66SAPC   H3S 5451   5.502   3.591   6.526  1.4985 -0.5316  2.0302
   66SAPC   C24 5452   5.562   3.433   6.671  0.2355  0.0919 -0.4340
   66SAPC   H4R 5453   5.566   3.323   6.687  0.3854  0.0710 -0.6042
   66SAPC   H4S 5454   5.506   3.472   6.758  2.8106  0.9985  0.9293
   66SAPC   C25 5455   5.703   3.480   6.680  0.4169  0.1390  0.3230
   66SAPC   H5R 5456   5.759   3.475   6.585  1.6209 -1.3562  1.0579
   66SAPC   C26 5457   5.769   3.535   6.787 -0.3480 -0.0150  1.0920
   66SAPC   H6R 5458   5.875   3.562   6.784 -0.0197 -1.2230  1.4480
   66SAPC   C27 5459   5.703   3.551   6.921 -0.0680  0.2996 -0.5478
   66SAPC   H7R 5460   5.677   3.455   6.970  1.8431  0.9427  1.9319
   66SAPC   H7S 5461   5.602   3.598   6.923  0.3167  1.1087  0.2450
   66SAPC   C28 5462   5.791   3.630   7.011  0.5598 -0.6955  0.2254
   66SAPC   H8R 5463   5.876   3.685   6.967 -1.8266  2.2505 -1.0756
   66SAPC   C29 5464   5.783   3.644   7.144 -0.4968  0.4631 -0.1667
   66SAPC   H9R 5465   5.855   3.707   7.198 -1.5883  1.1619  0.5212
   66SAPC  C210 5466   5.670   3.593   7.231  0.3764 -0.8489  0.0721
   66SAPC  H10R 5467   5.708   3.517   7.303  1.0086  1.6784  2.5627
   66SAPC  H10S 5468   5.588   3.547   7.171 -0.7180  1.3887 -0.2544
   66SAPC  C211 5469   5.602   3.697   7.316  0.1012  0.2702  0.0733
   66SAPC  H11R 5470   5.531   3.757   7.257 -0.0701  1.6782  1.6365
   66SAPC  C212 5471   5.621   3.735   7.446  0.0155 -0.0495  0.2942
   66SAPC  H12R 5472   5.570   3.826   7.482 -0.3246  0.1920 -0.7526
   66SAPC  C213 5473   5.721   3.671   7.543  0.0713  0.2857 -0.1711
   66SAPC  H13R 5474   5.789   3.608   7.482  1.2391  0.9303  0.4387
   66SAPC  H13S 5475   5.661   3.598   7.603 -0.3269 -0.1061 -1.0325
   66SAPC  C214 5476   5.808   3.761   7.628  0.1831 -0.0448 -0.6564
   66SAPC  H14R 5477   5.872   3.827   7.568  1.8269  0.1995  1.2374
   66SAPC  C215 5478   5.804   3.767   7.769  0.0644 -1.0291  0.4252
   66SAPC  H15R 5479   5.858   3.850   7.817 -0.5030 -0.8792  0.8112
   66SAPC  C216 5480   5.701   3.708   7.861 -0.9298  0.1165  0.1296
   66SAPC  H16R 5481   5.712   3.597   7.865 -3.4416 -0.2127 -0.3604
   66SAPC  H16S 5482   5.601   3.722   7.814 -2.3083 -1.5471  2.2849
   66SAPC  C217 5483   5.681   3.775   7.999 -0.1767  0.1053 -0.2295
   66SAPC  H17R 5484   5.711   3.882   8.003  0.0966  0.3849 -4.4759
   66SAPC  H17S 5485   5.760   3.719   8.053 -1.6041 -0.9332  0.8517
   66SAPC  C218 5486   5.549   3.737   8.071  0.2199 -0.0494  0.6200
   66SAPC  H18R 5487   5.464   3.782   8.017  2.1035 -0.2497 -2.8148
   66SAPC  H18S 5488   5.565   3.778   8.173 -1.3855  0.8081  0.5559
   66SAPC  C219 5489   5.546   3.582   8.083  0.0348  0.5918 -0.2087
   66SAPC  H19R 5490   5.648   3.545   8.108 -0.0990 -0.0608 -0.6045
   66SAPC  H19S 5491   5.528   3.540   7.981 -0.8711  0.7524 -0.1239
   66SAPC  C220 5492   5.436   3.536   8.182  0.1571 -0.3630  0.1692
   66SAPC  H20R 5493   5.403   3.430   8.174  0.1618 -0.2976 -0.8888
   66SAPC  H20S 5494   5.346   3.600   8.164  1.1271  0.5763 -1.6028
   66SAPC  H20T 5495   5.479   3.569   8.279  1.6223 -0.2781 -0.4833
   66SAPC   C33 5496   5.480   3.013   6.835 -0.3171 -0.3476  0.0203
   66SAPC   H3X 5497   5.493   3.121   6.813  1.6811 -0.5498  0.0865
   66SAPC   H3Y 5498   5.581   2.970   6.849 -0.9714 -1.7218  0.7234
   66SAPC   C34 5499   5.402   2.992   6.967  0.1795  0.6137 -0.7391
   66SAPC   H4X 5500   5.384   2.884   6.985 -1.8862  1.0608  0.1284
   66SAPC   H4Y 5501   5.295   3.022   6.964 -0.2298 -0.5999  0.4557
   66SAPC   C35 5502   5.464   3.064   7.082 -0.0057  0.7984 -0.2198
   66SAPC   H5X 5503   5.452   3.172   7.064 -1.5179  0.4364 -1.5754
   66SAPC   H5Y 5504   5.571   3.031   7.074 -0.1323  0.6428 -1.4535
   66SAPC   C36 5505   5.411   3.040   7.225 -0.5364  0.0111  0.1530
   66SAPC   H6X 5506   5.423   2.931   7.246 -0.0025  0.3756  1.8185
   66SAPC   H6Y 5507   5.304   3.071   7.226 -0.6566 -0.3775 -0.0644
   66SAPC   C37 5508   5.497   3.112   7.331 -0.1466  0.2400  0.1991
   66SAPC   H7X 5509   5.606   3.110   7.308  0.0756  0.5351  1.1930
   66SAPC   H7Y 5510   5.483   3.066   7.431  1.1040  0.2772  0.4198
   66SAPC   C38 5511   5.473   3.260   7.360  0.1116  0.4993 -0.6221
   66SAPC   H8X 5512   5.370   3.280   7.397  0.0931 -2.0105  0.9257
   66SAPC   H8Y 5513   5.480   3.316   7.264 -2.4539  0.5490 -0.8427
   66SAPC   C39 5514   5.575   3.316   7.456  0.2126 -0.0117 -0.1076
   66SAPC   H9X 5515   5.569   3.427   7.459 -2.0676  0.0203 -2.5945
   66SAPC   H9Y 5516   5.673   3.291   7.409 -1.1945 -0.7832 -2.7766
   66SAPC  C310 5517   5.554   3.266   7.603 -0.8239  0.4001  0.6002
   66SAPC  H10X 5518   5.633   3.312   7.667 -0.8452 -0.2679  1.1223
   66SAPC  H10Y 5519   5.554   3.155   7.609 -2.6814  0.2389 -1.3706
   66SAPC  C311 5520   5.421   3.301   7.665  0.4251  0.1950  0.5521
   66SAPC  H11X 5521   5.336   3.268   7.603 -1.4928  3.7519  0.9983
   66SAPC  H11Y 5522   5.400   3.410   7.666 -1.1030 -0.0792  1.5122
   66SAPC  C312 5523   5.402   3.251   7.812 -0.5491  0.1630  0.1075
   66SAPC  H12X 5524   5.493   3.274   7.871 -0.4643  2.2972 -0.7899
   66SAPC  H12Y 5525   5.405   3.140   7.810  2.1884  0.0568  3.0340
   66SAPC  C313 5526   5.278   3.299   7.893  0.5602  0.1411 -0.6730
   66SAPC  H13X 5527   5.198   3.311   7.816  0.4361  1.0535 -0.4117
   66SAPC  H13Y 5528   5.310   3.394   7.941 -1.0537  0.5438 -0.3470
   66SAPC  C314 5529   5.226   3.183   7.983  1.1170  0.1348  0.6770
   66SAPC  H14X 5530   5.321   3.157   8.035  1.2895 -1.8526 -0.5482
   66SAPC  H14Y 5531   5.202   3.094   7.922  0.0178 -1.7215  3.5928
   66SAPC  C315 5532   5.115   3.218   8.084  0.3114  0.9264 -0.3055
   66SAPC  H15X 5533   5.023   3.244   8.026 -0.4143  3.3483  1.7549
   66SAPC  H15Y 5534   5.147   3.300   8.151 -1.2868  1.5546 -0.2465
   66SAPC  C316 5535   5.081   3.094   8.176 -0.0200  0.5691  0.5827
   66SAPC  H16X 5536   5.173   3.034   8.194  1.5546  2.5805 -0.2732
   66SAPC  H16Y 5537   5.021   3.036   8.103 -1.4215  1.0011  1.3573
   66SAPC  C317 5538   4.986   3.113   8.288 -0.5833  0.0832  0.1728
   66SAPC  H17X 5539   4.888   3.156   8.257 -1.1964 -0.6632  1.0357
   66SAPC  H17Y 5540   5.038   3.177   8.363 -0.2304 -0.3561  0.3070
   66SAPC  C318 5541   4.956   2.986   8.358  0.1102  0.6204  0.1693
   66SAPC  H18X 5542   4.942   2.898   8.291 -0.7615 -0.3061  1.5194
   66SAPC  H18Y 5543   4.868   2.995   8.425  1.8416  1.3578  2.4786
   66SAPC  H18Z 5544   5.038   2.951   8.425  1.2350 -2.0510 -2.3751
   67SAPC     N 5545   1.902   4.979   6.198 -0.4581 -0.1448 -0.3277
   67SAPC   C12 5546   1.965   4.991   6.335  1.0318  0.0082 -0.5537
   67SAPC  H12A 5547   1.897   4.952   6.410  1.4920  0.1482 -0.0624
   67SAPC  H12B 5548   1.973   5.093   6.368 -1.9106 -0.0613  0.7005
   67SAPC   C13 5549   1.861   4.836   6.173  0.2030  0.1998 -1.0034
   67SAPC  H13A 5550   1.929   4.773   6.227 -1.7282 -0.1914  1.1239
   67SAPC  H13B 5551   1.769   4.804   6.221  1.7468  0.8831  2.6636
   67SAPC  H13C 5552   1.857   4.813   6.067  0.4145 -0.0287 -0.9609
   67SAPC   C14 5553   1.781   5.073   6.177 -0.0205 -0.0754 -0.1680
   67SAPC  H14A 5554   1.738   5.069   6.078 -2.0010  1.4462  0.5587
   67SAPC  H14B 5555   1.697   5.038   6.236  0.9171 -3.0698 -0.4561
   67SAPC  H14C 5556   1.791   5.177   6.207 -1.3127  0.0396 -0.0710
   67SAPC   C15 5557   1.993   5.013   6.082  0.4080  0.7521  0.0093
   67SAPC  H15A 5558   2.087   4.960   6.081 -0.3010 -0.5461 -0.6080
   67SAPC  H15B 5559   1.953   5.001   5.982 -0.4494  0.1272  0.4177
   67SAPC  H15C 5560   2.031   5.112   6.102 -0.7627  1.1231  0.4773
   67SAPC   C11 5561   2.106   4.919   6.370  0.4271 -0.3887  0.5114
   67SAPC  H11A 5562   2.121   4.938   6.479 -1.7982 -1.5165  1.0837
   67SAPC  H11B 5563   2.182   4.975   6.313  1.3870 -1.8381  0.3163
   67SAPC     P 5564   2.095   4.668   6.438  0.5999  0.0610  0.3424
   67SAPC   O13 5565   2.053   4.540   6.371 -0.0878  0.0962  0.2186
   67SAPC   O14 5566   2.211   4.664   6.529 -0.0470  0.0300  0.8885
   67SAPC   O12 5567   2.115   4.786   6.328 -0.0523  0.0564  0.1295
   67SAPC   O11 5568   1.974   4.721   6.536 -0.4865 -0.4677 -0.3209
   67SAPC    C1 5569   1.856   4.653   6.566  0.5738 -0.0894 -0.3984
   67SAPC    HA 5570   1.779   4.732   6.580  0.6586  0.3007 -1.9948
   67SAPC    HB 5571   1.833   4.581   6.485 -0.6838 -0.2474  0.0774
   67SAPC    C2 5572   1.866   4.555   6.685 -0.4061  0.2613  0.2878
   67SAPC    HS 5573   1.763   4.516   6.699 -1.2139  1.0822 -2.6245
   67SAPC   O21 5574   1.914   4.615   6.801  0.0089 -0.3725  0.1891
   67SAPC   C21 5575   1.827   4.681   6.874 -0.8051  0.0164  0.1375
   67SAPC   O22 5576   1.709   4.698   6.853  0.4589  0.2152 -0.9688
   67SAPC   C22 5577   1.900   4.711   7.007  0.7382 -0.9885 -0.6481
   67SAPC   H2R 5578   1.877   4.631   7.080  0.3489 -0.4175 -0.1278
   67SAPC   H2S 5579   2.010   4.708   6.993  0.8876 -3.3650  0.5612
   67SAPC    C3 5580   1.952   4.432   6.655 -0.1815  0.4022 -0.0185
   67SAPC    HX 5581   2.055   4.466   6.630 -0.8233  4.0786  1.7112
   67SAPC    HY 5582   1.910   4.385   6.564  0.9922 -0.3926 -0.1848
   67SAPC   O31 5583   1.948   4.334   6.758 -0.2462  0.8012 -0.1207
   67SAPC   C31 5584   2.038   4.350   6.853  0.6825  0.2041  0.3144
   67SAPC   O32 5585   2.122   4.435   6.863 -0.3621 -0.1532  0.4210
   67SAPC   C32 5586   2.039   4.231   6.949  0.0179 -0.0603  0.0009
   67SAPC   H2X 5587   2.090   4.150   6.894  0.5629 -1.7518  2.8197
   67SAPC   H2Y 5588   1.935   4.193   6.952 -0.0944  0.0537 -1.6396
   67SAPC   C23 5589   1.866   4.850   7.081 -0.2107 -0.9603 -0.4566
   67SAPC   H3R 5590   1.919   4.853   7.179 -1.0125 -1.3443 -0.0045
   67SAPC   H3S 5591   1.759   4.859   7.108  0.0966  1.2701  0.1976
   67SAPC   C24 5592   1.914   4.980   7.014 -0.4645  0.2228  0.1329
   67SAPC   H4R 5593   2.018   4.965   6.978 -0.4103 -0.3713  0.5282
   67SAPC   H4S 5594   1.923   5.051   7.098 -2.3975  0.7878 -0.0717
   67SAPC   C25 5595   1.821   5.029   6.906  0.1783  0.2616  0.5165
   67SAPC   H5R 5596   1.844   4.995   6.804 -0.1237  0.3959  0.4035
   67SAPC   C26 5597   1.717   5.109   6.929  0.2182  0.0019  0.9146
   67SAPC   H6R 5598   1.663   5.143   6.840  1.6454  1.7894  0.6788
   67SAPC   C27 5599   1.671   5.173   7.059  0.5507 -0.2736  0.0640
   67SAPC   H7R 5600   1.706   5.279   7.064 -0.7008  0.1724 -0.2318
   67SAPC   H7S 5601   1.702   5.121   7.152  1.6801  0.7231  0.2721
   67SAPC   C28 5602   1.519   5.165   7.055  1.1579 -0.5643 -0.4104
   67SAPC   H8R 5603   1.476   5.087   6.991  1.1117  0.0853 -1.1965
   67SAPC   C29 5604   1.430   5.245   7.124  0.0704 -0.2458 -0.4531
   67SAPC   H9R 5605   1.324   5.214   7.126 -0.0353  0.1232 -0.1859
   67SAPC  C210 5606   1.471   5.356   7.212 -0.1000  0.4124  0.0380
   67SAPC  H10R 5607   1.381   5.412   7.245 -1.2905 -2.5286  2.2357
   67SAPC  H10S 5608   1.534   5.417   7.144  2.1903 -0.0626  1.6107
   67SAPC  C211 5609   1.551   5.331   7.336  0.8717  0.0601 -0.3822
   67SAPC  H11R 5610   1.613   5.241   7.333  0.4322 -0.2311 -0.8873
   67SAPC  C212 5611   1.566   5.414   7.444 -0.0381  0.4105 -0.1761
   67SAPC  H12R 5612   1.634   5.387   7.526 -1.0887 -0.6570  0.3795
   67SAPC  C213 5613   1.490   5.541   7.455  0.1289 -0.0716  0.4083
   67SAPC  H13R 5614   1.397   5.523   7.513 -0.6007  3.4686  0.5734
   67SAPC  H13S 5615   1.464   5.584   7.356  2.1700 -1.7139 -0.9379
   67SAPC  C214 5616   1.573   5.644   7.527  0.2485 -0.0384 -0.7194
   67SAPC  H14R 5617   1.606   5.728   7.464 -0.0385  1.8236  1.5041
   67SAPC  C215 5618   1.574   5.657   7.665 -0.4290  0.3660  0.0906
   67SAPC  H15R 5619   1.634   5.730   7.721  0.2436 -0.5722  0.6418
   67SAPC  C216 5620   1.492   5.569   7.761  0.1396  0.3746 -0.1120
   67SAPC  H16R 5621   1.482   5.463   7.727  0.4446 -0.5305  2.3943
   67SAPC  H16S 5622   1.392   5.614   7.778 -0.3024 -1.5845  3.4122
   67SAPC  C217 5623   1.557   5.559   7.906  0.2969 -1.0734  0.2377
   67SAPC  H17R 5624   1.570   5.662   7.947  2.5682 -0.6019 -1.4488
   67SAPC  H17S 5625   1.660   5.516   7.902  1.4553  1.3016  1.7710
   67SAPC  C218 5626   1.474   5.471   8.000 -0.4043 -0.3347 -0.5509
   67SAPC  H18R 5627   1.456   5.366   7.971 -0.6408 -0.4071 -0.1501
   67SAPC  H18S 5628   1.376   5.523   8.001 -0.4900 -0.1906  4.1976
   67SAPC  C219 5629   1.520   5.471   8.148  0.2117  0.0045 -0.9140
   67SAPC  H19R 5630   1.631   5.468   8.154  0.4659  2.2496 -2.7219
   67SAPC  H19S 5631   1.481   5.381   8.199 -3.3528  0.3456 -2.7594
   67SAPC  C220 5632   1.459   5.585   8.236  0.1193 -0.2345  0.4251
   67SAPC  H20R 5633   1.511   5.681   8.216  2.3339 -1.1749  1.2919
   67SAPC  H20S 5634   1.489   5.559   8.340 -3.5627  1.5788  2.1363
   67SAPC  H20T 5635   1.350   5.603   8.224  0.0656 -0.3747  0.6901
   67SAPC   C33 5636   2.077   4.256   7.096 -0.4285 -0.4862 -0.1146
   67SAPC   H3X 5637   2.183   4.287   7.096 -0.2188 -1.0836 -2.0784
   67SAPC   H3Y 5638   2.079   4.157   7.146  1.2617 -1.2343 -1.5704
   67SAPC   C34 5639   1.992   4.362   7.169 -0.4089  0.2367  0.3557
   67SAPC   H4X 5640   1.889   4.321   7.170 -0.5536  0.5956  0.2158
   67SAPC   H4Y 5641   1.993   4.459   7.116  0.6907  1.5881  2.6780
   67SAPC   C35 5642   2.031   4.384   7.316  0.8519 -0.3608  0.1776
   67SAPC   H5X 5643   2.138   4.414   7.327  0.9145 -0.2615 -0.6837
   67SAPC   H5Y 5644   2.021   4.286   7.368  1.1331 -0.4815  0.0034
   67SAPC   C36 5645   1.919   4.477   7.386 -0.4268  0.1189  0.3764
   67SAPC   H6X 5646   1.831   4.411   7.400 -0.8420  0.8065  1.1084
   67SAPC   H6Y 5647   1.897   4.568   7.326 -0.1124  0.4319  0.7322
   67SAPC   C37 5648   1.960   4.541   7.524  0.6121 -1.0334 -0.3943
   67SAPC   H7X 5649   1.883   4.610   7.565  0.8064 -0.7060 -0.5754
   67SAPC   H7Y 5650   2.059   4.591   7.517  0.0539  0.2396  0.3815
   67SAPC   C38 5651   1.976   4.429   7.625 -0.1485 -0.5860 -0.0002
   67SAPC   H8X 5652   2.081   4.399   7.607  0.0407 -0.5271  0.9721
   67SAPC   H8Y 5653   1.907   4.344   7.607 -0.6557  0.0036 -0.9586
   67SAPC   C39 5654   1.961   4.486   7.769  0.2736  0.0601  1.0080
   67SAPC   H9X 5655   1.870   4.439   7.812 -0.1973  0.1548  0.1284
   67SAPC   H9Y 5656   1.942   4.595   7.766 -2.2283 -0.2996  1.5987
   67SAPC  C310 5657   2.086   4.453   7.848 -0.0366 -0.2460  0.0910
   67SAPC  H10X 5658   2.178   4.495   7.802 -0.6246  1.1761  0.1342
   67SAPC  H10Y 5659   2.096   4.344   7.864  0.3792 -0.2030  0.1331
   67SAPC  C311 5660   2.076   4.521   7.983  0.0294 -0.0520  0.1110
   67SAPC  H11X 5661   1.975   4.496   8.022 -1.0284  3.2108 -0.2665
   67SAPC  H11Y 5662   2.086   4.631   7.982 -0.9834  0.0428 -1.0357
   67SAPC  C312 5663   2.177   4.467   8.086 -0.0901 -0.5095  0.4350
   67SAPC  H12X 5664   2.181   4.356   8.084 -0.8140 -0.5293 -0.5024
   67SAPC  H12Y 5665   2.137   4.499   8.185 -1.7842 -1.5240  0.1287
   67SAPC  C313 5666   2.328   4.512   8.065  0.6844  0.4220 -0.0847
   67SAPC  H13X 5667   2.311   4.605   8.007  1.1357 -0.1313 -1.1329
   67SAPC  H13Y 5668   2.377   4.438   7.998  1.3796  1.0248 -0.2568
   67SAPC  C314 5669   2.388   4.545   8.201 -0.6208 -0.1735 -0.3637
   67SAPC  H14X 5670   2.400   4.442   8.240  0.7635 -1.4300 -3.7337
   67SAPC  H14Y 5671   2.325   4.617   8.259 -0.1731  1.1210 -1.4301
   67SAPC  C315 5672   2.525   4.608   8.181 -0.2523 -0.4686  0.4800
   67SAPC  H15X 5673   2.513   4.707   8.131 -1.0077 -1.5033 -1.5086
   67SAPC  H15Y 5674   2.575   4.542   8.107 -1.3596 -2.1364  1.1664
   67SAPC  C316 5675   2.613   4.610   8.302 -0.1205 -0.1717 -0.5529
   67SAPC  H16X 5676   2.701   4.674   8.280 -0.1434  0.0633  0.0123
   67SAPC  H16Y 5677   2.660   4.514   8.333  0.4079  0.9365  2.4421
   67SAPC  C317 5678   2.554   4.678   8.436 -0.6704 -0.3252 -0.2143
   67SAPC  H17X 5679   2.492   4.766   8.408  1.6086  1.4637  0.0161
   67SAPC  H17Y 5680   2.636   4.732   8.487 -1.7537  2.7205 -1.4640
   67SAPC  C318 5681   2.486   4.577   8.525 -0.2583 -0.1790 -0.0438
   67SAPC  H18X 5682   2.412   4.513   8.472 -1.7260 -0.2052  1.9449
   67SAPC  H18Y 5683   2.453   4.631   8.616  0.6747  0.4317 -0.0552
   67SAPC  H18Z 5684   2.562   4.503   8.559 -1.5056 -0.1208  3.1658
   68SAPC     N 5685   6.447   5.153   5.788  0.3245 -0.6855  0.1229
   68SAPC   C12 5686   6.410   5.058   5.899 -0.0598 -0.5514  0.3761
   68SAPC  H12A 5687   6.497   4.998   5.920  1.4332  1.3286 -0.1570
   68SAPC  H12B 5688   6.324   5.004   5.862  0.2221 -0.1678 -0.8742
   68SAPC   C13 5689   6.329   5.216   5.727  0.1025 -0.5617 -0.3992
   68SAPC  H13A 5690   6.262   5.252   5.803  0.5819 -2.3638  0.9440
   68SAPC  H13B 5691   6.342   5.298   5.659  0.8170 -1.5863 -1.5375
   68SAPC  H13C 5692   6.277   5.149   5.660 -2.1713  0.9636 -0.2943
   68SAPC   C14 5693   6.542   5.262   5.836 -0.8139 -0.0725  0.2174
   68SAPC  H14A 5694   6.617   5.225   5.904 -1.9477 -0.1028  1.5121
   68SAPC  H14B 5695   6.590   5.311   5.753 -2.7697  0.2437 -0.7865
   68SAPC  H14C 5696   6.492   5.340   5.892  1.4405  0.2798  1.8698
   68SAPC   C15 5697   6.528   5.084   5.685 -0.1101  0.4926  0.1255
   68SAPC  H15A 5698   6.623   5.069   5.734  0.2554  1.3288 -0.3169
   68SAPC  H15B 5699   6.484   4.990   5.654  0.8156  0.3032 -0.6780
   68SAPC  H15C 5700   6.558   5.147   5.602  1.2147 -2.4462 -1.8046
   68SAPC   C11 5701   6.356   5.127   6.025  0.8177 -0.3059 -0.1778
   68SAPC  H11A 5702   6.420   5.210   6.063  2.7783 -1.4521 -0.7994
   68SAPC  H11B 5703   6.358   5.048   6.103 -1.0904 -1.3749 -1.1540
   68SAPC     P 5704   6.105   5.076   5.998 -0.1604 -0.1299  0.2997
   68SAPC   O13 5705   5.978   5.152   5.968 -0.3509 -0.1737  0.4953
   68SAPC   O14 5706   6.130   4.957   5.918 -0.5256  0.2852 -0.2812
   68SAPC   O12 5707   6.225   5.182   6.000  0.1568  0.1153  0.2542
   68SAPC   O11 5708   6.105   5.037   6.149  0.2769  1.2109  0.5877
   68SAPC    C1 5709   6.067   5.122   6.255 -0.3709 -0.9373 -1.0182
   68SAPC    HA 5710   6.043   5.226   6.223  0.3376 -0.3006  0.4626
   68SAPC    HB 5711   5.971   5.094   6.303  0.4794  0.5611  1.7762
   68SAPC    C2 5712   6.169   5.136   6.373  0.9414 -0.7481  0.5838
   68SAPC    HS 5713   6.256   5.189   6.329 -0.1836  3.2481  2.6913
   68SAPC   O21 5714   6.197   5.006   6.426  0.8615  0.4223  0.5657
   68SAPC   C21 5715   6.321   4.989   6.457 -0.2115  0.3218  0.7483
   68SAPC   O22 5716   6.414   5.073   6.448  0.1540  0.0744  0.2249
   68SAPC   C22 5717   6.328   4.857   6.524 -0.4183  0.1944 -0.7268
   68SAPC   H2R 5718   6.229   4.836   6.571  0.6507  0.4062  1.7980
   68SAPC   H2S 5719   6.346   4.778   6.448 -0.4875  0.8509 -1.4379
   68SAPC    C3 5720   6.116   5.237   6.483  0.2572 -0.4608  0.4845
   68SAPC    HX 5721   6.018   5.204   6.525  0.9541 -1.3842  1.4579
   68SAPC    HY 5722   6.100   5.333   6.430  0.1328 -1.0826 -0.6311
   68SAPC   O31 5723   6.216   5.263   6.584 -0.4008  0.0755 -0.1986
   68SAPC   C31 5724   6.327   5.334   6.558 -0.0613 -0.0803  0.6979
   68SAPC   O32 5725   6.359   5.384   6.453  0.3648  0.1602  0.7676
   68SAPC   C32 5726   6.417   5.316   6.673 -0.6508 -0.4421 -0.5443
   68SAPC   H2X 5727   6.518   5.343   6.634 -1.6082 -0.0662 -2.9343
   68SAPC   H2Y 5728   6.428   5.210   6.702 -0.8185 -0.3780 -0.2466
   68SAPC   C23 5729   6.434   4.852   6.640 -0.0236 -0.7788 -0.2460
   68SAPC   H3R 5730   6.529   4.903   6.614 -0.2823  1.0331  2.0885
   68SAPC   H3S 5731   6.457   4.743   6.650  0.4120 -0.5360  1.8600
   68SAPC   C24 5732   6.377   4.911   6.764  0.0979  0.0242 -0.6915
   68SAPC   H4R 5733   6.301   4.846   6.814  1.3387 -1.6010 -0.8491
   68SAPC   H4S 5734   6.319   5.003   6.739  1.0494  1.3340  1.6112
   68SAPC   C25 5735   6.491   4.941   6.861  0.4930 -0.5781 -1.0039
   68SAPC   H5R 5736   6.546   5.032   6.834 -1.6155  2.0670  2.6909
   68SAPC   C26 5737   6.526   4.868   6.967  0.0500  0.2588 -0.1131
   68SAPC   H6R 5738   6.608   4.899   7.032 -0.1889 -0.7159  0.6782
   68SAPC   C27 5739   6.471   4.730   7.001 -0.0060  0.1861 -0.1655
   68SAPC   H7R 5740   6.554   4.656   6.999 -0.2411 -0.1647  1.5898
   68SAPC   H7S 5741   6.396   4.695   6.926  0.3809 -1.7782  0.3190
   68SAPC   C28 5742   6.407   4.731   7.145 -0.0072  0.2829  0.7412
   68SAPC   H8R 5743   6.297   4.730   7.146 -0.0106 -0.2868  1.3867
   68SAPC   C29 5744   6.472   4.728   7.263  0.5594  0.0628  0.6814
   68SAPC   H9R 5745   6.412   4.709   7.353 -0.8236  1.1890  0.0461
   68SAPC  C210 5746   6.621   4.723   7.280 -0.4076  0.2407 -0.3054
   68SAPC  H10R 5747   6.677   4.805   7.329 -1.0193  0.7067 -0.3869
   68SAPC  H10S 5748   6.675   4.715   7.183 -1.1390 -1.6676 -0.6038
   68SAPC  C211 5749   6.647   4.591   7.350  1.0586  0.6438  0.5174
   68SAPC  H11R 5750   6.674   4.512   7.278  1.5650  2.3806 -1.2842
   68SAPC  C212 5751   6.643   4.572   7.486 -0.0759 -0.1213  0.8309
   68SAPC  H12R 5752   6.676   4.473   7.520  0.5652 -1.0422 -2.1532
   68SAPC  C213 5753   6.615   4.671   7.600 -0.2342 -0.3517 -0.5275
   68SAPC  H13R 5754   6.589   4.776   7.576  1.2425  0.5122  1.3970
   68SAPC  H13S 5755   6.715   4.695   7.641 -0.3402  1.6190 -1.3233
   68SAPC  C214 5756   6.514   4.615   7.698  0.2154  0.5359  0.2254
   68SAPC  H14R 5757   6.419   4.583   7.652  1.4565  2.8221 -4.4978
   68SAPC  C215 5758   6.532   4.613   7.829  0.5069 -0.0849 -0.2253
   68SAPC  H15R 5759   6.455   4.568   7.894  0.2131 -0.1551 -0.6133
   68SAPC  C216 5760   6.658   4.650   7.901 -0.0400  0.2115 -0.2224
   68SAPC  H16R 5761   6.743   4.596   7.854 -1.9632 -1.6158 -1.8446
   68SAPC  H16S 5762   6.650   4.609   8.004  3.0741  1.0006  0.4315
   68SAPC  C217 5763   6.698   4.797   7.908  0.0525 -0.3797 -0.0238
   68SAPC  H17R 5764   6.618   4.870   7.933  1.5565  1.6986 -1.0048
   68SAPC  H17S 5765   6.714   4.833   7.804  0.9855  1.2055  0.6310
   68SAPC  C218 5766   6.814   4.809   7.991 -0.1404  0.6264 -0.0377
   68SAPC  H18R 5767   6.860   4.909   7.975 -1.7407  1.0824 -2.3328
   68SAPC  H18S 5768   6.891   4.737   7.955 -1.1595 -0.2382 -0.5259
   68SAPC  C219 5769   6.791   4.780   8.140  0.3266  0.0959  0.1220
   68SAPC  H19R 5770   6.757   4.676   8.157  1.9437 -0.5330 -0.3244
   68SAPC  H19S 5771   6.698   4.827   8.178 -0.4542 -2.0871  1.0481
   68SAPC  C220 5772   6.911   4.809   8.237  0.2837  0.4260  0.0472
   68SAPC  H20R 5773   6.890   4.810   8.346  0.9769 -1.0302  0.2201
   68SAPC  H20S 5774   6.954   4.908   8.214  1.8605 -0.1579  0.3351
   68SAPC  H20T 5775   6.981   4.725   8.219  1.5941  1.7689 -1.3507
   68SAPC   C33 5776   6.390   5.395   6.805  0.3379  0.2153  0.6948
   68SAPC   H3X 5777   6.287   5.360   6.829 -1.4227  2.1065 -3.2553
   68SAPC   H3Y 5778   6.392   5.504   6.786  0.2151  0.0562 -0.2821
   68SAPC   C34 5779   6.483   5.360   6.918  0.8115 -0.4099 -0.0753
   68SAPC   H4X 5780   6.576   5.418   6.901 -0.0141  0.6554 -1.1045
   68SAPC   H4Y 5781   6.510   5.253   6.902  1.3936 -0.1659 -0.7526
   68SAPC   C35 5782   6.436   5.403   7.057  0.0377  0.8942  0.5444
   68SAPC   H5X 5783   6.333   5.364   7.074  0.5002  0.3079  2.1187
   68SAPC   H5Y 5784   6.451   5.512   7.070  1.7926  0.7494 -0.0460
   68SAPC   C36 5785   6.511   5.351   7.188 -0.2016  0.0738  0.5799
   68SAPC   H6X 5786   6.483   5.423   7.268  1.9596 -0.6295  2.0528
   68SAPC   H6Y 5787   6.620   5.357   7.169 -0.6163  1.2578 -1.8947
   68SAPC   C37 5788   6.473   5.205   7.234 -0.1961 -0.1650  0.5976
   68SAPC   H7X 5789   6.490   5.127   7.157 -0.8189  0.9254 -0.6938
   68SAPC   H7Y 5790   6.366   5.209   7.262 -0.2453 -0.7511  0.5050
   68SAPC   C38 5791   6.554   5.154   7.358 -0.1319  0.5111  0.9607
   68SAPC   H8X 5792   6.660   5.136   7.331 -0.4514  0.5906 -0.4011
   68SAPC   H8Y 5793   6.515   5.056   7.393 -0.1067  0.7126  1.5622
   68SAPC   C39 5794   6.561   5.249   7.482 -0.3071  1.0389  0.6462
   68SAPC   H9X 5795   6.469   5.288   7.531  0.0479  1.3101  1.1036
   68SAPC   H9Y 5796   6.609   5.341   7.442  1.4662 -0.3834 -0.6773
   68SAPC  C310 5797   6.649   5.189   7.586 -0.1288  0.4487 -0.0383
   68SAPC  H10X 5798   6.751   5.168   7.547 -1.3564 -1.7763 -2.3374
   68SAPC  H10Y 5799   6.608   5.090   7.616  1.2527  0.2316  1.3149
   68SAPC  C311 5800   6.657   5.269   7.718 -0.2868 -0.1587 -0.2673
   68SAPC  H11X 5801   6.556   5.287   7.762 -0.0780  1.1046 -0.2636
   68SAPC  H11Y 5802   6.701   5.367   7.688  0.9644  0.1265  2.2359
   68SAPC  C312 5803   6.741   5.202   7.829 -0.0631  0.1910 -0.0146
   68SAPC  H12X 5804   6.846   5.181   7.798  0.0781  2.5950 -1.4945
   68SAPC  H12Y 5805   6.693   5.106   7.856  1.3397  0.0230  2.1125
   68SAPC  C313 5806   6.747   5.289   7.960  0.0174  0.3719 -0.5971
   68SAPC  H13X 5807   6.646   5.313   7.999  0.0112 -0.1097 -0.3120
   68SAPC  H13Y 5808   6.794   5.389   7.951  1.4913 -0.3074 -0.7425
   68SAPC  C314 5809   6.823   5.214   8.070  0.2737  0.1554 -0.3496
   68SAPC  H14X 5810   6.918   5.193   8.017 -0.3318 -2.6005 -0.5048
   68SAPC  H14Y 5811   6.779   5.114   8.095  0.3770  0.7176  2.3156
   68SAPC  C315 5812   6.846   5.304   8.199  0.6311 -0.2673  0.5255
   68SAPC  H15X 5813   6.864   5.231   8.280  1.1716  2.7611  3.3274
   68SAPC  H15Y 5814   6.744   5.343   8.220 -0.3121 -2.8387  0.9821
   68SAPC  C316 5815   6.964   5.406   8.194  0.2497 -0.6204  0.5630
   68SAPC  H16X 5816   6.969   5.462   8.098  0.1325 -2.9086 -0.8540
   68SAPC  H16Y 5817   7.055   5.343   8.188  0.2693 -0.4637 -2.9885
   68SAPC  C317 5818   6.982   5.483   8.325 -0.5685 -0.3052 -0.6823
   68SAPC  H17X 5819   6.991   5.416   8.413  0.8335  1.5866  0.7085
   68SAPC  H17Y 5820   6.887   5.533   8.351 -0.0529  0.5095 -0.3261
   68SAPC  C318 5821   7.105   5.577   8.313  0.7509  0.1455 -0.8945
   68SAPC  H18X 5822   7.188   5.524   8.261  0.3738 -1.1646 -0.2188
   68SAPC  H18Y 5823   7.141   5.604   8.414  0.4370  0.2020 -0.7966
   68SAPC  H18Z 5824   7.075   5.667   8.256  1.2534  1.5832  1.0211
   69SLPC     N 5825   2.876   2.475  10.981  0.0229  0.1018 -0.4598
   69SLPC   C13 5826   2.830   2.572  11.079  0.3760 -0.1673 -0.4250
   69SLPC  H13A 5827   2.817   2.528  11.177 -0.1514 -0.1759 -0.4945
   69SLPC  H13B 5828   2.909   2.643  11.098  2.1006 -1.8990 -0.9080
   69SLPC  H13C 5829   2.741   2.631  11.061  0.2749 -0.0299  0.4451
   69SLPC   C14 5830   3.003   2.409  11.031  0.7123 -0.8974  0.6785
   69SLPC  H14A 5831   2.991   2.340  11.114  1.9076  1.1874  2.6953
   69SLPC  H14B 5832   3.043   2.356  10.946 -2.5778 -1.0788 -0.9609
   69SLPC  H14C 5833   3.064   2.492  11.062 -1.8593  0.5618  2.2494
   69SLPC   C15 5834   2.901   2.547  10.857  0.2832  0.1314  0.0854
   69SLPC  H15A 5835   2.976   2.625  10.858 -0.5228  0.9484 -0.8628
   69SLPC  H15B 5836   2.921   2.486  10.770 -0.1413  1.3371 -0.8869
   69SLPC  H15C 5837   2.815   2.599  10.820 -1.2832 -0.4334  2.7094
   69SLPC   C12 5838   2.762   2.376  10.960 -0.1269 -0.1366 -0.2418
   69SLPC  H12A 5839   2.687   2.438  10.913  0.5420  0.4797 -0.5221
   69SLPC  H12B 5840   2.735   2.331  11.054  0.5594 -1.0974 -0.4912
   69SLPC   C11 5841   2.786   2.255  10.866  0.6567 -0.5956  0.8126
   69SLPC  H11A 5842   2.794   2.309  10.769 -0.8141 -0.6663  0.6277
   69SLPC  H11B 5843   2.697   2.189  10.870  0.1868  0.0592  1.1294
   69SLPC     P 5844   2.986   2.104  10.787  0.2914  0.0953 -0.1587
   69SLPC   O13 5845   3.133   2.108  10.832 -0.5227 -0.5988 -0.0401
   69SLPC   O14 5846   2.920   1.968  10.773 -0.2443 -0.3636  0.3928
   69SLPC   O12 5847   2.900   2.182  10.892 -0.8118 -0.0505  0.0172
   69SLPC   O11 5848   2.970   2.183  10.654 -0.2121  0.2136 -0.0866
   69SLPC    C1 5849   3.003   2.134  10.521  0.9697 -0.0455 -0.2410
   69SLPC    HA 5850   3.044   2.222  10.466 -0.9127  1.8430  1.2068
   69SLPC    HB 5851   3.082   2.056  10.523  1.2799  0.2735  0.4286
   69SLPC    C2 5852   2.883   2.080  10.441  0.1778  1.1173  0.5180
   69SLPC    HS 5853   2.875   1.971  10.462 -1.6867  1.2612  0.7653
   69SLPC   O21 5854   2.909   2.103  10.303  0.0499  0.1681  0.6286
   69SLPC   C21 5855   2.997   2.025  10.248  0.1852 -0.0021 -0.2379
   69SLPC   O22 5856   3.064   1.943  10.303  0.2782 -0.0072 -0.3313
   69SLPC   C22 5857   3.013   2.066  10.102 -0.3404 -0.2838 -0.7953
   69SLPC   H2R 5858   3.097   2.138  10.108 -0.4547 -0.2757  2.6954
   69SLPC   H2S 5859   3.036   1.978  10.037 -0.5624 -0.1745 -1.0228
   69SLPC    C3 5860   2.750   2.151  10.477 -1.0921 -0.1156 -0.1220
   69SLPC    HX 5861   2.766   2.260  10.487 -1.3110 -0.2712  3.4284
   69SLPC    HY 5862   2.742   2.120  10.584  2.2838  0.8684  0.5601
   69SLPC   O31 5863   2.639   2.111  10.399 -0.1510 -0.0214 -0.5288
   69SLPC   C31 5864   2.541   2.043  10.454  0.1289  0.3575  0.0857
   69SLPC   O32 5865   2.526   2.006  10.572  0.6466  0.2626 -0.3496
   69SLPC   C32 5866   2.450   1.974  10.351  0.4780 -0.4427  0.1101
   69SLPC   H2X 5867   2.365   2.043  10.328  3.2894  2.1973 -3.4802
   69SLPC   H2Y 5868   2.412   1.882  10.400 -0.1080  0.1520  0.8073
   69SLPC   C23 5869   2.882   2.130  10.043 -0.5361 -0.1240 -0.2639
   69SLPC   H3R 5870   2.855   2.211  10.115 -3.7866 -3.3898  2.6020
   69SLPC   H3S 5871   2.798   2.057  10.039  0.0427 -0.7511 -2.6224
   69SLPC   C24 5872   2.906   2.195   9.905  0.6786  0.3853  0.5606
   69SLPC   H4R 5873   2.998   2.256   9.913  1.4973 -0.8755  1.0590
   69SLPC   H4S 5874   2.815   2.255   9.884 -1.4614 -2.3653  1.2676
   69SLPC   C25 5875   2.923   2.090   9.790  0.1751 -0.4482 -0.6726
   69SLPC   H5R 5876   2.836   2.022   9.794 -0.6972  0.6714  2.3378
   69SLPC   H5S 5877   3.007   2.018   9.800  0.0861 -0.7584 -1.9589
   69SLPC   C26 5878   2.925   2.163   9.660 -0.2494 -0.1831  0.0898
   69SLPC   H6R 5879   2.999   2.245   9.670 -0.1162  0.3282 -3.5930
   69SLPC   H6S 5880   2.830   2.216   9.637 -0.9510 -1.4977 -0.1068
   69SLPC   C27 5881   2.968   2.076   9.540 -0.5000  0.0124  0.4496
   69SLPC   H7R 5882   2.883   2.006   9.524 -1.4463  0.4498  3.1227
   69SLPC   H7S 5883   3.046   2.001   9.565  0.5872  1.0007  0.1238
   69SLPC   C28 5884   3.000   2.145   9.406 -0.2050 -0.1399 -0.5967
   69SLPC   H8R 5885   3.058   2.089   9.330 -0.0936 -1.1972  0.2470
   69SLPC   H8S 5886   3.061   2.236   9.427  0.1483 -0.7098  0.9262
   69SLPC   C29 5887   2.878   2.197   9.343  0.0023 -0.4787  0.1332
   69SLPC   H9R 5888   2.790   2.214   9.408 -0.6919  1.8884 -1.2737
   69SLPC  C210 5889   2.869   2.238   9.211  0.4313  0.3243  0.5845
   69SLPC  H10R 5890   2.785   2.294   9.169  0.4546  0.8310  1.2091
   69SLPC  C211 5891   2.982   2.228   9.112 -0.1283  0.1886  0.9273
   69SLPC  H11R 5892   2.986   2.122   9.078  2.4725  0.7173 -0.7065
   69SLPC  H11S 5893   3.078   2.239   9.168 -0.4407 -1.6603  1.9106
   69SLPC  C212 5894   2.995   2.331   9.005  0.0567 -0.6746  0.2299
   69SLPC  H12R 5895   3.053   2.422   9.025  0.2689 -0.6555 -0.4207
   69SLPC  C213 5896   2.930   2.321   8.883  0.3074  0.2895 -0.4374
   69SLPC  H13R 5897   2.932   2.392   8.798  0.6688 -0.3672 -0.9918
   69SLPC  C214 5898   2.848   2.202   8.840  0.8437  0.7028 -0.1552
   69SLPC  H14R 5899   2.746   2.229   8.805 -0.1754  0.3091  2.2851
   69SLPC  H14S 5900   2.822   2.148   8.934  1.9994  1.7839  0.8121
   69SLPC  C215 5901   2.888   2.092   8.735 -0.1677 -0.1421 -0.0201
   69SLPC  H15R 5902   2.805   2.019   8.741  0.8514 -1.3699 -0.4327
   69SLPC  H15S 5903   2.986   2.049   8.765 -0.7890 -0.1887  2.1105
   69SLPC  C216 5904   2.918   2.149   8.597  0.0589  0.3834 -0.2587
   69SLPC  H16R 5905   3.002   2.219   8.612 -0.3070  0.9529 -0.7978
   69SLPC  H16S 5906   2.827   2.204   8.564  0.9878  0.7998 -2.2526
   69SLPC  C217 5907   2.972   2.043   8.499 -0.4880  0.0817 -0.7642
   69SLPC  H17R 5908   2.910   2.037   8.407 -0.5339  1.4850 -0.8460
   69SLPC  H17S 5909   2.968   1.944   8.549 -3.2535 -0.6821 -2.2659
   69SLPC  C218 5910   3.118   2.070   8.450 -0.1755  0.1593  0.3810
   69SLPC  H18R 5911   3.191   2.059   8.533  2.1224 -0.0271 -1.5527
   69SLPC  H18S 5912   3.128   2.175   8.415  0.5406  0.6981  2.0965
   69SLPC  H18T 5913   3.159   2.004   8.370 -0.8574 -1.0335  0.9873
   69SLPC   C33 5914   2.510   1.952  10.215 -0.3765  0.2625 -0.1865
   69SLPC   H3X 5915   2.591   1.877  10.229  1.7692  2.6023  0.4842
   69SLPC   H3Y 5916   2.558   2.047  10.186 -1.2854  0.3368 -1.5243
   69SLPC   C34 5917   2.412   1.914  10.105 -0.6798  0.1530  0.4390
   69SLPC   H4X 5918   2.325   1.981  10.117 -0.6681 -0.0420  1.7671
   69SLPC   H4Y 5919   2.391   1.806  10.122  0.5983 -0.0312  0.9668
   69SLPC   C35 5920   2.462   1.942   9.964  0.0512 -0.0403  0.0710
   69SLPC   H5X 5921   2.416   1.881   9.884 -2.4226  0.3831  1.0805
   69SLPC   H5Y 5922   2.569   1.914   9.964  0.9428  2.6084  3.3652
   69SLPC   C36 5923   2.476   2.092   9.920  1.1793 -0.1683  0.4777
   69SLPC   H6X 5924   2.553   2.144   9.981 -0.0732 -0.3882  2.3275
   69SLPC   H6Y 5925   2.382   2.147   9.940  0.5536 -1.4591  1.1680
   69SLPC   C37 5926   2.523   2.096   9.772 -0.5238  0.2892 -0.3094
   69SLPC   H7X 5927   2.612   2.031   9.776  1.4230  2.8638  1.2959
   69SLPC   H7Y 5928   2.557   2.198   9.746 -0.7922  0.1295 -1.3301
   69SLPC   C38 5929   2.422   2.043   9.665  0.6441 -0.2993 -0.0268
   69SLPC   H8X 5930   2.351   2.128   9.654  1.1743  0.1217 -0.2412
   69SLPC   H8Y 5931   2.355   1.961   9.699 -1.3936  0.7900 -1.1984
   69SLPC   C39 5932   2.490   2.009   9.538  0.4124  0.0228  0.1164
   69SLPC   H9X 5933   2.543   1.912   9.539  1.2363  0.2935 -3.3520
   69SLPC   H9Y 5934   2.572   2.084   9.532  0.9247 -0.3700  1.8282
   69SLPC  C310 5935   2.383   2.036   9.423 -0.4446 -0.7446 -0.2184
   69SLPC  H10X 5936   2.345   2.140   9.432 -0.5642 -0.7538 -0.6011
   69SLPC  H10Y 5937   2.290   1.976   9.425 -1.6408  1.0076  2.2100
   69SLPC  C311 5938   2.442   2.026   9.285  0.1477 -0.6514  0.3032
   69SLPC  H11X 5939   2.478   1.921   9.276 -1.8507 -1.5774  2.0906
   69SLPC  H11Y 5940   2.530   2.092   9.282  1.7035 -2.5716  1.2052
   69SLPC  C312 5941   2.348   2.054   9.168  0.6986 -0.0980 -0.1639
   69SLPC  H12X 5942   2.298   2.153   9.176  0.1831 -0.4036  0.6371
   69SLPC  H12Y 5943   2.262   1.984   9.168  0.2073  0.4484 -1.9802
   69SLPC  C313 5944   2.422   2.042   9.035 -0.5990 -0.0264  0.0337
   69SLPC  H13X 5945   2.444   1.934   9.019  1.3085  0.5231 -1.5521
   69SLPC  H13Y 5946   2.521   2.089   9.056 -2.2121  3.0018  1.3890
   69SLPC  C314 5947   2.345   2.110   8.920  0.3182  0.2061  0.3507
   69SLPC  H14X 5948   2.267   2.182   8.953 -2.0048 -2.3484  0.8471
   69SLPC  H14Y 5949   2.287   2.026   8.875  0.3802  0.5557 -0.4010
   69SLPC  C315 5950   2.436   2.179   8.825  0.0051  0.7209 -0.7463
   69SLPC  H15X 5951   2.532   2.124   8.813  0.5284  1.1734  1.1063
   69SLPC  H15Y 5952   2.460   2.280   8.864 -1.9524  1.1807 -0.6284
   69SLPC  C316 5953   2.363   2.205   8.695 -0.5664 -0.4848 -0.3651
   69SLPC  H16X 5954   2.420   2.281   8.636 -0.8131 -0.3214 -0.3970
   69SLPC  H16Y 5955   2.263   2.242   8.726  0.7352  1.2782  2.0888
   69SLPC  C317 5956   2.358   2.083   8.598  0.0394  0.4876 -0.2848
   69SLPC  H17X 5957   2.291   2.005   8.640  0.5011 -0.5992 -1.5182
   69SLPC  H17Y 5958   2.463   2.048   8.591 -0.3102 -0.4950 -0.7858
   69SLPC  C318 5959   2.325   2.127   8.456  0.2879  0.1159  0.0751
   69SLPC  H18X 5960   2.346   2.036   8.397  0.9003 -0.6303  1.3893
   69SLPC  H18Y 5961   2.399   2.205   8.430  0.6791  0.0896  1.0707
   69SLPC  H18Z 5962   2.219   2.160   8.465  0.8097  1.6150  1.3598
   70SLPC     N 5963   5.062   5.478  10.753  0.5179  0.1446  0.8240
   70SLPC   C13 5964   5.207   5.514  10.768 -0.4120  0.3255  0.6128
   70SLPC  H13A 5965   5.262   5.422  10.786  1.8653  2.0589  3.5606
   70SLPC  H13B 5966   5.244   5.561  10.679 -1.8752 -0.5321 -0.4914
   70SLPC  H13C 5967   5.228   5.568  10.860  0.1216 -0.2345  0.8282
   70SLPC   C14 5968   4.987   5.612  10.740  0.2944  0.6063  0.3406
   70SLPC  H14A 5969   5.021   5.685  10.668 -1.7413  1.5510  0.2675
   70SLPC  H14B 5970   4.883   5.589  10.722 -0.1508 -0.3057  3.4801
   70SLPC  H14C 5971   4.981   5.665  10.834  1.8802 -1.5876  1.7690
   70SLPC   C15 5972   5.008   5.417  10.877  0.2852  0.5567 -0.1119
   70SLPC  H15A 5973   5.076   5.340  10.911  0.6469  0.1320 -1.7291
   70SLPC  H15B 5974   4.994   5.491  10.955 -0.8909  1.3736 -1.0604
   70SLPC  H15C 5975   4.907   5.383  10.860  0.4144  0.1335 -0.0330
   70SLPC   C12 5976   5.047   5.384  10.633  0.1490 -0.1868 -0.8770
   70SLPC  H12A 5977   5.129   5.314  10.638  2.3899  2.1705 -1.6208
   70SLPC  H12B 5978   5.079   5.432  10.541  3.6887 -1.8123 -0.6739
   70SLPC   C11 5979   4.915   5.312  10.606 -0.4346 -0.5910 -0.0600
   70SLPC  H11A 5980   4.890   5.254  10.698 -0.0264 -1.0685 -0.2464
   70SLPC  H11B 5981   4.924   5.244  10.518  2.6679  1.6694 -1.6571
   70SLPC     P 5982   4.680   5.413  10.667  0.2321  0.1542 -0.4834
   70SLPC   O13 5983   4.614   5.280  10.676 -0.3778 -0.3920  0.2472
   70SLPC   O14 5984   4.709   5.477  10.794 -0.3078  0.3834  0.2636
   70SLPC   O12 5985   4.807   5.407  10.575 -0.2010  0.4378  0.5503
   70SLPC   O11 5986   4.576   5.503  10.588 -0.2402  0.5499 -0.5354
   70SLPC    C1 5987   4.528   5.469  10.459 -0.0448 -0.0426  0.0265
   70SLPC    HA 5988   4.607   5.434  10.390 -0.3895 -1.2500  0.2050
   70SLPC    HB 5989   4.450   5.390  10.460  0.8511 -1.0132 -1.9303
   70SLPC    C2 5990   4.476   5.612  10.401  0.3230 -0.4079  0.0042
   70SLPC    HS 5991   4.408   5.653  10.478 -1.3926  0.3961 -1.8522
   70SLPC   O21 5992   4.407   5.592  10.281  0.2710  0.6931  0.3897
   70SLPC   C21 5993   4.317   5.682  10.249  0.2199 -0.4298 -0.1662
   70SLPC   O22 5994   4.286   5.780  10.313  0.6336  0.3595 -0.1512
   70SLPC   C22 5995   4.252   5.645  10.111 -0.3811 -0.5684 -0.2154
   70SLPC   H2R 5996   4.232   5.536  10.110 -0.3598 -0.5934 -2.3464
   70SLPC   H2S 5997   4.154   5.697  10.098 -0.0608  0.1018  0.0111
   70SLPC    C3 5998   4.598   5.707  10.382  0.5134  0.3663 -0.5165
   70SLPC    HX 5999   4.672   5.687  10.461 -0.1568  1.0747  0.3052
   70SLPC    HY 6000   4.558   5.809  10.398 -2.5184 -1.1421  3.1815
   70SLPC   O31 6001   4.660   5.681  10.252  0.3041 -0.4583 -0.9214
   70SLPC   C31 6002   4.661   5.778  10.161 -0.4863 -0.3413  0.3548
   70SLPC   O32 6003   4.589   5.878  10.165  1.1709 -0.1728  0.7566
   70SLPC   C32 6004   4.756   5.739  10.045 -0.8241  0.2992 -0.1336
   70SLPC   H2X 6005   4.804   5.639  10.051  3.4093  1.8090 -3.3529
   70SLPC   H2Y 6006   4.851   5.797  10.045 -0.2500 -0.5098  2.0605
   70SLPC   C23 6007   4.343   5.677   9.989  0.1243 -0.0176 -0.1112
   70SLPC   H3R 6008   4.448   5.651  10.011  0.4393 -0.0919 -1.6016
   70SLPC   H3S 6009   4.342   5.784   9.957  0.1684  0.3248  0.9986
   70SLPC   C24 6010   4.293   5.596   9.866 -0.6976  0.3514  0.5899
   70SLPC   H4R 6011   4.188   5.624   9.843 -0.4175  0.5444 -0.4757
   70SLPC   H4S 6012   4.306   5.489   9.896 -1.4539  0.4382  1.2666
   70SLPC   C25 6013   4.368   5.627   9.736  0.6191 -0.3077 -0.2053
   70SLPC   H5R 6014   4.473   5.591   9.742  0.9692  0.6955 -0.1428
   70SLPC   H5S 6015   4.370   5.738   9.743  0.2427 -0.3804  1.7873
   70SLPC   C26 6016   4.294   5.591   9.607  0.4892  0.3233 -0.9857
   70SLPC   H6R 6017   4.186   5.609   9.624  0.4261 -0.4633 -0.5148
   70SLPC   H6S 6018   4.294   5.482   9.584 -0.1280  0.2612 -0.7151
   70SLPC   C27 6019   4.340   5.675   9.494 -0.6507 -0.0560  0.3876
   70SLPC   H7R 6020   4.448   5.694   9.508 -0.8300 -0.0177  1.9528
   70SLPC   H7S 6021   4.285   5.771   9.486 -2.7093 -1.2276 -0.4651
   70SLPC   C28 6022   4.335   5.605   9.357 -0.2047  0.3911  0.1506
   70SLPC   H8R 6023   4.362   5.498   9.367 -0.7120  0.3395  1.1071
   70SLPC   H8S 6024   4.415   5.640   9.288 -0.1784  3.0522  1.4020
   70SLPC   C29 6025   4.200   5.635   9.303  0.0997 -0.1784 -0.1054
   70SLPC   H9R 6026   4.115   5.612   9.370 -0.0017 -0.4274 -0.3194
   70SLPC  C210 6027   4.174   5.674   9.176  0.3048  0.4680  0.3862
   70SLPC  H10R 6028   4.068   5.693   9.154 -0.4734 -1.6677  1.9333
   70SLPC  C211 6029   4.275   5.696   9.068 -0.1754  0.2910 -0.1769
   70SLPC  H11R 6030   4.359   5.625   9.078 -1.3578 -1.0254  0.7681
   70SLPC  H11S 6031   4.322   5.797   9.075  1.5943 -0.4890 -0.2845
   70SLPC  C212 6032   4.210   5.698   8.932 -0.7418 -0.0315 -0.6089
   70SLPC  H12R 6033   4.100   5.698   8.930 -0.7508 -0.4569 -0.2250
   70SLPC  C213 6034   4.274   5.690   8.813  0.5525  0.0075 -0.4167
   70SLPC  H13R 6035   4.200   5.694   8.731  0.8637 -0.9581 -0.7626
   70SLPC  C214 6036   4.424   5.671   8.787 -0.6070  0.4452 -0.3358
   70SLPC  H14R 6037   4.437   5.569   8.744  1.3469  0.7209 -0.4477
   70SLPC  H14S 6038   4.483   5.681   8.880 -1.2813  1.6318 -0.0275
   70SLPC  C215 6039   4.482   5.791   8.710 -0.3267 -0.8993  0.0568
   70SLPC  H15R 6040   4.434   5.800   8.611 -0.8550  1.1571  0.4565
   70SLPC  H15S 6041   4.592   5.773   8.704 -0.2841 -1.1311  1.1670
   70SLPC  C216 6042   4.472   5.923   8.788  0.3714  0.0607 -0.5393
   70SLPC  H16R 6043   4.498   5.892   8.891  2.3725  2.4399 -0.2453
   70SLPC  H16S 6044   4.368   5.958   8.807 -0.0979 -2.1851  1.4067
   70SLPC  C217 6045   4.565   6.022   8.731 -0.5381 -0.5700  0.6388
   70SLPC  H17R 6046   4.529   6.046   8.629 -0.4991  1.1809  1.0168
   70SLPC  H17S 6047   4.659   5.963   8.724 -0.4857 -0.6547  1.9164
   70SLPC  C218 6048   4.578   6.148   8.814  0.0836 -0.4487 -0.5011
   70SLPC  H18R 6049   4.669   6.202   8.781 -1.2576  2.1597 -0.2168
   70SLPC  H18S 6050   4.589   6.120   8.921 -2.5250  1.1772  0.2994
   70SLPC  H18T 6051   4.485   6.210   8.814  0.4179  0.0650 -0.0924
   70SLPC   C33 6052   4.677   5.754   9.909 -0.1636 -1.3009  0.1901
   70SLPC   H3X 6053   4.621   5.849   9.925  0.3617 -0.7795 -0.9848
   70SLPC   H3Y 6054   4.620   5.662   9.881 -0.2867 -0.6203 -1.9791
   70SLPC   C34 6055   4.765   5.792   9.789 -0.3208 -0.3526  0.5147
   70SLPC   H4X 6056   4.858   5.731   9.791  0.2946  0.5695  1.3690
   70SLPC   H4Y 6057   4.798   5.898   9.797 -1.4408  0.0901 -0.4303
   70SLPC   C35 6058   4.684   5.788   9.660  0.0369 -0.7924 -0.4082
   70SLPC   H5X 6059   4.576   5.782   9.686  0.5267 -0.6468  1.9642
   70SLPC   H5Y 6060   4.684   5.686   9.617 -1.7441 -0.8431 -0.3828
   70SLPC   C36 6061   4.730   5.883   9.556  0.2534 -0.1760 -0.2150
   70SLPC   H6X 6062   4.713   5.986   9.595  2.9446  0.0042  0.7739
   70SLPC   H6Y 6063   4.657   5.868   9.474  1.2851 -1.9431 -0.8595
   70SLPC   C37 6064   4.878   5.878   9.528 -0.1706 -0.0561  0.1264
   70SLPC   H7X 6065   4.890   5.767   9.519 -0.2811  0.0420 -1.5238
   70SLPC   H7Y 6066   4.942   5.911   9.612 -0.5099 -0.3534  0.5011
   70SLPC   C38 6067   4.920   5.940   9.390  0.4029 -0.7078 -0.1569
   70SLPC   H8X 6068   4.833   6.006   9.366  0.3923  0.8544  3.4583
   70SLPC   H8Y 6069   4.935   5.864   9.311  0.6092 -0.7232 -0.1034
   70SLPC   C39 6070   5.038   6.038   9.402  0.2836 -0.3133  0.4664
   70SLPC   H9X 6071   5.116   5.965   9.434 -0.8146 -1.7285  0.0006
   70SLPC   H9Y 6072   5.004   6.120   9.469 -0.2275 -1.1532  1.2431
   70SLPC  C310 6073   5.078   6.104   9.267  0.0123 -0.1247  0.2736
   70SLPC  H10X 6074   5.143   6.189   9.295  0.4473 -0.5684  0.6281
   70SLPC  H10Y 6075   4.983   6.132   9.217  0.4133 -0.6850 -0.8421
   70SLPC  C311 6076   5.153   6.011   9.172  0.1772  0.2289 -0.3399
   70SLPC  H11X 6077   5.103   5.913   9.168 -4.3235  2.0684  2.9189
   70SLPC  H11Y 6078   5.257   5.990   9.206  0.8733 -0.4318 -2.7186
   70SLPC  C312 6079   5.156   6.077   9.035  1.1872  0.0460 -0.4044
   70SLPC  H12X 6080   5.230   6.159   9.046 -1.1436  2.6112 -2.2228
   70SLPC  H12Y 6081   5.053   6.116   9.018  0.9540 -0.7534 -0.9337
   70SLPC  C313 6082   5.190   5.981   8.924  0.6694 -0.1023 -0.0618
   70SLPC  H13X 6083   5.119   5.896   8.931 -0.5914  1.0611  3.3681
   70SLPC  H13Y 6084   5.291   5.939   8.944  0.5842  0.2338  1.1801
   70SLPC  C314 6085   5.186   6.050   8.787  0.2703  0.3346 -0.1725
   70SLPC  H14X 6086   5.222   5.985   8.704  0.2122 -1.1288  0.8937
   70SLPC  H14Y 6087   5.255   6.136   8.786  0.8845 -0.1479 -0.0763
   70SLPC  C315 6088   5.044   6.109   8.754  1.1489  0.1258  0.8835
   70SLPC  H15X 6089   4.979   6.128   8.842 -1.9445 -0.9576 -1.0211
   70SLPC  H15Y 6090   4.983   6.024   8.715 -0.2266  1.5183 -0.0916
   70SLPC  C316 6091   5.051   6.225   8.658 -0.8882  0.5417 -0.1720
   70SLPC  H16X 6092   5.122   6.199   8.576  0.4827  1.5267  0.6571
   70SLPC  H16Y 6093   5.098   6.311   8.710 -3.8214  1.8806  0.4844
   70SLPC  C317 6094   4.927   6.288   8.606 -0.2646  0.0460 -0.3167
   70SLPC  H17X 6095   4.955   6.372   8.539 -0.5693 -0.3206 -0.9169
   70SLPC  H17Y 6096   4.872   6.327   8.695 -1.3612 -2.0495 -0.0215
   70SLPC  C318 6097   4.834   6.191   8.537 -0.2586 -0.2435  0.2108
   70SLPC  H18X 6098   4.740   6.245   8.512 -1.0396  0.4500  4.0033
   70SLPC  H18Y 6099   4.809   6.099   8.594 -2.2779  1.1870  1.7610
   70SLPC  H18Z 6100   4.877   6.146   8.444  0.1068 -0.2504  0.3808
   71SLPC     N 6101   3.436   5.978  10.953  0.8386 -0.1712  0.2656
   71SLPC   C13 6102   3.551   5.884  10.961  0.4500 -0.0795 -0.4081
   71SLPC  H13A 6103   3.583   5.865  11.063  1.2214 -1.2569 -0.8477
   71SLPC  H13B 6104   3.526   5.789  10.917  0.1458  0.7462 -2.1179
   71SLPC  H13C 6105   3.639   5.920  10.909  0.9455 -1.1079 -0.3153
   71SLPC   C14 6106   3.469   6.080  11.060  0.5908  0.5290 -0.0223
   71SLPC  H14A 6107   3.491   6.022  11.148 -1.7475 -1.7336 -0.8072
   71SLPC  H14B 6108   3.560   6.135  11.044  1.5028 -1.1380 -0.7372
   71SLPC  H14C 6109   3.389   6.148  11.087 -1.8663 -2.8867  2.1168
   71SLPC   C15 6110   3.313   5.909  10.995  0.9312 -0.0699  0.0825
   71SLPC  H15A 6111   3.271   5.844  10.919 -0.7973 -0.7666  1.5546
   71SLPC  H15B 6112   3.326   5.837  11.075  0.3934  2.0381  2.1822
   71SLPC  H15C 6113   3.231   5.974  11.023  0.5931 -0.1649 -0.6531
   71SLPC   C12 6114   3.446   6.049  10.824  0.2995 -0.0718 -0.0990
   71SLPC  H12A 6115   3.535   6.111  10.825  0.8543 -0.8397  1.2999
   71SLPC  H12B 6116   3.365   6.121  10.823 -0.2522 -0.6900 -0.4938
   71SLPC   C11 6117   3.422   5.972  10.687  0.4423 -0.3164 -0.6408
   71SLPC  H11A 6118   3.438   6.044  10.605  2.8352 -0.3900 -0.3028
   71SLPC  H11B 6119   3.321   5.936  10.659  0.7605 -1.3480 -0.5226
   71SLPC     P 6120   3.676   5.902  10.645 -0.1168 -0.6998 -0.3740
   71SLPC   O13 6121   3.708   6.034  10.708 -1.1201  0.5539  0.0979
   71SLPC   O14 6122   3.754   5.784  10.699  0.3927  0.1447  0.4913
   71SLPC   O12 6123   3.516   5.878  10.659  0.0295  0.3505 -0.2858
   71SLPC   O11 6124   3.692   5.931  10.486 -0.5057  0.2441 -0.7142
   71SLPC    C1 6125   3.804   5.888  10.408  0.0106 -0.0204 -0.2548
   71SLPC    HA 6126   3.852   5.982  10.372  0.3220 -0.2471 -0.4348
   71SLPC    HB 6127   3.880   5.829  10.464  0.6926  0.1838 -0.9397
   71SLPC    C2 6128   3.761   5.796  10.293 -0.6136 -0.7772  0.9473
   71SLPC    HS 6129   3.849   5.761  10.235  0.8521  1.5537  1.6276
   71SLPC   O21 6130   3.657   5.863  10.215  0.3212  0.0598  0.6356
   71SLPC   C21 6131   3.712   5.952  10.135  0.3070 -1.0048  0.3808
   71SLPC   O22 6132   3.833   5.967  10.119 -0.1587 -0.3323  0.0227
   71SLPC   C22 6133   3.613   6.045  10.072  0.4356  0.0126 -0.7126
   71SLPC   H2R 6134   3.511   6.001  10.087 -0.0144  1.1875 -0.2460
   71SLPC   H2S 6135   3.621   6.142  10.124 -0.7299 -1.0078  1.4997
   71SLPC    C3 6136   3.701   5.664  10.339  0.1296  0.4130 -0.4481
   71SLPC    HX 6137   3.599   5.674  10.381 -0.0642  0.5229 -0.9426
   71SLPC    HY 6138   3.758   5.623  10.425  0.5266 -0.0483 -0.9269
   71SLPC   O31 6139   3.715   5.571  10.231  0.1658  0.9336 -0.6144
   71SLPC   C31 6140   3.605   5.527  10.177 -0.2053 -0.3156 -0.1424
   71SLPC   O32 6141   3.496   5.555  10.219 -0.2150  0.1307  0.1851
   71SLPC   C32 6142   3.637   5.428  10.074 -0.6617  0.5126  0.5072
   71SLPC   H2X 6143   3.577   5.441   9.982  0.4385  2.0368 -0.0457
   71SLPC   H2Y 6144   3.609   5.329  10.115 -1.7743  1.5062  2.3067
   71SLPC   C23 6145   3.645   6.071   9.924 -0.6128 -0.4653  0.4499
   71SLPC   H3R 6146   3.748   6.111   9.918 -0.4871 -0.9734 -2.4199
   71SLPC   H3S 6147   3.583   6.160   9.898 -3.3132 -1.7181  2.0920
   71SLPC   C24 6148   3.619   5.962   9.819 -0.1223  0.0875  0.4260
   71SLPC   H4R 6149   3.612   6.013   9.720 -1.1054  1.6297  1.2372
   71SLPC   H4S 6150   3.519   5.924   9.849  0.3833  0.1211  2.2666
   71SLPC   C25 6151   3.730   5.860   9.805 -0.2374 -1.1799  0.7271
   71SLPC   H5R 6152   3.751   5.806   9.899  0.1133  0.2881  1.5297
   71SLPC   H5S 6153   3.822   5.913   9.774 -1.1266 -0.4985 -0.8894
   71SLPC   C26 6154   3.712   5.751   9.701 -0.2716 -0.1809 -0.1334
   71SLPC   H6R 6155   3.671   5.787   9.604 -1.7526  0.7162  0.7723
   71SLPC   H6S 6156   3.658   5.666   9.747  0.5931  0.3054  1.9108
   71SLPC   C27 6157   3.854   5.709   9.651 -0.0788  0.2523  0.2677
   71SLPC   H7R 6158   3.926   5.711   9.735  0.6723 -1.2269 -0.3078
   71SLPC   H7S 6159   3.876   5.775   9.564  2.4386 -3.0607 -1.8314
   71SLPC   C28 6160   3.853   5.564   9.597 -0.3495  0.1627 -0.0472
   71SLPC   H8R 6161   3.820   5.499   9.681 -2.8409  1.1569 -0.1612
   71SLPC   H8S 6162   3.955   5.530   9.568  0.5056  0.1112  2.6863
   71SLPC   C29 6163   3.753   5.548   9.484  0.1955 -0.1747  0.0427
   71SLPC   H9R 6164   3.734   5.629   9.412 -1.0036 -1.5371 -1.2582
   71SLPC  C210 6165   3.667   5.441   9.469 -0.1606 -1.0349 -0.6566
   71SLPC  H10R 6166   3.585   5.457   9.398  0.6346  2.5063 -0.9693
   71SLPC  C211 6167   3.662   5.323   9.552 -0.0403  0.3216  0.1491
   71SLPC  H11R 6168   3.586   5.345   9.631 -0.1737  2.3508 -0.4947
   71SLPC  H11S 6169   3.759   5.311   9.606  0.4590  0.2318 -0.7562
   71SLPC  C212 6170   3.637   5.195   9.474 -0.8637 -0.1490  0.0659
   71SLPC  H12R 6171   3.534   5.159   9.489  0.2855 -3.2920  1.1669
   71SLPC  C213 6172   3.714   5.136   9.378  0.8440  0.9134 -0.6148
   71SLPC  H13R 6173   3.676   5.037   9.348  2.0172  0.6944 -1.4519
   71SLPC  C214 6174   3.850   5.187   9.324  0.6055 -0.1256  0.6000
   71SLPC  H14R 6175   3.928   5.109   9.336  0.2568 -0.1528  3.4610
   71SLPC  H14S 6176   3.887   5.276   9.380 -0.1608  0.5518  0.0588
   71SLPC  C215 6177   3.837   5.226   9.177 -0.0550  0.7123  0.0904
   71SLPC  H15R 6178   3.924   5.285   9.142  0.6071 -1.0618 -1.3892
   71SLPC  H15S 6179   3.752   5.297   9.166  0.7273  2.0579  2.0920
   71SLPC  C216 6180   3.806   5.110   9.076 -0.3176  0.0624 -0.5516
   71SLPC  H16R 6181   3.814   5.159   8.977 -0.8841 -1.8577 -1.6078
   71SLPC  H16S 6182   3.703   5.074   9.100 -0.4186  0.2245 -0.7418
   71SLPC  C217 6183   3.906   4.992   9.085  0.1129  0.2596 -0.2172
   71SLPC  H17R 6184   3.877   4.914   9.158  4.0825  0.6167  2.0464
   71SLPC  H17S 6185   4.008   5.028   9.111  1.4731 -2.4619 -1.3482
   71SLPC  C218 6186   3.915   4.921   8.950 -0.0149  0.2340  0.7924
   71SLPC  H18R 6187   3.949   4.994   8.874  0.8399  0.0105  0.9482
   71SLPC  H18S 6188   3.818   4.879   8.916  0.1759  0.4765 -0.0774
   71SLPC  H18T 6189   3.985   4.835   8.954 -2.6458 -2.1439 -0.6139
   71SLPC   C33 6190   3.790   5.422  10.037 -0.1186 -0.1710 -0.5591
   71SLPC   H3X 6191   3.850   5.396  10.127 -2.4400 -0.8384  0.8990
   71SLPC   H3Y 6192   3.838   5.516  10.004  1.8310 -0.7279  0.5041
   71SLPC   C34 6193   3.819   5.314   9.925 -0.3531 -1.1340 -0.3356
   71SLPC   H4X 6194   3.772   5.348   9.830  1.9249 -0.0043 -1.1297
   71SLPC   H4Y 6195   3.772   5.215   9.938 -0.7240 -0.7590  1.3257
   71SLPC   C35 6196   3.970   5.300   9.883 -0.1313  0.9065 -0.0217
   71SLPC   H5X 6197   4.021   5.234   9.956 -1.7027  1.0236  1.2431
   71SLPC   H5Y 6198   4.018   5.400   9.891  3.8741 -0.6991 -1.2997
   71SLPC   C36 6199   4.005   5.240   9.749  0.1435 -0.2088  1.1049
   71SLPC   H6X 6200   3.945   5.297   9.675 -0.4510  1.3832  2.7392
   71SLPC   H6Y 6201   3.962   5.138   9.750 -0.0984 -0.1709 -0.6777
   71SLPC   C37 6202   4.152   5.231   9.705  0.3673 -0.3469 -0.5224
   71SLPC   H7X 6203   4.183   5.164   9.788 -1.0232  0.6590  0.8375
   71SLPC   H7Y 6204   4.205   5.329   9.700 -2.0783  1.1360  0.8109
   71SLPC   C38 6205   4.170   5.169   9.561  0.4700  0.1271  0.5270
   71SLPC   H8X 6206   4.104   5.222   9.490 -0.0728 -0.1281  0.8385
   71SLPC   H8Y 6207   4.115   5.073   9.562  0.6129 -0.0212 -1.5360
   71SLPC   C39 6208   4.316   5.178   9.509 -0.5299  0.2027  0.4148
   71SLPC   H9X 6209   4.382   5.124   9.580 -1.4826  1.1438  2.1030
   71SLPC   H9Y 6210   4.337   5.287   9.515 -0.6981  0.1799  2.1875
   71SLPC  C310 6211   4.340   5.122   9.358 -0.3425  0.1972  0.5297
   71SLPC  H10X 6212   4.320   5.013   9.359  0.3279  0.0762  1.3450
   71SLPC  H10Y 6213   4.449   5.144   9.346  0.0242 -1.9111 -0.4035
   71SLPC  C311 6214   4.266   5.197   9.246 -0.3182  0.9628 -1.0812
   71SLPC  H11X 6215   4.277   5.303   9.275  1.0482  0.3955  0.6205
   71SLPC  H11Y 6216   4.157   5.174   9.242 -0.8622  3.4438 -3.0362
   71SLPC  C312 6217   4.322   5.162   9.110  0.0355 -0.0661 -0.0343
   71SLPC  H12X 6218   4.324   5.051   9.101  1.5618 -0.1284  0.8504
   71SLPC  H12Y 6219   4.425   5.201   9.122  0.8709 -2.7823  2.9824
   71SLPC  C313 6220   4.240   5.232   9.003  0.5170 -0.5402  0.3475
   71SLPC  H13X 6221   4.219   5.339   9.027 -1.7021 -0.7277 -0.5067
   71SLPC  H13Y 6222   4.152   5.168   8.981  0.5023 -1.0619  1.7873
   71SLPC  C314 6223   4.328   5.226   8.872  0.1239 -0.0998 -0.0735
   71SLPC  H14X 6224   4.343   5.120   8.845 -0.0355 -0.0125 -0.5124
   71SLPC  H14Y 6225   4.432   5.259   8.891  0.2078  0.2677 -1.1321
   71SLPC  C315 6226   4.271   5.323   8.765  0.0561 -0.1989  0.4846
   71SLPC  H15X 6227   4.344   5.315   8.682 -1.2538  1.9322 -0.9743
   71SLPC  H15Y 6228   4.276   5.426   8.805  2.6597  0.8897 -2.2599
   71SLPC  C316 6229   4.135   5.284   8.711  0.2459  0.1558 -0.4584
   71SLPC  H16X 6230   4.061   5.322   8.784  2.2775  1.1956  1.1370
   71SLPC  H16Y 6231   4.132   5.174   8.692  0.2314  0.5961 -3.4628
   71SLPC  C317 6232   4.106   5.347   8.575  0.1853 -0.7134 -0.1833
   71SLPC  H17X 6233   4.144   5.451   8.588 -2.0899  0.1852 -0.3441
   71SLPC  H17Y 6234   3.996   5.346   8.563  0.0634  2.0607  0.0335
   71SLPC  C318 6235   4.183   5.278   8.459  0.1103 -0.4308 -0.0424
   71SLPC  H18X 6236   4.153   5.321   8.360  1.5947 -0.7775 -0.6608
   71SLPC  H18Y 6237   4.151   5.171   8.464  0.6433 -0.5519  0.9198
   71SLPC  H18Z 6238   4.294   5.275   8.460  0.1074 -1.6226 -0.9476
   72SLPC     N 6239   5.758   5.032  11.000 -0.0114 -0.1935 -0.0289
   72SLPC   C13 6240   5.838   4.936  11.093 -0.2181 -0.0946  0.2801
   72SLPC  H13A 6241   5.880   4.989  11.177 -0.0077  1.0144 -0.4860
   72SLPC  H13B 6242   5.765   4.868  11.134  1.4788 -1.0249  1.8649
   72SLPC  H13C 6243   5.914   4.879  11.043  0.0616 -1.6132  2.3403
   72SLPC   C14 6244   5.846   5.124  10.924 -0.0029  0.0757 -0.0256
   72SLPC  H14A 6245   5.907   5.073  10.851  0.9063  1.1604 -0.0354
   72SLPC  H14B 6246   5.782   5.187  10.864  1.0803  0.3286 -0.9460
   72SLPC  H14C 6247   5.913   5.188  10.979  2.1676 -0.9622 -1.3457
   72SLPC   C15 6248   5.658   5.100  11.083 -0.0630  0.5372  0.4978
   72SLPC  H15A 6249   5.616   5.030  11.154 -0.6279  0.9328  0.5553
   72SLPC  H15B 6250   5.718   5.182  11.119 -0.1443  0.5436  0.6198
   72SLPC  H15C 6251   5.569   5.130  11.031  0.8790  1.5144 -0.5936
   72SLPC   C12 6252   5.680   4.950  10.901  0.0205  0.4254  0.3037
   72SLPC  H12A 6253   5.609   4.881  10.944 -0.7313  0.6605 -0.5314
   72SLPC  H12B 6254   5.753   4.880  10.862 -1.2607 -0.9434  0.2779
   72SLPC   C11 6255   5.602   5.018  10.781 -0.2091  0.1121  0.1629
   72SLPC  H11A 6256   5.556   4.936  10.721 -1.8304  1.2230 -0.1869
   72SLPC  H11B 6257   5.673   5.077  10.719  0.3239  1.2242  1.7840
   72SLPC     P 6258   5.440   5.218  10.725 -0.0361 -0.0028  0.1904
   72SLPC   O13 6259   5.312   5.166  10.668  0.1072  0.5498  0.1995
   72SLPC   O14 6260   5.435   5.352  10.789 -0.3679  0.2609  0.4232
   72SLPC   O12 6261   5.503   5.107  10.818 -0.1775  0.0008 -0.2169
   72SLPC   O11 6262   5.546   5.226  10.605  0.0762 -0.1473 -0.4523
   72SLPC    C1 6263   5.501   5.302  10.496 -0.0568 -0.4464 -0.7935
   72SLPC    HA 6264   5.408   5.361  10.508 -0.1676 -0.7827  0.0364
   72SLPC    HB 6265   5.573   5.384  10.472 -0.4490 -0.4677 -2.1273
   72SLPC    C2 6266   5.490   5.213  10.360 -0.0768 -0.1443  0.1005
   72SLPC    HS 6267   5.487   5.271  10.266 -1.5014 -0.1594  0.1156
   72SLPC   O21 6268   5.383   5.127  10.361  0.6595 -0.0544 -0.2190
   72SLPC   C21 6269   5.258   5.190  10.368 -0.4358 -0.3100  0.2043
   72SLPC   O22 6270   5.234   5.308  10.378  0.0829 -0.5691 -0.5118
   72SLPC   C22 6271   5.156   5.085  10.367  0.2741  0.0601  0.3535
   72SLPC   H2R 6272   5.199   4.985  10.347 -1.0084 -0.6639  1.0945
   72SLPC   H2S 6273   5.123   5.079  10.473 -1.7995  0.6287 -0.2175
   72SLPC    C3 6274   5.623   5.119  10.345  0.0933  0.3955 -0.1808
   72SLPC    HX 6275   5.623   5.032  10.414  0.8430 -0.6964 -1.5030
   72SLPC    HY 6276   5.708   5.180  10.382 -1.6163  2.6544  0.3040
   72SLPC   O31 6277   5.640   5.070  10.214 -0.1663  0.8237 -0.6204
   72SLPC   C31 6278   5.687   5.158  10.128 -0.4099  0.7359 -0.2734
   72SLPC   O32 6279   5.738   5.265  10.144  0.0430 -0.2405 -0.0133
   72SLPC   C32 6280   5.653   5.098   9.994 -0.0661 -0.5035  0.4872
   72SLPC   H2X 6281   5.544   5.109   9.974  0.2251 -0.8093 -1.4809
   72SLPC   H2Y 6282   5.664   4.987   9.993 -0.1231 -0.5207  1.1398
   72SLPC   C23 6283   5.029   5.119  10.283 -0.0830  0.1380  0.2036
   72SLPC   H3R 6284   4.990   5.219  10.311 -2.3769 -0.1212 -1.7569
   72SLPC   H3S 6285   4.949   5.047  10.311  1.7901 -1.8736  0.7453
   72SLPC   C24 6286   5.051   5.119  10.139 -0.1707 -0.0267  0.4390
   72SLPC   H4R 6287   5.099   5.216  10.114  1.6599 -0.6040  1.5052
   72SLPC   H4S 6288   4.955   5.122  10.084  0.2071  1.0111 -0.1841
   72SLPC   C25 6289   5.146   5.008  10.081 -0.0389 -1.4099  0.1943
   72SLPC   H5R 6290   5.109   4.906  10.105 -0.2962 -1.2778  0.3676
   72SLPC   H5S 6291   5.242   5.007  10.138 -0.6610  1.6699  1.5198
   72SLPC   C26 6292   5.164   5.013   9.928  0.2275 -0.5027  0.1608
   72SLPC   H6R 6293   5.210   5.110   9.900  2.9789 -1.0725  2.2037
   72SLPC   H6S 6294   5.071   5.000   9.869 -1.5538 -3.3219  3.2915
   72SLPC   C27 6295   5.271   4.903   9.898  0.6313 -0.0952 -0.3787
   72SLPC   H7R 6296   5.236   4.800   9.919  0.4199 -0.0473 -0.4923
   72SLPC   H7S 6297   5.354   4.920   9.971 -0.0464 -0.1608  0.4160
   72SLPC   C28 6298   5.336   4.902   9.756 -0.8446 -0.2153  0.2605
   72SLPC   H8R 6299   5.433   4.849   9.767 -0.5308  0.2253 -0.3321
   72SLPC   H8S 6300   5.349   5.008   9.725  1.5651 -1.0698 -2.0133
   72SLPC   C29 6301   5.256   4.826   9.650  0.4578 -0.1006  0.4721
   72SLPC   H9R 6302   5.246   4.718   9.671 -0.3036 -0.2857 -0.7595
   72SLPC  C210 6303   5.200   4.870   9.536 -0.0265  0.0132 -0.1204
   72SLPC  H10R 6304   5.141   4.796   9.480  0.8869 -0.7107 -0.1534
   72SLPC  C211 6305   5.204   5.010   9.473  0.2960 -0.4851  1.0825
   72SLPC  H11R 6306   5.209   5.079   9.560  1.0688 -2.5468  2.7534
   72SLPC  H11S 6307   5.106   5.045   9.433 -0.7736  0.3563  4.1381
   72SLPC  C212 6308   5.315   5.022   9.371  0.8558 -0.1378 -0.2403
   72SLPC  H12R 6309   5.407   5.067   9.412 -0.6363  0.2470  3.0070
   72SLPC  C213 6310   5.303   4.976   9.241  0.3058 -0.0397  0.9776
   72SLPC  H13R 6311   5.389   4.993   9.173  0.9312 -0.1363  1.7294
   72SLPC  C214 6312   5.182   4.905   9.183  0.2305 -0.2312 -0.1820
   72SLPC  H14R 6313   5.100   4.883   9.256 -0.1785  2.2054  0.1856
   72SLPC  H14S 6314   5.216   4.809   9.138  3.3269 -0.6271  2.6181
   72SLPC  C215 6315   5.117   5.004   9.089  0.5201  0.4825  0.1591
   72SLPC  H15R 6316   5.085   5.094   9.147  2.1911 -0.8734  3.4740
   72SLPC  H15S 6317   5.029   4.952   9.046  0.5703  1.3542 -1.0802
   72SLPC  C216 6318   5.201   5.052   8.972 -0.0120  0.0631  0.3429
   72SLPC  H16R 6319   5.272   4.973   8.939  1.6042  1.5352  0.1040
   72SLPC  H16S 6320   5.271   5.135   8.996 -0.3753  0.6413 -0.5473
   72SLPC  C217 6321   5.116   5.090   8.847  0.0411 -0.8447 -0.6797
   72SLPC  H17R 6322   5.064   5.005   8.799 -3.1481  1.0206 -0.7959
   72SLPC  H17S 6323   5.190   5.123   8.770  1.2030 -2.0281 -0.1063
   72SLPC  C218 6324   5.003   5.187   8.861 -0.2311 -0.4960 -0.6667
   72SLPC  H18R 6325   4.918   5.135   8.910  0.1273  0.9872  1.6536
   72SLPC  H18S 6326   4.979   5.231   8.761 -1.4947 -1.2218 -0.6991
   72SLPC  H18T 6327   5.040   5.265   8.931 -0.8252 -1.2684  0.5440
   72SLPC   C33 6328   5.728   5.165   9.875  0.2505 -0.0098 -0.0423
   72SLPC   H3X 6329   5.838   5.154   9.875  0.2962  0.3881  0.7973
   72SLPC   H3Y 6330   5.713   5.274   9.888 -0.4970 -0.0923 -0.1103
   72SLPC   C34 6331   5.675   5.116   9.743  0.0079 -0.3598 -0.5426
   72SLPC   H4X 6332   5.564   5.112   9.742 -0.0353  0.4627  0.3360
   72SLPC   H4Y 6333   5.709   5.011   9.728 -0.8447 -0.6421 -0.5626
   72SLPC   C35 6334   5.718   5.203   9.621  0.2593 -0.2538 -0.2894
   72SLPC   H5X 6335   5.829   5.198   9.613  0.4707  1.3783  1.1014
   72SLPC   H5Y 6336   5.688   5.307   9.643  2.0902  0.2162  0.1102
   72SLPC   C36 6337   5.649   5.164   9.493 -0.1134  0.2758 -0.2072
   72SLPC   H6X 6338   5.540   5.179   9.508 -1.2554 -1.7925 -4.8258
   72SLPC   H6Y 6339   5.661   5.055   9.476 -0.6829  0.1687  0.0357
   72SLPC   C37 6340   5.694   5.250   9.380 -0.5472  0.0635 -0.5969
   72SLPC   H7X 6341   5.804   5.246   9.393 -0.2470  1.9638 -2.1598
   72SLPC   H7Y 6342   5.652   5.353   9.382 -2.0198 -0.4103 -2.9946
   72SLPC   C38 6343   5.661   5.199   9.237  0.0001 -0.1662  0.4115
   72SLPC   H8X 6344   5.552   5.208   9.223  0.0712 -0.2657 -0.2296
   72SLPC   H8Y 6345   5.682   5.093   9.213 -2.3210 -0.4915 -0.4312
   72SLPC   C39 6346   5.736   5.298   9.133  0.0873 -0.2714 -0.9597
   72SLPC   H9X 6347   5.840   5.286   9.171 -0.2206  0.6968  0.2740
   72SLPC   H9Y 6348   5.690   5.396   9.157  3.6418  1.1107  0.8478
   72SLPC  C310 6349   5.715   5.265   8.990 -0.4438  0.5334  0.1188
   72SLPC  H10X 6350   5.607   5.282   8.971 -0.8768 -0.3729  1.5847
   72SLPC  H10Y 6351   5.745   5.160   8.972 -1.2882  0.2339  0.4146
   72SLPC  C311 6352   5.796   5.353   8.886 -0.0800 -0.1223 -0.2404
   72SLPC  H11X 6353   5.904   5.338   8.904 -0.0582 -2.9516 -2.2474
   72SLPC  H11Y 6354   5.773   5.461   8.904 -1.7051 -0.1512 -1.9296
   72SLPC  C312 6355   5.761   5.322   8.741 -0.4583 -0.2751 -0.5169
   72SLPC  H12X 6356   5.768   5.214   8.719  1.2899  0.1456 -2.3595
   72SLPC  H12Y 6357   5.838   5.363   8.673  0.1542 -0.5917 -0.0244
   72SLPC  C313 6358   5.617   5.374   8.705  0.1374  1.3784  0.2045
   72SLPC  H13X 6359   5.606   5.479   8.739  1.8937  1.6489  0.0715
   72SLPC  H13Y 6360   5.553   5.315   8.774 -1.9377  0.5823 -2.2424
   72SLPC  C314 6361   5.587   5.337   8.561  0.2984 -0.5262  0.3278
   72SLPC  H14X 6362   5.610   5.230   8.543  0.9367 -0.4064  0.3960
   72SLPC  H14Y 6363   5.658   5.397   8.500  2.1969 -2.2663  0.7078
   72SLPC  C315 6364   5.448   5.378   8.502  0.0064  0.2945 -0.1892
   72SLPC  H15X 6365   5.422   5.485   8.485  0.3178  0.3792 -0.1273
   72SLPC  H15Y 6366   5.378   5.351   8.584 -0.3748  1.4937 -0.1014
   72SLPC  C316 6367   5.392   5.295   8.388 -0.4854 -0.0903 -0.0290
   72SLPC  H16X 6368   5.285   5.322   8.379 -0.2735  0.5063 -0.9069
   72SLPC  H16Y 6369   5.403   5.186   8.406 -2.6261 -0.5528 -1.1286
   72SLPC  C317 6370   5.450   5.332   8.246 -0.3648  0.4172  0.6579
   72SLPC  H17X 6371   5.560   5.320   8.256 -0.4702 -1.8800 -0.2413
   72SLPC  H17Y 6372   5.441   5.441   8.230  0.6947  0.6978  1.7834
   72SLPC  C318 6373   5.400   5.255   8.119 -0.7866 -0.0276  0.0975
   72SLPC  H18X 6374   5.294   5.271   8.090 -0.7295 -0.2335 -0.2278
   72SLPC  H18Y 6375   5.411   5.145   8.130 -1.4017 -0.0718  0.2886
   72SLPC  H18Z 6376   5.459   5.284   8.029  2.7172 -3.4378  0.9930
   73SLPC     N 6377   4.199   2.719  10.980  0.0143 -0.1963 -0.4620
   73SLPC   C13 6378   4.133   2.719  10.853 -0.2900 -0.0285 -0.1077
   73SLPC  H13A 6379   4.180   2.792  10.789  1.6039  0.7384  2.0251
   73SLPC  H13B 6380   4.145   2.630  10.793  0.6203 -0.5888  0.8739
   73SLPC  H13C 6381   4.028   2.743  10.860 -0.9495 -2.2518 -1.3055
   73SLPC   C14 6382   4.345   2.690  10.975  0.0824 -0.1297 -1.0105
   73SLPC  H14A 6383   4.397   2.758  10.910  1.0205  0.2031  0.0550
   73SLPC  H14B 6384   4.379   2.701  11.077 -2.1502 -1.3718 -0.0524
   73SLPC  H14C 6385   4.355   2.586  10.949 -1.7412 -0.7767  0.6128
   73SLPC   C15 6386   4.134   2.615  11.066 -0.4333  0.1800 -0.5917
   73SLPC  H15A 6387   4.208   2.590  11.141  1.6343  1.4260 -2.1084
   73SLPC  H15B 6388   4.039   2.639  11.111 -0.4514 -1.3384  0.2539
   73SLPC  H15C 6389   4.120   2.521  11.015 -1.6666 -0.4367  0.8027
   73SLPC   C12 6390   4.174   2.859  11.046 -0.3148  0.6150 -0.9665
   73SLPC  H12A 6391   4.224   2.863  11.142 -1.5884  0.5281 -0.2732
   73SLPC  H12B 6392   4.070   2.861  11.074 -0.3772 -0.2952 -1.1235
   73SLPC   C11 6393   4.205   2.991  10.972  0.3670  0.1370 -0.5178
   73SLPC  H11A 6394   4.194   3.079  11.040 -0.9899  0.7299 -1.4671
   73SLPC  H11B 6395   4.135   2.992  10.886  1.4353  0.6448 -1.4019
   73SLPC     P 6396   4.364   3.055  10.776  0.1811  0.4034  0.1022
   73SLPC   O13 6397   4.344   3.199  10.793  0.4196  0.6173 -0.5888
   73SLPC   O14 6398   4.492   3.005  10.721 -0.0040 -0.0903  0.1188
   73SLPC   O12 6399   4.336   2.993  10.918 -0.3048  0.2914  0.1241
   73SLPC   O11 6400   4.252   2.989  10.687 -0.2005 -0.0285 -0.0346
   73SLPC    C1 6401   4.288   2.944  10.556 -1.6791  0.0908 -0.2900
   73SLPC    HA 6402   4.376   2.876  10.555 -0.7036  1.3117 -1.2046
   73SLPC    HB 6403   4.209   2.886  10.504  0.0152 -2.1964 -0.4863
   73SLPC    C2 6404   4.331   3.058  10.457 -0.3958  0.0113  0.5705
   73SLPC    HS 6405   4.420   3.111  10.495  0.4878  0.1920 -1.5752
   73SLPC   O21 6406   4.218   3.141  10.458 -0.5441  0.2310  0.2615
   73SLPC   C21 6407   4.227   3.260  10.421 -0.5874 -0.4474  0.5652
   73SLPC   O22 6408   4.327   3.324  10.397 -0.0455 -0.4416  0.4752
   73SLPC   C22 6409   4.090   3.320  10.428 -0.1234  0.6767 -0.4712
   73SLPC   H2R 6410   4.016   3.251  10.382 -0.4899  0.2833  0.6593
   73SLPC   H2S 6411   4.070   3.340  10.536  1.3900 -2.0731  0.3975
   73SLPC    C3 6412   4.360   3.007  10.312 -0.6975 -0.2433 -0.2271
   73SLPC    HX 6413   4.295   2.921  10.285  1.1424 -1.6902 -0.2419
   73SLPC    HY 6414   4.462   2.962  10.316 -2.2398 -4.0982  1.1048
   73SLPC   O31 6415   4.342   3.116  10.223 -0.2992  0.5275  0.9593
   73SLPC   C31 6416   4.461   3.173  10.176 -0.0821  0.3617  0.3208
   73SLPC   O32 6417   4.571   3.148  10.220 -0.2393 -0.4451  0.0333
   73SLPC   C32 6418   4.440   3.254  10.054 -0.4999 -0.2643  0.2719
   73SLPC   H2X 6419   4.388   3.348  10.082  0.6992  0.3408  0.5122
   73SLPC   H2Y 6420   4.378   3.200   9.979 -0.4207  2.2908 -1.7982
   73SLPC   C23 6421   4.068   3.454  10.358 -0.8689 -0.0742  0.5223
   73SLPC   H3R 6422   4.144   3.528  10.389  0.0606 -0.2456 -1.2140
   73SLPC   H3S 6423   3.968   3.483  10.396 -1.0725 -1.5395  1.1596
   73SLPC   C24 6424   4.066   3.434  10.207 -0.5221 -0.1615  0.9497
   73SLPC   H4R 6425   3.976   3.384  10.165  1.6683 -0.9989 -3.3611
   73SLPC   H4S 6426   4.164   3.389  10.179 -1.4318 -0.6020 -1.8199
   73SLPC   C25 6427   4.064   3.568  10.127  0.2227 -0.3910  0.7542
   73SLPC   H5R 6428   4.153   3.633  10.134  0.1962  0.0006 -1.6075
   73SLPC   H5S 6429   3.977   3.614  10.178 -0.9054 -1.7890  0.1881
   73SLPC   C26 6430   4.016   3.549   9.976  0.0333  0.4960 -0.7581
   73SLPC   H6R 6431   3.999   3.647   9.927  1.3266  0.8581 -0.5267
   73SLPC   H6S 6432   3.924   3.487   9.984  1.3067 -1.3043  0.5658
   73SLPC   C27 6433   4.133   3.489   9.896 -0.1437 -0.6410  0.1565
   73SLPC   H7R 6434   4.161   3.388   9.933 -1.1859  0.0271  3.0766
   73SLPC   H7S 6435   4.225   3.546   9.923 -0.0991 -0.3271 -0.6392
   73SLPC   C28 6436   4.104   3.475   9.746 -0.1364  0.0570  0.6324
   73SLPC   H8R 6437   4.009   3.418   9.736 -0.7283  1.1215 -0.0652
   73SLPC   H8S 6438   4.176   3.397   9.715  2.2969  1.4524  2.4376
   73SLPC   C29 6439   4.095   3.605   9.670  0.6437  0.6713  0.0111
   73SLPC   H9R 6440   4.014   3.670   9.706 -0.6929 -0.3489 -1.0846
   73SLPC  C210 6441   4.186   3.640   9.582  0.0229  0.5025 -0.4448
   73SLPC  H10R 6442   4.188   3.735   9.526  2.7416 -0.2982 -1.9246
   73SLPC  C211 6443   4.304   3.550   9.545 -0.2545 -0.6238 -0.4640
   73SLPC  H11R 6444   4.357   3.515   9.636 -2.1484  1.6536  1.6501
   73SLPC  H11S 6445   4.379   3.628   9.519 -3.4194  3.2690  1.0171
   73SLPC  C212 6446   4.285   3.440   9.446  0.1885 -0.2542 -0.0831
   73SLPC  H12R 6447   4.187   3.390   9.442  0.7441 -1.3342 -1.3164
   73SLPC  C213 6448   4.374   3.391   9.355 -0.1906  0.4999 -0.1430
   73SLPC  H13R 6449   4.353   3.316   9.277  1.7084  1.1510 -1.3341
   73SLPC  C214 6450   4.515   3.441   9.336  0.1628  0.4350 -0.2614
   73SLPC  H14R 6451   4.543   3.526   9.401 -0.6364  1.0701 -0.7287
   73SLPC  H14S 6452   4.529   3.473   9.231  0.9316 -0.4105 -0.4347
   73SLPC  C215 6453   4.612   3.325   9.369  0.2224 -0.4429  0.7248
   73SLPC  H15R 6454   4.603   3.296   9.476  1.1134  2.0036  1.5289
   73SLPC  H15S 6455   4.714   3.368   9.363  0.7158 -1.4452  1.5824
   73SLPC  C216 6456   4.606   3.207   9.267  0.3048  0.3936 -0.1682
   73SLPC  H16R 6457   4.593   3.224   9.158 -0.4925 -0.5393 -0.2346
   73SLPC  H16S 6458   4.526   3.137   9.299  2.3997 -1.8523  0.4258
   73SLPC  C217 6459   4.721   3.117   9.291  0.3600 -0.8674  0.2668
   73SLPC  H17R 6460   4.725   3.099   9.401 -1.1487 -0.5452  0.3994
   73SLPC  H17S 6461   4.823   3.154   9.266  0.0445  0.9042  1.4033
   73SLPC  C218 6462   4.700   2.968   9.252  0.7747 -0.5574 -0.0824
   73SLPC  H18R 6463   4.628   2.925   9.325 -0.2762  0.9431 -0.1783
   73SLPC  H18S 6464   4.789   2.903   9.263  0.5050 -0.8910  0.1454
   73SLPC  H18T 6465   4.662   2.963   9.147  0.7423  1.2051 -0.1809
   73SLPC   C33 6466   4.585   3.280   9.999 -0.2781 -0.0687 -0.2481
   73SLPC   H3X 6467   4.638   3.188   9.967 -1.2277 -1.6747  2.5006
   73SLPC   H3Y 6468   4.646   3.316  10.085  0.3942 -2.0590  0.1580
   73SLPC   C34 6469   4.584   3.381   9.883 -0.0187  0.4038 -0.7597
   73SLPC   H4X 6470   4.511   3.463   9.895 -1.1646 -0.4674 -1.6060
   73SLPC   H4Y 6471   4.547   3.323   9.796 -0.8759 -2.2449  1.2611
   73SLPC   C35 6472   4.728   3.436   9.862 -0.7269 -0.0762 -0.1021
   73SLPC   H5X 6473   4.786   3.440   9.957 -0.0354  1.5966 -0.5611
   73SLPC   H5Y 6474   4.716   3.539   9.824 -0.0703  0.1710  0.3357
   73SLPC   C36 6475   4.822   3.365   9.763  0.3144 -0.9396 -0.0458
   73SLPC   H6X 6476   4.771   3.357   9.665  0.8991  0.2583 -0.4619
   73SLPC   H6Y 6477   4.841   3.263   9.805 -1.3991 -0.3153  2.4744
   73SLPC   C37 6478   4.958   3.438   9.753  0.2418 -0.1061 -0.6157
   73SLPC   H7X 6479   5.025   3.383   9.684  0.8603  2.8050 -2.5064
   73SLPC   H7Y 6480   5.005   3.448   9.853  1.7085  1.4626 -1.4167
   73SLPC   C38 6481   4.958   3.582   9.702  0.2263  0.2406  0.3665
   73SLPC   H8X 6482   5.061   3.622   9.713 -1.3295  4.6211  1.0576
   73SLPC   H8Y 6483   4.899   3.632   9.782  0.5652 -0.9097  1.3628
   73SLPC   C39 6484   4.895   3.610   9.564 -0.2939  0.3670 -0.5492
   73SLPC   H9X 6485   4.870   3.717   9.549 -2.6490  0.1790  1.3937
   73SLPC   H9Y 6486   4.801   3.551   9.567 -0.4493  0.6242  2.2087
   73SLPC  C310 6487   4.991   3.552   9.456  0.1036 -0.0758 -0.2320
   73SLPC  H10X 6488   4.990   3.443   9.472 -0.4229 -0.1387 -0.6715
   73SLPC  H10Y 6489   5.091   3.602   9.458  0.6365 -0.7590 -3.3902
   73SLPC  C311 6490   4.959   3.579   9.304 -0.4623  0.3586  0.0203
   73SLPC  H11X 6491   4.987   3.683   9.277 -0.1152 -0.1599 -1.7546
   73SLPC  H11Y 6492   4.854   3.561   9.272  0.2380  0.1264 -2.3779
   73SLPC  C312 6493   5.045   3.501   9.200 -0.1610  0.1621 -0.0305
   73SLPC  H12X 6494   5.010   3.396   9.187  1.2833 -0.0923 -2.5092
   73SLPC  H12Y 6495   5.151   3.495   9.232 -0.7307 -0.9162  1.7975
   73SLPC  C313 6496   5.032   3.574   9.065 -0.0829  0.1760 -0.3809
   73SLPC  H13X 6497   5.091   3.668   9.076  1.1617 -0.4738 -1.2807
   73SLPC  H13Y 6498   4.927   3.606   9.049 -0.0049 -0.4209 -2.3142
   73SLPC  C314 6499   5.094   3.510   8.934  0.1556 -0.0798  0.2327
   73SLPC  H14X 6500   5.205   3.511   8.941  0.2439 -0.4941 -0.8166
   73SLPC  H14Y 6501   5.066   3.574   8.848  1.3743 -0.6201 -0.5962
   73SLPC  C315 6502   5.043   3.362   8.918 -0.2751 -0.1725  0.3139
   73SLPC  H15X 6503   4.932   3.372   8.912 -0.2696  0.3910  1.0072
   73SLPC  H15Y 6504   5.074   3.304   9.007  2.9793  0.3860 -0.3361
   73SLPC  C316 6505   5.120   3.290   8.796 -0.7899  0.0925 -0.0082
   73SLPC  H16X 6506   5.080   3.187   8.785  2.2082 -1.6986  3.6861
   73SLPC  H16Y 6507   5.225   3.266   8.824 -0.3040 -1.6640 -2.9875
   73SLPC  C317 6508   5.117   3.367   8.665  0.3307 -1.4618  0.4194
   73SLPC  H17X 6509   5.189   3.316   8.597  1.8764  1.2096 -0.0864
   73SLPC  H17Y 6510   5.168   3.465   8.676 -0.8004 -0.8945  0.7723
   73SLPC  C318 6511   4.989   3.376   8.579  0.1822 -0.5004 -0.4511
   73SLPC  H18X 6512   4.892   3.389   8.630  0.1073  1.2102 -0.9660
   73SLPC  H18Y 6513   4.975   3.284   8.518 -0.6767  0.2977 -1.4908
   73SLPC  H18Z 6514   4.992   3.454   8.499  1.4356 -1.2465 -1.1614
   74SLPC     N 6515   6.317   4.479  10.735 -0.3694  0.3588  0.1600
   74SLPC   C13 6516   6.241   4.608  10.766 -1.1230  0.1175 -0.0762
   74SLPC  H13A 6517   6.188   4.604  10.860  2.7400 -0.6373  2.2593
   74SLPC  H13B 6518   6.306   4.694  10.768 -0.6709 -0.2408  0.9242
   74SLPC  H13C 6519   6.169   4.617  10.685  1.5832 -1.8272 -2.9358
   74SLPC   C14 6520   6.227   4.361  10.758 -0.0244 -0.2136  0.3005
   74SLPC  H14A 6521   6.195   4.349  10.860 -1.4547  2.8000  0.3128
   74SLPC  H14B 6522   6.133   4.367  10.704  0.5975  1.1420 -0.6906
   74SLPC  H14C 6523   6.273   4.266  10.734  1.4367  0.0953  1.7030
   74SLPC   C15 6524   6.436   4.477  10.831  0.0370 -0.6428  0.2327
   74SLPC  H15A 6525   6.511   4.555  10.822  0.6075 -1.3003 -0.8174
   74SLPC  H15B 6526   6.406   4.468  10.934 -0.3073 -2.7019 -0.0112
   74SLPC  H15C 6527   6.491   4.386  10.818  1.0369  0.0711 -0.7003
   74SLPC   C12 6528   6.373   4.471  10.591 -0.3331 -0.5729  0.1493
   74SLPC  H12A 6529   6.443   4.389  10.584 -0.6235 -0.7841 -0.3153
   74SLPC  H12B 6530   6.431   4.561  10.578 -0.1817 -0.6168  0.4941
   74SLPC   C11 6531   6.265   4.451  10.476 -0.1620  0.0143 -0.4990
   74SLPC  H11A 6532   6.226   4.347  10.486 -0.9108  0.4705  1.8937
   74SLPC  H11B 6533   6.330   4.444  10.387  1.6624  0.8042  0.7041
   74SLPC     P 6534   6.201   4.692  10.416 -0.1993  0.2498  0.4720
   74SLPC   O13 6535   6.101   4.799  10.463 -0.2398 -0.2219  0.5810
   74SLPC   O14 6536   6.338   4.728  10.456  0.4713 -0.1016  0.2600
   74SLPC   O12 6537   6.157   4.547  10.467 -0.1719 -0.1272 -0.4894
   74SLPC   O11 6538   6.194   4.670  10.262  0.9473  0.1592 -0.8950
   74SLPC    C1 6539   6.079   4.615  10.193  0.1363  0.5799 -0.2733
   74SLPC    HA 6540   6.078   4.507  10.219  2.9331  0.2417 -1.1354
   74SLPC    HB 6541   5.989   4.664  10.235 -1.6410 -0.4027 -2.6739
   74SLPC    C2 6542   6.078   4.635  10.042  0.2527 -0.0875  0.0578
   74SLPC    HS 6543   5.984   4.583  10.013  0.8228 -0.4173 -1.2850
   74SLPC   O21 6544   6.197   4.574   9.979  0.4305  0.7737  0.3445
   74SLPC   C21 6545   6.175   4.522   9.860  0.0589  0.5290  0.8636
   74SLPC   O22 6546   6.063   4.505   9.809 -0.1073 -0.1132 -0.3092
   74SLPC   C22 6547   6.297   4.468   9.802  0.1949  0.4596  0.6375
   74SLPC   H2R 6548   6.387   4.528   9.828 -0.5733  0.6011  3.1868
   74SLPC   H2S 6549   6.322   4.373   9.853 -1.3110 -0.1403  0.3077
   74SLPC    C3 6550   6.066   4.788  10.000 -0.7953  0.0387 -0.4527
   74SLPC    HX 6551   6.155   4.841  10.042 -1.7750  0.7079  0.8233
   74SLPC    HY 6552   5.979   4.832  10.052 -0.1260 -1.1224  1.7979
   74SLPC   O31 6553   6.072   4.806   9.861 -0.2701 -0.8762 -0.2373
   74SLPC   C31 6554   5.951   4.816   9.805 -0.0211  0.6810  0.3191
   74SLPC   O32 6555   5.845   4.807   9.864 -0.2233 -0.0180  0.4846
   74SLPC   C32 6556   5.958   4.836   9.648  0.2550 -0.1275 -0.2862
   74SLPC   H2X 6557   6.007   4.935   9.633  1.1504 -0.7254 -1.3991
   74SLPC   H2Y 6558   5.857   4.837   9.602  0.2779 -1.1248 -0.3650
   74SLPC   C23 6559   6.283   4.433   9.644  0.5577  0.5133 -0.1890
   74SLPC   H3R 6560   6.288   4.529   9.588 -0.4707 -1.4071 -3.9464
   74SLPC   H3S 6561   6.188   4.385   9.615  1.6559 -1.6108 -0.4832
   74SLPC   C24 6562   6.392   4.339   9.585 -0.3032 -0.1273  1.1889
   74SLPC   H4R 6563   6.387   4.243   9.640 -0.7165 -0.2126  1.0081
   74SLPC   H4S 6564   6.492   4.376   9.616 -0.7094  0.4385  1.8653
   74SLPC   C25 6565   6.389   4.320   9.436 -0.5801 -0.1867  0.0006
   74SLPC   H5R 6566   6.280   4.318   9.415 -0.4876  0.8280 -0.6793
   74SLPC   H5S 6567   6.446   4.228   9.412  1.1850  0.9329 -0.3167
   74SLPC   C26 6568   6.457   4.444   9.362 -0.0960  0.4521 -0.0626
   74SLPC   H6R 6569   6.564   4.424   9.339 -0.6455 -0.3924 -2.0787
   74SLPC   H6S 6570   6.448   4.531   9.431 -0.9242  0.4778 -0.1922
   74SLPC   C27 6571   6.379   4.480   9.231  0.2831  0.8231 -0.1886
   74SLPC   H7R 6572   6.278   4.505   9.271  0.1326 -0.3665  0.2167
   74SLPC   H7S 6573   6.373   4.385   9.175 -1.1430  0.2271  0.9055
   74SLPC   C28 6574   6.440   4.592   9.149 -0.1753  0.1380 -0.6760
   74SLPC   H8R 6575   6.541   4.546   9.143  0.0517  0.3920  0.8891
   74SLPC   H8S 6576   6.446   4.678   9.219 -0.0423 -0.0865 -0.4069
   74SLPC   C29 6577   6.374   4.621   9.016  0.3365  0.0293  0.5212
   74SLPC   H9R 6578   6.264   4.616   9.015  0.2985 -1.6236  3.0704
   74SLPC  C210 6579   6.429   4.635   8.895  0.1443 -0.8162  0.2833
   74SLPC  H10R 6580   6.361   4.635   8.809  1.3946  0.9322 -0.7666
   74SLPC  C211 6581   6.580   4.634   8.868 -0.2299 -0.3942 -0.2423
   74SLPC  H11R 6582   6.634   4.641   8.965  1.9789  0.7264 -1.4661
   74SLPC  H11S 6583   6.602   4.723   8.804  0.4552 -1.3544 -1.3676
   74SLPC  C212 6584   6.637   4.512   8.799  0.0349  0.3930 -0.1470
   74SLPC  H12R 6585   6.615   4.421   8.856 -1.0670  0.2356 -0.7880
   74SLPC  C213 6586   6.686   4.499   8.667 -0.2750 -0.2314  0.1165
   74SLPC  H13R 6587   6.735   4.414   8.619  0.0943  0.9543 -1.7102
   74SLPC  C214 6588   6.695   4.607   8.562  0.0402 -0.1183 -0.1694
   74SLPC  H14R 6589   6.799   4.623   8.527  0.0434  0.3901  0.0607
   74SLPC  H14S 6590   6.667   4.705   8.608  0.1279  0.2332 -0.8518
   74SLPC  C215 6591   6.611   4.585   8.436  0.1842 -0.0791  0.5583
   74SLPC  H15R 6592   6.638   4.484   8.397  0.2842  0.1278  0.0889
   74SLPC  H15S 6593   6.623   4.663   8.358 -1.9457  1.0577  1.2895
   74SLPC  C216 6594   6.457   4.570   8.447  0.0286 -0.0034  0.3040
   74SLPC  H16R 6595   6.411   4.635   8.525  1.4214  0.8569  0.4631
   74SLPC  H16S 6596   6.439   4.465   8.477 -0.7748 -0.3468 -1.2930
   74SLPC  C217 6597   6.383   4.620   8.324 -0.2575 -0.1191  1.0344
   74SLPC  H17R 6598   6.425   4.717   8.290 -1.5152  0.2845  0.5497
   74SLPC  H17S 6599   6.273   4.619   8.339 -0.1312  0.0586  2.0278
   74SLPC  C218 6600   6.399   4.521   8.202 -0.3076  0.2740  0.4130
   74SLPC  H18R 6601   6.417   4.424   8.252  0.7205 -0.0008 -0.4611
   74SLPC  H18S 6602   6.485   4.546   8.136 -1.7863 -1.2476 -2.3004
   74SLPC  H18T 6603   6.307   4.516   8.139 -0.6056  3.5349  0.4073
   74SLPC   C33 6604   6.052   4.735   9.578 -0.0716 -0.4255  0.5043
   74SLPC   H3X 6605   5.993   4.643   9.601 -0.0931 -0.1617  1.5974
   74SLPC   H3Y 6606   6.148   4.718   9.630  0.9552 -1.9641 -1.7887
   74SLPC   C34 6607   6.072   4.759   9.430 -0.3646  0.7611  0.0799
   74SLPC   H4X 6608   5.975   4.800   9.393 -0.3232  0.7563 -0.0354
   74SLPC   H4Y 6609   6.101   4.666   9.376  1.1877  0.5988  1.1599
   74SLPC   C35 6610   6.189   4.858   9.404  0.9469  0.1079 -0.4092
   74SLPC   H5X 6611   6.282   4.804   9.434  0.8137 -0.4186 -0.9357
   74SLPC   H5Y 6612   6.191   4.949   9.468  3.4693 -0.9007  1.1232
   74SLPC   C36 6613   6.191   4.911   9.260 -0.2607 -0.5675 -0.0011
   74SLPC   H6X 6614   6.212   4.833   9.183 -0.1802  0.7293 -1.3332
   74SLPC   H6Y 6615   6.284   4.971   9.264 -0.4256 -0.3102 -0.0092
   74SLPC   C37 6616   6.070   4.995   9.218  0.4106  0.4536 -0.1857
   74SLPC   H7X 6617   6.054   5.077   9.291  1.3972 -0.0164  0.5680
   74SLPC   H7Y 6618   5.981   4.928   9.217 -0.2202  1.2718 -0.8958
   74SLPC   C38 6619   6.086   5.065   9.083 -0.0899 -0.0598 -0.2469
   74SLPC   H8X 6620   6.173   5.134   9.084  0.9542 -1.3271 -0.7680
   74SLPC   H8Y 6621   6.004   5.138   9.068 -1.1744 -0.8077  1.6932
   74SLPC   C39 6622   6.089   4.970   8.961 -0.1591 -0.3255 -0.0830
   74SLPC   H9X 6623   6.040   4.870   8.969  3.1191 -2.1640 -0.9857
   74SLPC   H9Y 6624   6.198   4.947   8.959  0.1326  0.9132  0.4112
   74SLPC  C310 6625   6.048   5.036   8.828  0.3158 -0.0978  0.0857
   74SLPC  H10X 6626   6.135   5.097   8.797 -0.8641  2.3513  1.2971
   74SLPC  H10Y 6627   5.956   5.097   8.845  1.0082  1.8803 -2.6096
   74SLPC  C311 6628   5.992   4.933   8.728  0.0771  0.0021  0.2836
   74SLPC  H11X 6629   5.982   4.981   8.629 -1.4046  0.2910  0.5572
   74SLPC  H11Y 6630   5.893   4.899   8.765  1.6600 -2.8689  2.2855
   74SLPC  C312 6631   6.081   4.802   8.703 -0.2696 -0.0169  0.3648
   74SLPC  H12X 6632   6.122   4.787   8.805  0.4909  0.5967  0.1541
   74SLPC  H12Y 6633   6.162   4.828   8.632 -0.1913  0.0352  0.4735
   74SLPC  C313 6634   6.005   4.675   8.654  0.3118 -0.4935  0.9403
   74SLPC  H13X 6635   5.961   4.692   8.554 -0.6029 -1.5124  1.1463
   74SLPC  H13Y 6636   5.929   4.642   8.728  1.2186  0.2567  2.2581
   74SLPC  C314 6637   6.084   4.547   8.628 -0.8129  0.0737 -0.1079
   74SLPC  H14X 6638   6.102   4.500   8.727  0.1090  0.5847 -0.0233
   74SLPC  H14Y 6639   6.176   4.565   8.568 -1.8184  1.3884 -1.3097
   74SLPC  C315 6640   5.999   4.447   8.548 -0.3850 -0.1793  0.0422
   74SLPC  H15X 6641   6.061   4.362   8.513  2.0204  0.6919  1.8609
   74SLPC  H15Y 6642   5.965   4.498   8.456 -1.8797 -2.8544 -0.9870
   74SLPC  C316 6643   5.870   4.398   8.622  0.5197 -0.5190 -0.3821
   74SLPC  H16X 6644   5.812   4.490   8.643  1.7831  0.1141  0.5018
   74SLPC  H16Y 6645   5.900   4.354   8.720  0.8582  0.4216 -0.0456
   74SLPC  C317 6646   5.794   4.290   8.559  0.0049  0.0399  0.2653
   74SLPC  H17X 6647   5.747   4.334   8.468  0.9263 -0.5420 -0.5150
   74SLPC  H17Y 6648   5.711   4.258   8.626  1.3131 -2.4126  0.8357
   74SLPC  C318 6649   5.876   4.173   8.519  0.7240 -0.6619 -0.2656
   74SLPC  H18X 6650   5.821   4.088   8.474 -0.4616 -1.0574  1.8282
   74SLPC  H18Y 6651   5.939   4.129   8.599  1.2248 -1.5941 -1.1586
   74SLPC  H18Z 6652   5.944   4.205   8.436  0.5421 -1.4142 -0.7089
   75SLPC     N 6653   4.442   0.361   6.530  0.1492  0.1248 -0.0828
   75SLPC   C13 6654   4.447   0.215   6.489 -0.0059  0.1678  0.2111
   75SLPC  H13A 6655   4.470   0.151   6.574 -1.2600 -0.1110  0.3605
   75SLPC  H13B 6656   4.352   0.172   6.461  0.3785 -0.8683  0.4221
   75SLPC  H13C 6657   4.511   0.187   6.407 -1.7589 -0.8849 -0.8635
   75SLPC   C14 6658   4.412   0.450   6.413  0.1789  0.3168 -0.8636
   75SLPC  H14A 6659   4.435   0.551   6.442  1.1557 -0.4202  1.1350
   75SLPC  H14B 6660   4.477   0.423   6.330 -0.5534 -0.6265 -1.1534
   75SLPC  H14C 6661   4.313   0.444   6.371  0.5876  1.0086 -1.9707
   75SLPC   C15 6662   4.589   0.388   6.568  0.5937  0.5084 -1.0483
   75SLPC  H15A 6663   4.645   0.413   6.480  0.9154  0.4136 -0.8730
   75SLPC  H15B 6664   4.588   0.478   6.628 -1.6055 -0.8251  1.1176
   75SLPC  H15C 6665   4.632   0.302   6.617 -0.1641 -0.6401 -2.3259
   75SLPC   C12 6666   4.354   0.369   6.650 -0.6581  0.5589  0.1874
   75SLPC  H12A 6667   4.327   0.473   6.659 -0.4366  0.6585 -0.2355
   75SLPC  H12B 6668   4.402   0.340   6.742 -1.7189 -0.7141  0.3636
   75SLPC   C11 6669   4.217   0.302   6.645  0.5814  0.3610 -0.2104
   75SLPC  H11A 6670   4.163   0.323   6.740 -0.9139 -2.7473 -0.2444
   75SLPC  H11B 6671   4.224   0.191   6.650 -0.8622  0.2943  1.1206
   75SLPC     P 6672   4.063   0.486   6.536 -0.3655  0.0461 -0.1157
   75SLPC   O13 6673   4.095   0.558   6.411 -0.0273  0.0220  0.1099
   75SLPC   O14 6674   3.920   0.463   6.571 -0.2837  0.1301 -0.3004
   75SLPC   O12 6675   4.144   0.351   6.534  0.2818 -0.3984  0.2862
   75SLPC   O11 6676   4.135   0.561   6.657  0.0694 -0.0647 -0.0596
   75SLPC    C1 6677   4.121   0.699   6.677 -0.9581 -0.4805 -0.4473
   75SLPC    HA 6678   4.163   0.749   6.587  0.5133 -0.7549  0.0597
   75SLPC    HB 6679   4.013   0.727   6.681 -0.2752  2.6073 -0.8196
   75SLPC    C2 6680   4.178   0.741   6.817 -0.3504 -0.6072  0.6086
   75SLPC    HS 6681   4.289   0.734   6.816 -0.2753  0.4782  0.3211
   75SLPC   O21 6682   4.126   0.652   6.913  0.0185  0.0196  0.2689
   75SLPC   C21 6683   4.199   0.627   7.017 -0.0014 -0.1146  0.8353
   75SLPC   O22 6684   4.317   0.649   7.029 -0.5142 -0.1031  0.0870
   75SLPC   C22 6685   4.119   0.546   7.118  0.2348 -0.0197 -1.0846
   75SLPC   H2R 6686   4.011   0.549   7.090 -0.3101  2.0664  0.9526
   75SLPC   H2S 6687   4.151   0.440   7.114 -0.2171 -0.2035 -0.1444
   75SLPC    C3 6688   4.146   0.884   6.853 -0.3892  0.2016 -0.5825
   75SLPC    HX 6689   4.035   0.896   6.852 -0.4870  0.7033  2.9417
   75SLPC    HY 6690   4.183   0.949   6.771  2.6733 -1.4816 -0.6746
   75SLPC   O31 6691   4.200   0.938   6.981  0.0716  0.0846 -0.3763
   75SLPC   C31 6692   4.330   0.976   6.972  0.9350  1.0127 -0.6378
   75SLPC   O32 6693   4.402   0.948   6.881  0.0410 -0.2061  0.4948
   75SLPC   C32 6694   4.365   1.072   7.087 -0.4399  0.3406 -0.5625
   75SLPC   H2X 6695   4.299   1.162   7.085 -1.3130 -0.2928 -1.0602
   75SLPC   H2Y 6696   4.466   1.101   7.050 -0.3871 -0.2005 -0.8470
   75SLPC   C23 6697   4.134   0.572   7.271 -0.0775  0.3169  0.4165
   75SLPC   H3R 6698   4.242   0.577   7.298 -0.0081  0.4510  0.1277
   75SLPC   H3S 6699   4.084   0.482   7.312  1.3508 -0.7896 -0.1735
   75SLPC   C24 6700   4.061   0.701   7.309  0.3493  0.0212  0.3571
   75SLPC   H4R 6701   3.952   0.690   7.291  0.2717 -0.5379  1.1564
   75SLPC   H4S 6702   4.101   0.786   7.250  1.4217 -1.7573 -1.6132
   75SLPC   C25 6703   4.081   0.745   7.458 -0.0695 -0.4224 -0.2649
   75SLPC   H5R 6704   4.029   0.841   7.479  1.7512  1.3255 -3.0632
   75SLPC   H5S 6705   4.190   0.761   7.470  0.0746 -1.7894  0.4715
   75SLPC   C26 6706   4.049   0.638   7.565 -0.3905 -0.3344 -0.3586
   75SLPC   H6R 6707   4.086   0.538   7.531  1.4604 -0.0849  0.7382
   75SLPC   H6S 6708   3.939   0.636   7.577 -0.3647  2.9079  1.7167
   75SLPC   C27 6709   4.113   0.670   7.699  0.0590 -0.7738  0.0821
   75SLPC   H7R 6710   4.070   0.766   7.736 -1.1562 -0.6160 -1.5937
   75SLPC   H7S 6711   4.220   0.688   7.677  0.5854 -3.4868  0.0576
   75SLPC   C28 6712   4.114   0.576   7.813  0.3423  0.3268  0.8449
   75SLPC   H8R 6713   4.201   0.615   7.870  0.7308  1.1352 -0.2607
   75SLPC   H8S 6714   4.138   0.472   7.781  0.5550  0.0484  1.8722
   75SLPC   C29 6715   3.995   0.563   7.903  0.2213 -0.2571  0.2832
   75SLPC   H9R 6716   3.940   0.468   7.894 -1.2374  0.6726 -0.9630
   75SLPC  C210 6717   3.961   0.647   8.002 -0.3470 -0.1718 -0.2063
   75SLPC  H10R 6718   3.876   0.615   8.065  1.5917 -2.4495  1.4643
   75SLPC  C211 6719   4.032   0.764   8.046 -0.2957 -0.0100 -0.6154
   75SLPC  H11R 6720   4.117   0.767   7.975 -0.7019 -0.6565 -1.1427
   75SLPC  H11S 6721   4.082   0.728   8.139  2.1094 -0.5797 -2.0425
   75SLPC  C212 6722   3.961   0.895   8.053  0.2021 -0.4763 -0.2583
   75SLPC  H12R 6723   3.908   0.931   7.965 -1.3857 -0.7984  0.5292
   75SLPC  C213 6724   3.956   0.976   8.162 -0.1760  0.1455 -0.8837
   75SLPC  H13R 6725   3.898   1.066   8.139 -2.3464 -1.0527 -0.4204
   75SLPC  C214 6726   4.010   0.950   8.301  0.4921  0.6689 -0.1395
   75SLPC  H14R 6727   4.035   1.041   8.359 -2.4127  2.0190 -0.7842
   75SLPC  H14S 6728   4.107   0.897   8.297 -0.6314 -1.5217 -0.1557
   75SLPC  C215 6729   3.899   0.865   8.372 -0.0894 -0.1413  0.1109
   75SLPC  H15R 6730   3.863   0.779   8.312 -0.8934 -0.9228  1.6411
   75SLPC  H15S 6731   3.808   0.928   8.385  0.5310  0.4155  2.0929
   75SLPC  C216 6732   3.924   0.799   8.511  0.3644 -0.4374  0.1205
   75SLPC  H16R 6733   3.823   0.772   8.547  0.8118  0.6183  2.3505
   75SLPC  H16S 6734   3.963   0.877   8.581  0.0086  0.9779 -1.2243
   75SLPC  C217 6735   4.027   0.679   8.511 -0.7691  0.3260  0.2877
   75SLPC  H17R 6736   4.128   0.711   8.478 -1.6293 -0.1221 -3.1767
   75SLPC  H17S 6737   4.004   0.620   8.419  1.0854 -1.1183  0.6790
   75SLPC  C218 6738   4.023   0.598   8.640 -0.8404 -0.0882  0.1835
   75SLPC  H18R 6739   4.090   0.511   8.628  0.2825  0.6312  1.0701
   75SLPC  H18S 6740   3.918   0.569   8.664 -0.6639  1.4293  3.1614
   75SLPC  H18T 6741   4.071   0.655   8.723  0.3062  1.1541 -1.2648
   75SLPC   C33 6742   4.368   1.001   7.223  0.5713 -0.0813  0.9179
   75SLPC   H3X 6743   4.271   0.950   7.241 -0.2985  0.3480 -1.9905
   75SLPC   H3Y 6744   4.442   0.919   7.233  0.2296 -0.1990  2.7504
   75SLPC   C34 6745   4.396   1.104   7.337  0.6962 -0.3670 -0.3496
   75SLPC   H4X 6746   4.335   1.195   7.318  2.6799  0.4577 -3.4103
   75SLPC   H4Y 6747   4.500   1.144   7.342  0.6758 -0.0163 -2.1411
   75SLPC   C35 6748   4.355   1.049   7.471 -0.4119 -1.1623 -0.2341
   75SLPC   H5X 6749   4.390   0.945   7.485  0.4744 -0.8676 -0.1915
   75SLPC   H5Y 6750   4.245   1.033   7.483 -0.1734 -2.3551  0.5446
   75SLPC   C36 6751   4.407   1.140   7.589 -0.1496 -0.0516  1.3839
   75SLPC   H6X 6752   4.386   1.248   7.571  0.9413  0.0204  0.4507
   75SLPC   H6Y 6753   4.518   1.133   7.589 -0.0268  1.0216 -0.5475
   75SLPC   C37 6754   4.358   1.117   7.731 -0.1840  0.3183  0.5216
   75SLPC   H7X 6755   4.247   1.121   7.724 -0.2789 -1.3542  0.7094
   75SLPC   H7Y 6756   4.399   1.191   7.804  0.4890 -1.2270  1.7753
   75SLPC   C38 6757   4.411   0.980   7.793  0.3922 -0.3437  0.2235
   75SLPC   H8X 6758   4.517   0.971   7.760  0.2790 -1.2543  0.0706
   75SLPC   H8Y 6759   4.353   0.893   7.755 -0.7747 -0.8104  2.8452
   75SLPC   C39 6760   4.395   0.969   7.945 -0.2366  0.5839 -0.2289
   75SLPC   H9X 6761   4.296   1.005   7.978  0.0536  1.8743 -0.6904
   75SLPC   H9Y 6762   4.462   1.051   7.979  3.8682 -2.8999  1.0405
   75SLPC  C310 6763   4.416   0.827   8.003 -0.0778  0.1379  0.5390
   75SLPC  H10X 6764   4.508   0.773   7.974 -0.9383 -1.6533  1.0161
   75SLPC  H10Y 6765   4.339   0.756   7.963  0.1185 -0.4834  1.2414
   75SLPC  C311 6766   4.404   0.831   8.153  0.6572 -0.5515 -0.3923
   75SLPC  H11X 6767   4.311   0.888   8.177  0.7537 -0.7107  0.3798
   75SLPC  H11Y 6768   4.486   0.894   8.194  0.7146 -1.3073  0.6920
   75SLPC  C312 6769   4.410   0.690   8.209  0.4356 -0.1806 -0.2672
   75SLPC  H12X 6770   4.502   0.646   8.165  0.5728 -1.0224  0.8281
   75SLPC  H12Y 6771   4.319   0.641   8.169  1.6477 -2.8751  0.1085
   75SLPC  C313 6772   4.415   0.686   8.363 -0.0914 -0.1317 -0.0623
   75SLPC  H13X 6773   4.333   0.751   8.401  0.8129  2.2244 -1.8963
   75SLPC  H13Y 6774   4.512   0.726   8.397 -1.0582  1.0568  1.4274
   75SLPC  C314 6775   4.405   0.544   8.423  0.7431  0.2285  0.4508
   75SLPC  H14X 6776   4.487   0.489   8.372  1.4996  2.6510 -1.0701
   75SLPC  H14Y 6777   4.305   0.498   8.410  1.0456 -1.3300  2.9203
   75SLPC  C315 6778   4.413   0.555   8.574  0.6298 -0.0498  0.3879
   75SLPC  H15X 6779   4.328   0.611   8.618  0.0167 -1.7508  1.5061
   75SLPC  H15Y 6780   4.505   0.609   8.604  0.4481 -0.8217  2.5220
   75SLPC  C316 6781   4.411   0.415   8.642  0.3723 -0.8853 -0.2886
   75SLPC  H16X 6782   4.320   0.360   8.611 -0.8446  0.1020  1.3962
   75SLPC  H16Y 6783   4.397   0.437   8.750 -0.1206  0.4307 -0.6093
   75SLPC  C317 6784   4.544   0.334   8.630 -0.1331  0.5672 -0.5921
   75SLPC  H17X 6785   4.634   0.394   8.659  1.2205 -2.8029  2.9896
   75SLPC  H17Y 6786   4.557   0.290   8.529  0.2360  0.2880 -0.4264
   75SLPC  C318 6787   4.547   0.216   8.733 -0.1348  0.1399  0.1809
   75SLPC  H18X 6788   4.640   0.156   8.718  1.5303  2.3370  1.1129
   75SLPC  H18Y 6789   4.457   0.152   8.731 -0.9861  1.2201  1.9275
   75SLPC  H18Z 6790   4.545   0.256   8.837  0.6521 -0.3235  0.3861
   76SLPC     N 6791   6.317   4.371   5.989  0.6565 -0.1825 -0.5783
   76SLPC   C13 6792   6.409   4.443   5.902 -0.1689 -0.2214 -0.0416
   76SLPC  H13A 6793   6.362   4.535   5.871 -0.0847  0.3196  1.3574
   76SLPC  H13B 6794   6.499   4.482   5.947 -1.1379  0.2172  1.6184
   76SLPC  H13C 6795   6.446   4.392   5.814  1.7132  0.8562  0.0679
   76SLPC   C14 6796   6.382   4.239   6.012  0.0216 -0.7237 -0.0671
   76SLPC  H14A 6797   6.423   4.191   5.924  1.1969 -0.0629  0.0957
   76SLPC  H14B 6798   6.467   4.252   6.078 -0.0726  0.1665 -0.0998
   76SLPC  H14C 6799   6.309   4.176   6.060 -0.1805  0.1855  0.8665
   76SLPC   C15 6800   6.185   4.348   5.928  0.1804 -0.0201 -0.8775
   76SLPC  H15A 6801   6.128   4.439   5.921 -1.1317 -0.7782 -0.4694
   76SLPC  H15B 6802   6.206   4.306   5.830  2.2763  0.8428 -0.8556
   76SLPC  H15C 6803   6.123   4.287   5.991 -0.1864  2.3992  1.2577
   76SLPC   C12 6804   6.281   4.441   6.123  0.3138  0.7412 -0.1578
   76SLPC  H12A 6805   6.199   4.388   6.168  2.3702 -1.1064  1.6581
   76SLPC  H12B 6806   6.236   4.536   6.099 -0.3666  0.4246 -0.1414
   76SLPC   C11 6807   6.382   4.456   6.235 -0.0532  0.1015  0.4983
   76SLPC  H11A 6808   6.424   4.357   6.261  0.1271  0.4901  1.7385
   76SLPC  H11B 6809   6.335   4.489   6.330  2.1335 -1.6872  2.3057
   76SLPC     P 6810   6.483   4.693   6.169 -0.3435 -0.1402  0.0375
   76SLPC   O13 6811   6.587   4.719   6.068 -0.3642 -0.1451 -0.0671
   76SLPC   O14 6812   6.342   4.736   6.150 -0.2290 -0.1741  0.2153
   76SLPC   O12 6813   6.488   4.539   6.198  0.5020 -0.5006 -0.0818
   76SLPC   O11 6814   6.528   4.753   6.305 -0.2565  0.2446 -0.3512
   76SLPC    C1 6815   6.657   4.765   6.366 -0.2107 -1.1606 -0.0150
   76SLPC    HA 6816   6.717   4.829   6.297 -0.1682 -0.8002  0.3520
   76SLPC    HB 6817   6.658   4.830   6.456  0.3242 -1.0729 -0.0756
   76SLPC    C2 6818   6.707   4.628   6.411 -0.0969  0.0992  0.4062
   76SLPC    HS 6819   6.700   4.559   6.324 -2.4921 -0.7503  1.2030
   76SLPC   O21 6820   6.623   4.582   6.517 -0.1857 -0.3537  0.0024
   76SLPC   C21 6821   6.610   4.453   6.525  0.4554 -0.3904 -0.2887
   76SLPC   O22 6822   6.656   4.368   6.453  0.3772 -0.3410  0.1312
   76SLPC   C22 6823   6.516   4.433   6.648  0.5659  0.1693  0.3738
   76SLPC   H2R 6824   6.525   4.522   6.714 -0.6040 -0.5555  1.5672
   76SLPC   H2S 6825   6.408   4.429   6.621  0.3313  2.8577  0.6364
   76SLPC    C3 6826   6.860   4.630   6.453  0.0184 -0.1662 -0.3664
   76SLPC    HX 6827   6.925   4.642   6.363 -1.0491 -3.2789 -1.6713
   76SLPC    HY 6828   6.889   4.532   6.496 -1.0484 -1.5221 -2.6133
   76SLPC   O31 6829   6.881   4.740   6.542 -0.2928 -0.4625  0.2807
   76SLPC   C31 6830   6.841   4.730   6.667 -0.2243 -0.1604  0.1043
   76SLPC   O32 6831   6.808   4.628   6.721  0.3174 -0.2233  0.4475
   76SLPC   C32 6832   6.842   4.864   6.735 -0.3431 -0.2876 -0.0053
   76SLPC   H2X 6833   6.802   4.848   6.838 -2.6748  2.4683 -0.3538
   76SLPC   H2Y 6834   6.771   4.933   6.685  1.1400  0.4248 -1.2027
   76SLPC   C23 6835   6.541   4.302   6.722 -0.3271 -0.1797  0.6286
   76SLPC   H3R 6836   6.636   4.319   6.778 -0.7943 -1.2565  1.8035
   76SLPC   H3S 6837   6.541   4.211   6.658 -0.0998 -0.3576  0.8786
   76SLPC   C24 6838   6.419   4.274   6.811  0.2326  0.4095 -0.3391
   76SLPC   H4R 6839   6.327   4.253   6.751  1.5833  1.1055 -2.7990
   76SLPC   H4S 6840   6.392   4.360   6.876 -0.3823  2.2825 -2.8909
   76SLPC   C25 6841   6.443   4.149   6.903 -1.4022 -0.3161 -0.1536
   76SLPC   H5R 6842   6.489   4.067   6.844  0.6349 -0.0519  0.9714
   76SLPC   H5S 6843   6.344   4.107   6.931 -0.7434 -2.2765 -0.6183
   76SLPC   C26 6844   6.531   4.166   7.030  0.6750 -0.1617  0.5761
   76SLPC   H6R 6845   6.617   4.231   7.004 -1.2700  1.7819 -1.5730
   76SLPC   H6S 6846   6.551   4.070   7.082 -0.7198 -1.5317 -1.2666
   76SLPC   C27 6847   6.452   4.250   7.134 -0.1860 -0.9029 -0.5274
   76SLPC   H7R 6848   6.353   4.200   7.148 -1.6829  1.9433 -0.3224
   76SLPC   H7S 6849   6.428   4.350   7.092 -1.2099 -1.0472 -0.3199
   76SLPC   C28 6850   6.517   4.265   7.275 -0.6152  0.3415  0.2208
   76SLPC   H8R 6851   6.623   4.296   7.261 -0.9064  1.5659  0.6456
   76SLPC   H8S 6852   6.459   4.337   7.336 -3.3415 -1.7760  0.3210
   76SLPC   C29 6853   6.512   4.131   7.352  0.2966 -0.0960  1.4800
   76SLPC   H9R 6854   6.411   4.101   7.386 -0.4778 -0.6704 -1.1283
   76SLPC  C210 6855   6.602   4.036   7.363 -0.3868 -0.1631  0.2790
   76SLPC  H10R 6856   6.584   3.939   7.411 -2.8759  0.3591  0.5201
   76SLPC  C211 6857   6.738   4.048   7.301  0.3108 -0.0613  0.2028
   76SLPC  H11R 6858   6.746   4.123   7.219 -0.0094  1.8887  1.8519
   76SLPC  H11S 6859   6.752   3.949   7.254 -2.1157 -0.6705  0.6231
   76SLPC  C212 6860   6.860   4.069   7.381 -0.3141  0.0365 -0.4950
   76SLPC  H12R 6861   6.861   4.137   7.468  1.7018 -0.1252 -0.3301
   76SLPC  C213 6862   6.973   4.001   7.362  0.0243  0.5355  0.5723
   76SLPC  H13R 6863   7.058   4.029   7.426  0.6041 -0.0337  0.0615
   76SLPC  C214 6864   7.003   3.891   7.270 -0.2786  0.0973  0.0328
   76SLPC  H14R 6865   6.930   3.886   7.186  1.1736  1.6214 -1.3897
   76SLPC  H14S 6866   6.984   3.796   7.325  0.3244 -0.7786 -1.1982
   76SLPC  C215 6867   7.148   3.899   7.213  0.3240 -0.4946 -0.8682
   76SLPC  H15R 6868   7.221   3.902   7.297 -0.4740  1.3622 -0.1776
   76SLPC  H15S 6869   7.173   3.989   7.154  1.6546  0.7093  1.3941
   76SLPC  C216 6870   7.159   3.778   7.117  0.0924  0.8543 -0.0848
   76SLPC  H16R 6871   7.142   3.681   7.169 -0.0130  0.4548 -0.8501
   76SLPC  H16S 6872   7.264   3.773   7.083 -0.3152 -1.0624 -1.2393
   76SLPC  C217 6873   7.074   3.767   6.985  0.4353 -0.6340  1.0807
   76SLPC  H17R 6874   7.086   3.849   6.911 -1.2036 -0.3080  1.1374
   76SLPC  H17S 6875   6.970   3.763   7.022 -0.1441 -1.4841 -0.5511
   76SLPC  C218 6876   7.084   3.638   6.907  0.7080 -0.2018  0.4413
   76SLPC  H18R 6877   7.184   3.613   6.864  0.5166 -0.7463  0.2938
   76SLPC  H18S 6878   7.011   3.644   6.824  0.7823 -1.4100  0.2566
   76SLPC  H18T 6879   7.044   3.559   6.975 -2.2166 -0.4956 -1.4295
   76SLPC   C33 6880   6.983   4.921   6.738 -0.1951 -0.3081 -0.7092
   76SLPC   H3X 6881   7.017   4.985   6.654  2.2049 -1.3945 -0.6454
   76SLPC   H3Y 6882   7.056   4.840   6.757 -1.7974 -1.4990  0.6359
   76SLPC   C34 6883   7.002   4.994   6.872  0.3530 -0.3963 -0.5029
   76SLPC   H4X 6884   6.948   4.939   6.952  0.9229 -0.1151  0.0747
   76SLPC   H4Y 6885   6.966   5.099   6.874 -0.1170 -0.5519 -0.5415
   76SLPC   C35 6886   7.150   5.006   6.912 -0.2895 -0.0963  0.3765
   76SLPC   H5X 6887   7.194   4.904   6.914 -0.7834 -0.5509 -3.7337
   76SLPC   H5Y 6888   7.170   5.038   7.017  1.2819  1.6546 -0.4017
   76SLPC   C36 6889   7.232   5.114   6.829  0.3613  0.0090  0.6820
   76SLPC   H6X 6890   7.187   5.214   6.845 -0.5431 -0.2214 -0.2634
   76SLPC   H6Y 6891   7.220   5.093   6.720  0.2391 -2.6353  1.1370
   76SLPC   C37 6892   7.388   5.107   6.851  0.1257  0.1158  0.1078
   76SLPC   H7X 6893   7.432   5.197   6.803  0.9315  1.4116  3.0256
   76SLPC   H7Y 6894   7.436   5.019   6.803  0.3148 -0.5254  1.4183
   76SLPC   C38 6895   7.416   5.106   7.007 -0.0605  0.3465  0.2674
   76SLPC   H8X 6896   7.525   5.088   7.017 -0.6129 -4.1399  0.3947
   76SLPC   H8Y 6897   7.380   5.010   7.050  2.7795 -1.8958 -1.9230
   76SLPC   C39 6898   7.363   5.227   7.087 -0.9142 -0.3766  0.4247
   76SLPC   H9X 6899   7.253   5.245   7.078 -0.6627  0.9351 -0.3595
   76SLPC   H9Y 6900   7.395   5.314   7.024 -1.5216  0.3442  1.0870
   76SLPC  C310 6901   7.394   5.235   7.236 -0.4599  0.6236  0.6596
   76SLPC  H10X 6902   7.502   5.210   7.234 -0.1514  1.7611  1.4811
   76SLPC  H10Y 6903   7.331   5.173   7.303 -1.3323  1.2017  0.4008
   76SLPC  C311 6904   7.388   5.379   7.282  0.1934  0.5527  0.0963
   76SLPC  H11X 6905   7.284   5.417   7.270 -0.0231  0.0290  0.2542
   76SLPC  H11Y 6906   7.454   5.438   7.215 -0.3101  3.6789  2.1728
   76SLPC  C312 6907   7.428   5.381   7.433  0.2202 -0.6764 -0.4045
   76SLPC  H12X 6908   7.458   5.485   7.458  0.8997 -1.0898  0.5911
   76SLPC  H12Y 6909   7.509   5.309   7.461  2.5044  0.9531 -2.4286
   76SLPC  C313 6910   7.303   5.353   7.512 -0.2333  0.3672 -0.4695
   76SLPC  H13X 6911   7.278   5.249   7.484  1.0619  0.5462 -2.5311
   76SLPC  H13Y 6912   7.211   5.407   7.481  0.3963  2.3808  0.9641
   76SLPC  C314 6913   7.327   5.370   7.664  0.1475 -0.1219 -0.1442
   76SLPC  H14X 6914   7.405   5.301   7.702 -0.4416 -0.4069  0.5621
   76SLPC  H14Y 6915   7.243   5.331   7.725 -1.7375  0.6673 -2.1049
   76SLPC  C315 6916   7.353   5.516   7.711  0.3941 -0.1464 -0.1863
   76SLPC  H15X 6917   7.271   5.580   7.673  0.9293  1.6052  1.4152
   76SLPC  H15Y 6918   7.446   5.559   7.668  0.6238 -0.5154 -0.0635
   76SLPC  C316 6919   7.343   5.534   7.864 -0.4956  0.0308 -0.2716
   76SLPC  H16X 6920   7.415   5.467   7.915  0.3723 -1.8981 -3.7033
   76SLPC  H16Y 6921   7.240   5.509   7.900 -0.2232 -0.0095  0.4967
   76SLPC  C317 6922   7.356   5.681   7.917  0.3828 -0.3033 -0.3210
   76SLPC  H17X 6923   7.317   5.695   8.020  1.3159  1.9241 -0.1968
   76SLPC  H17Y 6924   7.302   5.750   7.848  2.1600  1.3613 -0.1305
   76SLPC  C318 6925   7.499   5.736   7.916  0.0849 -0.0184 -0.1383
   76SLPC  H18X 6926   7.567   5.685   7.988 -0.6239 -0.7298  0.0450
   76SLPC  H18Y 6927   7.484   5.842   7.948 -1.1863  0.3097 -1.7363
   76SLPC  H18Z 6928   7.538   5.733   7.813 -0.8529 -1.8627 -0.4825
   77SLPC     N 6929   1.281   5.094   6.024 -0.2128  0.2106 -0.2319
   77SLPC   C13 6930   1.133   5.104   6.011 -0.5033  0.1974  0.2981
   77SLPC  H13A 6931   1.095   5.196   6.052 -1.0155 -0.5137  1.4839
   77SLPC  H13B 6932   1.097   5.109   5.909 -0.2574 -0.2151  0.1865
   77SLPC  H13C 6933   1.092   5.017   6.060  2.7435 -1.4172  0.4057
   77SLPC   C14 6934   1.349   5.212   5.970  0.1235  0.3036  0.8694
   77SLPC  H14A 6935   1.452   5.191   5.944 -0.0461 -0.3349  0.7022
   77SLPC  H14B 6936   1.305   5.226   5.873  0.3029  2.9220  1.0944
   77SLPC  H14C 6937   1.331   5.296   6.036 -0.7725 -1.0369  2.3826
   77SLPC   C15 6938   1.327   4.971   5.957  0.1864  0.2110 -0.3444
   77SLPC  H15A 6939   1.434   4.954   5.959  0.3415  1.0730  2.4849
   77SLPC  H15B 6940   1.287   4.889   6.015  0.4746  1.1646  1.2696
   77SLPC  H15C 6941   1.274   4.956   5.864  0.2072 -0.6360 -0.2316
   77SLPC   C12 6942   1.315   5.092   6.178 -0.2522  0.0605 -0.0684
   77SLPC  H12A 6943   1.282   5.184   6.224 -1.3462 -0.2257 -0.2450
   77SLPC  H12B 6944   1.422   5.083   6.180 -0.3623 -2.1116 -0.9790
   77SLPC   C11 6945   1.264   4.974   6.264 -0.6995 -0.1240 -0.4186
   77SLPC  H11A 6946   1.156   4.976   6.238 -0.2518 -0.3075 -2.4868
   77SLPC  H11B 6947   1.276   5.000   6.371  0.1668 -0.0906 -0.5170
   77SLPC     P 6948   1.474   4.823   6.299 -0.1253  0.2755  0.3127
   77SLPC   O13 6949   1.537   4.721   6.212  0.2523  0.3183  0.4386
   77SLPC   O14 6950   1.548   4.955   6.309  0.4887 -0.3781  0.3343
   77SLPC   O12 6951   1.325   4.844   6.239 -1.0183  0.2144  0.1548
   77SLPC   O11 6952   1.449   4.765   6.437 -0.1910  0.9211  0.6553
   77SLPC    C1 6953   1.332   4.697   6.471 -0.3033  0.2248 -0.3273
   77SLPC    HA 6954   1.256   4.770   6.503 -0.9013 -1.3073  2.0516
   77SLPC    HB 6955   1.286   4.645   6.384  0.5225 -2.3307  0.6574
   77SLPC    C2 6956   1.368   4.593   6.582 -0.3017 -0.7196 -0.4036
   77SLPC    HS 6957   1.279   4.528   6.594  0.5434 -1.7964  0.1820
   77SLPC   O21 6958   1.389   4.677   6.704  0.2623  0.3816 -0.1064
   77SLPC   C21 6959   1.369   4.608   6.819  0.4593 -0.0683  0.3341
   77SLPC   O22 6960   1.324   4.496   6.825  0.9918 -0.7178  0.1061
   77SLPC   C22 6961   1.386   4.708   6.934  0.3438  0.1703 -0.0700
   77SLPC   H2R 6962   1.443   4.791   6.886 -0.8082  0.8365 -0.3210
   77SLPC   H2S 6963   1.281   4.740   6.949  0.9797  2.9265 -0.8400
   77SLPC    C3 6964   1.498   4.515   6.544 -0.6410  0.9971 -0.2219
   77SLPC    HX 6965   1.576   4.593   6.530  0.0190  0.3478 -0.2125
   77SLPC    HY 6966   1.507   4.461   6.447  2.5926  1.3611 -0.2180
   77SLPC   O31 6967   1.543   4.439   6.653  0.6561  0.2855 -0.0902
   77SLPC   C31 6968   1.503   4.308   6.648 -0.6714  0.3953 -0.1698
   77SLPC   O32 6969   1.436   4.256   6.566  0.2927 -0.7404 -0.5803
   77SLPC   C32 6970   1.571   4.239   6.763 -0.2804  0.2442 -0.4277
   77SLPC   H2X 6971   1.618   4.317   6.827  0.2288 -1.1787  0.9985
   77SLPC   H2Y 6972   1.647   4.178   6.711  0.0265  1.8585 -1.9692
   77SLPC   C23 6973   1.452   4.657   7.066  0.2010  0.5496  0.2157
   77SLPC   H3R 6974   1.554   4.629   7.032 -0.1542 -0.1640 -0.2844
   77SLPC   H3S 6975   1.408   4.563   7.105 -1.5603 -0.2220 -3.2799
   77SLPC   C24 6976   1.472   4.756   7.186  0.0689  0.5777 -0.0166
   77SLPC   H4R 6977   1.383   4.812   7.223  0.1709  0.5793  0.2246
   77SLPC   H4S 6978   1.546   4.826   7.142 -0.1302 -0.4840 -2.1473
   77SLPC   C25 6979   1.529   4.682   7.304 -0.6845  0.7325 -0.3231
   77SLPC   H5R 6980   1.609   4.611   7.276 -0.8341 -2.0518  4.9472
   77SLPC   H5S 6981   1.448   4.611   7.334  1.9918 -1.7426  1.6350
   77SLPC   C26 6982   1.568   4.777   7.417 -0.0639  0.8565  0.7302
   77SLPC   H6R 6983   1.587   4.711   7.504 -0.3056 -0.8247 -0.4467
   77SLPC   H6S 6984   1.482   4.837   7.455 -1.2220 -1.3139  1.7237
   77SLPC   C27 6985   1.692   4.860   7.393 -0.6628 -0.1841 -0.1247
   77SLPC   H7R 6986   1.655   4.924   7.310 -1.0313  0.0528  0.2208
   77SLPC   H7S 6987   1.774   4.791   7.362  0.6265  2.6400 -3.7267
   77SLPC   C28 6988   1.746   4.958   7.497  0.1316  0.1604  0.1778
   77SLPC   H8R 6989   1.662   5.017   7.537  0.3389  0.5049  0.1079
   77SLPC   H8S 6990   1.818   5.031   7.455 -0.3589  1.8075  2.0754
   77SLPC   C29 6991   1.824   4.885   7.602 -0.0282  0.1153  0.1506
   77SLPC   H9R 6992   1.931   4.878   7.578 -0.1722  0.7225 -0.7333
   77SLPC  C210 6993   1.784   4.835   7.720  0.0301 -0.6154 -0.2240
   77SLPC  H10R 6994   1.850   4.768   7.778 -0.5456 -1.7217 -0.7980
   77SLPC  C211 6995   1.644   4.854   7.777  0.1150 -0.8971 -0.4955
   77SLPC  H11R 6996   1.625   4.748   7.805  2.7807 -1.0177  1.1709
   77SLPC  H11S 6997   1.571   4.877   7.696 -0.3393  2.7425  0.7845
   77SLPC  C212 6998   1.634   4.959   7.887 -0.2477 -0.3494 -0.5075
   77SLPC  H12R 6999   1.605   5.060   7.852  2.4703  1.6886  2.5285
   77SLPC  C213 7000   1.654   4.951   8.016  0.7120  0.0180 -0.0354
   77SLPC  H13R 7001   1.621   5.034   8.080 -2.4691 -1.0171 -0.1871
   77SLPC  C214 7002   1.697   4.824   8.087 -0.3312 -0.2081 -0.5668
   77SLPC  H14R 7003   1.736   4.742   8.022 -0.3481 -1.3573  0.8131
   77SLPC  H14S 7004   1.621   4.780   8.156 -0.2039  1.1222  0.4695
   77SLPC  C215 7005   1.820   4.856   8.175 -0.0276  0.7108 -0.4038
   77SLPC  H15R 7006   1.815   4.950   8.234  0.4352  1.1758 -1.0912
   77SLPC  H15S 7007   1.913   4.861   8.115  0.4702 -2.1141 -0.0295
   77SLPC  C216 7008   1.843   4.741   8.274  0.4024 -0.0786  0.1046
   77SLPC  H16R 7009   1.798   4.652   8.224  0.6787  0.6192 -1.4664
   77SLPC  H16S 7010   1.790   4.765   8.368  0.1107 -1.5765  0.3445
   77SLPC  C217 7011   1.989   4.718   8.318  0.2712  0.0721  0.3655
   77SLPC  H17R 7012   2.041   4.703   8.221 -2.0805 -1.0736 -0.7839
   77SLPC  H17S 7013   2.004   4.624   8.377  0.4383  0.8810  1.6412
   77SLPC  C218 7014   2.049   4.841   8.393  0.1170  0.2214 -0.2067
   77SLPC  H18R 7015   2.160   4.833   8.403  0.5261  1.5680 -2.7014
   77SLPC  H18S 7016   2.001   4.851   8.493  1.5989 -0.6769  0.6344
   77SLPC  H18T 7017   2.035   4.931   8.330 -0.2189 -2.2463 -3.9705
   77SLPC   C33 7018   1.469   4.157   6.842 -0.4802 -0.1745 -0.4469
   77SLPC   H3X 7019   1.446   4.075   6.772  1.9355 -0.2881 -1.2014
   77SLPC   H3Y 7020   1.377   4.215   6.863  1.1935  2.5023  0.1163
   77SLPC   C34 7021   1.528   4.088   6.967  0.1517 -0.1060 -0.1906
   77SLPC   H4X 7022   1.636   4.071   6.946  0.8329  3.4236 -0.1218
   77SLPC   H4Y 7023   1.479   3.990   6.987 -3.0063  1.3089 -0.3861
   77SLPC   C35 7024   1.514   4.176   7.091  0.8070 -0.3858  0.5220
   77SLPC   H5X 7025   1.406   4.192   7.113  1.1123 -0.4922  2.2165
   77SLPC   H5Y 7026   1.548   4.279   7.067 -1.9431  0.1806 -1.4584
   77SLPC   C36 7027   1.582   4.113   7.210  0.2193  0.2551  0.3982
   77SLPC   H6X 7028   1.687   4.115   7.175 -0.1198  1.0277 -0.6379
   77SLPC   H6Y 7029   1.549   4.009   7.233  0.2256  0.6201  2.1757
   77SLPC   C37 7030   1.568   4.208   7.323  0.1744 -0.0279  0.3869
   77SLPC   H7X 7031   1.459   4.215   7.346  0.2303  2.3498  0.1322
   77SLPC   H7Y 7032   1.612   4.305   7.293 -1.0351  0.7443  1.0411
   77SLPC   C38 7033   1.638   4.162   7.455  0.0416 -0.4330 -0.3850
   77SLPC   H8X 7034   1.749   4.169   7.446 -0.0664  0.3036 -1.3849
   77SLPC   H8Y 7035   1.601   4.060   7.478 -1.3262  0.0280 -0.4135
   77SLPC   C39 7036   1.599   4.252   7.576  0.1737  0.2008  0.5125
   77SLPC   H9X 7037   1.489   4.262   7.584  0.3646  2.8104  0.4625
   77SLPC   H9Y 7038   1.644   4.352   7.563 -1.9395  1.1310 -0.1794
   77SLPC  C310 7039   1.638   4.188   7.710  0.1834  0.2285 -0.5872
   77SLPC  H10X 7040   1.746   4.202   7.728  0.0638  1.7001 -0.8267
   77SLPC  H10Y 7041   1.604   4.082   7.708 -2.0212  0.8597 -2.8062
   77SLPC  C311 7042   1.573   4.265   7.831  0.1363  0.1386  0.3108
   77SLPC  H11X 7043   1.468   4.290   7.801  0.1727  0.1460  0.1873
   77SLPC  H11Y 7044   1.620   4.361   7.858  1.3887 -0.8362  1.7550
   77SLPC  C312 7045   1.549   4.182   7.961  0.1989  0.2420 -0.4256
   77SLPC  H12X 7046   1.648   4.158   8.006  0.3238 -0.4995 -1.0717
   77SLPC  H12Y 7047   1.503   4.085   7.935  0.1278  0.2073 -0.1717
   77SLPC  C313 7048   1.465   4.263   8.065 -0.4760  0.2839  0.1890
   77SLPC  H13X 7049   1.401   4.336   8.011 -1.4390 -0.7035 -0.0173
   77SLPC  H13Y 7050   1.539   4.322   8.125 -0.4479  1.3585 -0.8615
   77SLPC  C314 7051   1.374   4.172   8.147 -0.0659  0.3928 -0.4930
   77SLPC  H14X 7052   1.439   4.105   8.208 -0.1690  0.4125 -0.3621
   77SLPC  H14Y 7053   1.305   4.114   8.081  0.9317  0.9316 -2.0802
   77SLPC  C315 7054   1.294   4.256   8.246  0.5813 -0.2909 -0.2335
   77SLPC  H15X 7055   1.238   4.326   8.180  0.7904 -1.5603 -1.8066
   77SLPC  H15Y 7056   1.357   4.302   8.324 -0.9170  0.4048  0.6246
   77SLPC  C316 7057   1.198   4.159   8.317  0.6937  1.1115 -1.0432
   77SLPC  H16X 7058   1.250   4.067   8.350  0.0348  0.2141 -2.4275
   77SLPC  H16Y 7059   1.117   4.122   8.252 -0.7521  2.4822 -0.0997
   77SLPC  C317 7060   1.138   4.217   8.444 -0.2388 -0.7680  0.0804
   77SLPC  H17X 7061   1.080   4.305   8.408  1.7713 -0.9576 -4.2524
   77SLPC  H17Y 7062   1.222   4.237   8.514  0.8309 -3.4472 -0.3167
   77SLPC  C318 7063   1.044   4.129   8.517  0.2188 -0.3937  0.2948
   77SLPC  H18X 7064   0.952   4.099   8.462  1.3745 -1.5334 -1.0684
   77SLPC  H18Y 7065   1.025   4.168   8.620 -0.1806  0.1065  0.0364
   77SLPC  H18Z 7066   1.091   4.032   8.543 -1.1302 -1.4207 -0.9480
   78SLPC     N 7067   4.253   6.018   5.859  0.8827  0.1904 -0.0929
   78SLPC   C13 7068   4.175   5.904   5.802  1.1232  0.1047  0.2316
   78SLPC  H13A 7069   4.086   5.870   5.853  0.8879 -0.6235 -0.6337
   78SLPC  H13B 7070   4.142   5.929   5.702  3.3909  0.6470 -0.4347
   78SLPC  H13C 7071   4.240   5.820   5.821 -0.4830 -0.5905  3.2796
   78SLPC   C14 7072   4.185   6.143   5.822  0.0683  0.1484  0.5265
   78SLPC  H14A 7073   4.247   6.226   5.855  2.0363 -0.8926 -0.4159
   78SLPC  H14B 7074   4.157   6.151   5.718  1.4012 -0.6477  0.0833
   78SLPC  H14C 7075   4.087   6.138   5.868  0.1896 -0.2840  0.7466
   78SLPC   C15 7076   4.382   6.012   5.781 -0.1059  0.4002 -0.1936
   78SLPC  H15A 7077   4.444   6.093   5.818 -2.2655  1.2514  1.8059
   78SLPC  H15B 7078   4.434   5.918   5.783  1.0293  0.8909 -2.4618
   78SLPC  H15C 7079   4.371   6.024   5.674  1.6938 -3.0250 -0.9023
   78SLPC   C12 7080   4.287   6.002   6.007  0.0329  0.1267  0.5492
   78SLPC  H12A 7081   4.365   6.073   6.028  0.9070 -0.6304 -0.0802
   78SLPC  H12B 7082   4.327   5.903   6.024  1.1895 -0.0667 -2.5500
   78SLPC   C11 7083   4.184   6.025   6.117  0.6755  0.9258  0.0293
   78SLPC  H11A 7084   4.144   6.129   6.114  2.3179  1.5841 -1.1011
   78SLPC  H11B 7085   4.240   6.011   6.212 -0.0117  0.2757  0.3454
   78SLPC     P 7086   4.091   5.784   6.170  0.1352 -0.3371 -0.0560
   78SLPC   O13 7087   3.948   5.751   6.203 -0.7973  0.1107 -0.8528
   78SLPC   O14 7088   4.157   5.693   6.081  0.4656  0.4858 -0.0225
   78SLPC   O12 7089   4.082   5.928   6.099 -0.1958 -0.3438  0.5118
   78SLPC   O11 7090   4.170   5.800   6.313  0.4982 -0.2705 -0.0403
   78SLPC    C1 7091   4.281   5.710   6.342 -0.0624 -0.1126 -0.1214
   78SLPC    HA 7092   4.248   5.604   6.332  0.3296 -0.4406  1.6348
   78SLPC    HB 7093   4.371   5.732   6.282  0.4960 -1.9690 -0.0374
   78SLPC    C2 7094   4.335   5.712   6.489 -0.5146  0.7463  0.1137
   78SLPC    HS 7095   4.380   5.614   6.515  0.7452  0.6920 -2.0492
   78SLPC   O21 7096   4.227   5.744   6.583  0.3258 -0.7298  0.1527
   78SLPC   C21 7097   4.138   5.653   6.613  0.2914  0.8405  0.0891
   78SLPC   O22 7098   4.137   5.533   6.582  0.0993  0.7401  0.1969
   78SLPC   C22 7099   4.052   5.717   6.714  0.2450 -0.2554 -0.4396
   78SLPC   H2R 7100   4.102   5.753   6.806  0.9435 -3.3414  0.5164
   78SLPC   H2S 7101   4.010   5.810   6.669 -0.7945 -0.1755  0.6614
   78SLPC    C3 7102   4.449   5.814   6.496  0.3601 -0.0293 -0.7536
   78SLPC    HX 7103   4.472   5.831   6.603  1.0511  1.3038 -1.0916
   78SLPC    HY 7104   4.406   5.909   6.456 -3.0121 -0.5081  1.3276
   78SLPC   O31 7105   4.565   5.771   6.416 -0.2322  0.4086 -0.5001
   78SLPC   C31 7106   4.664   5.849   6.423  0.1786  0.1952 -0.5068
   78SLPC   O32 7107   4.663   5.957   6.473 -0.0456  0.0216  0.1072
   78SLPC   C32 7108   4.778   5.790   6.353 -1.6451  0.3970 -0.0633
   78SLPC   H2X 7109   4.866   5.857   6.358 -0.4756 -0.9255 -1.7800
   78SLPC   H2Y 7110   4.754   5.787   6.245  0.4451 -1.6842 -0.5517
   78SLPC   C23 7111   3.933   5.625   6.751 -0.3637 -0.6105 -0.1491
   78SLPC   H3R 7112   3.980   5.526   6.766  3.1088  0.1877 -3.9675
   78SLPC   H3S 7113   3.855   5.616   6.673  0.3734 -0.7722 -0.8767
   78SLPC   C24 7114   3.859   5.665   6.877  0.0306  0.1600  0.1694
   78SLPC   H4R 7115   3.830   5.772   6.878 -0.6692 -0.0261  1.1285
   78SLPC   H4S 7116   3.927   5.641   6.961  3.3829 -0.8322 -2.5802
   78SLPC   C25 7117   3.721   5.582   6.866 -0.3209 -0.4249  0.1006
   78SLPC   H5R 7118   3.731   5.475   6.838  0.4958 -0.2973 -0.1132
   78SLPC   H5S 7119   3.668   5.632   6.783  0.8106  2.4507  0.9714
   78SLPC   C26 7120   3.646   5.608   6.997 -0.2939  0.5535 -0.5050
   78SLPC   H6R 7121   3.542   5.577   6.972 -0.4319  0.6899 -0.1050
   78SLPC   H6S 7122   3.631   5.715   7.022 -1.2385  0.4442 -0.5569
   78SLPC   C27 7123   3.707   5.525   7.115 -0.6764 -0.3432 -0.7447
   78SLPC   H7R 7124   3.813   5.554   7.132 -1.2529  0.3869  2.1161
   78SLPC   H7S 7125   3.706   5.421   7.077 -1.7670 -0.7454  0.3159
   78SLPC   C28 7126   3.639   5.533   7.250 -0.0530 -0.8107 -0.4836
   78SLPC   H8R 7127   3.675   5.443   7.305  1.1048 -1.0304 -1.5681
   78SLPC   H8S 7128   3.532   5.507   7.236 -0.6236 -0.1188  2.0153
   78SLPC   C29 7129   3.647   5.666   7.322 -0.2522 -0.7810  0.2395
   78SLPC   H9R 7130   3.647   5.747   7.247  3.1998  0.1167  0.9962
   78SLPC  C210 7131   3.679   5.693   7.452  0.0312 -0.6820 -0.6737
   78SLPC  H10R 7132   3.665   5.793   7.495  1.6450 -1.0553  0.8169
   78SLPC  C211 7133   3.724   5.587   7.551  1.0124  0.3530 -0.5969
   78SLPC  H11R 7134   3.834   5.590   7.563  0.8255  2.9382  1.4564
   78SLPC  H11S 7135   3.695   5.485   7.517  1.3057 -0.0265  0.2734
   78SLPC  C212 7136   3.655   5.614   7.688  0.1675 -0.1403  0.1198
   78SLPC  H12R 7137   3.557   5.564   7.696  0.3766 -0.4000  1.3408
   78SLPC  C213 7138   3.711   5.679   7.789  0.5260  0.0947 -0.0035
   78SLPC  H13R 7139   3.659   5.702   7.883  1.0473 -0.9497  0.5467
   78SLPC  C214 7140   3.844   5.753   7.789 -0.2040 -0.1213 -0.9155
   78SLPC  H14R 7141   3.907   5.745   7.698  2.0019  1.9057  0.3378
   78SLPC  H14S 7142   3.907   5.718   7.873  0.1135  0.8040 -0.7600
   78SLPC  C215 7143   3.831   5.907   7.815  0.2179 -0.4219 -0.4587
   78SLPC  H15R 7144   3.774   5.968   7.742  1.8682  1.7373 -0.0634
   78SLPC  H15S 7145   3.934   5.947   7.802 -0.2792  0.7612 -0.8805
   78SLPC  C216 7146   3.811   5.943   7.964 -0.6826  0.3226 -0.7668
   78SLPC  H16R 7147   3.870   5.881   8.035 -2.2904 -0.5510 -0.1409
   78SLPC  H16S 7148   3.709   5.911   7.994 -0.4545  0.4619  0.1899
   78SLPC  C217 7149   3.825   6.090   7.997 -0.3352  0.6066 -0.7919
   78SLPC  H17R 7150   3.753   6.144   7.932 -1.2386  2.2636  1.4736
   78SLPC  H17S 7151   3.924   6.122   7.957 -0.2162  1.6128  0.2866
   78SLPC  C218 7152   3.838   6.143   8.139  0.4542  0.6610 -0.7808
   78SLPC  H18R 7153   3.918   6.093   8.198 -0.5381 -1.9057 -1.4770
   78SLPC  H18S 7154   3.747   6.121   8.200  1.4450 -1.7727 -0.0461
   78SLPC  H18T 7155   3.839   6.253   8.153  1.0818  0.3530  2.2699
   78SLPC   C33 7156   4.815   5.655   6.420  0.0359 -0.2280  0.0616
   78SLPC   H3X 7157   4.869   5.589   6.349  0.6175 -1.7099  1.7927
   78SLPC   H3Y 7158   4.728   5.593   6.448  1.1385 -1.8109  0.1118
   78SLPC   C34 7159   4.911   5.671   6.536  1.2602 -0.1207  0.2098
   78SLPC   H4X 7160   4.866   5.743   6.608 -0.7227  0.2933 -1.3424
   78SLPC   H4Y 7161   5.007   5.716   6.504  1.3304 -1.1156 -1.0763
   78SLPC   C35 7162   4.940   5.532   6.589 -0.4931 -0.1815  0.0598
   78SLPC   H5X 7163   4.968   5.480   6.496  2.4365  0.8631  0.2614
   78SLPC   H5Y 7164   4.845   5.487   6.625 -1.2242  0.7163 -0.6791
   78SLPC   C36 7165   5.052   5.528   6.696 -0.0255  0.3260  0.8484
   78SLPC   H6X 7166   5.148   5.566   6.655 -0.4808  1.4872  0.8080
   78SLPC   H6Y 7167   5.069   5.422   6.726  1.9491 -0.0319 -1.2627
   78SLPC   C37 7168   5.023   5.607   6.817 -0.1178 -0.6067  0.1948
   78SLPC   H7X 7169   4.930   5.576   6.868 -1.3702  1.2922 -0.7913
   78SLPC   H7Y 7170   5.015   5.714   6.785  0.9399 -0.5860 -0.0470
   78SLPC   C38 7171   5.141   5.587   6.917  0.4454  0.1729  0.4754
   78SLPC   H8X 7172   5.231   5.602   6.854 -1.5878 -0.5323 -2.8787
   78SLPC   H8Y 7173   5.145   5.484   6.958 -0.9864 -0.3093 -0.4795
   78SLPC   C39 7174   5.142   5.691   7.029  0.5983  0.3109  0.1841
   78SLPC   H9X 7175   5.041   5.696   7.074  0.8388 -3.0056  1.3613
   78SLPC   H9Y 7176   5.188   5.787   6.996 -1.2735  1.4112  0.6384
   78SLPC  C310 7177   5.241   5.634   7.126  0.6307  0.0102 -0.6483
   78SLPC  H10X 7178   5.327   5.615   7.059  0.3086  0.6963 -1.2682
   78SLPC  H10Y 7179   5.193   5.541   7.165 -1.2715  1.1678 -0.0383
   78SLPC  C311 7180   5.278   5.737   7.235 -0.5077  0.6561  0.1626
   78SLPC  H11X 7181   5.294   5.836   7.189 -0.2434 -0.2229 -1.7341
   78SLPC  H11Y 7182   5.379   5.708   7.273  0.7361  1.4499 -2.3418
   78SLPC  C312 7183   5.178   5.741   7.348 -0.6298  0.1375 -0.2713
   78SLPC  H12X 7184   5.129   5.642   7.359 -0.2298  0.1816  3.1650
   78SLPC  H12Y 7185   5.099   5.818   7.342  0.4422  1.4071  0.9883
   78SLPC  C313 7186   5.234   5.787   7.481 -0.5752 -0.0754  0.4507
   78SLPC  H13X 7187   5.244   5.897   7.476 -0.7325 -0.0551  0.5682
   78SLPC  H13Y 7188   5.341   5.761   7.490 -0.2351  0.4391 -1.5345
   78SLPC  C314 7189   5.157   5.754   7.608  0.1658  0.1215  0.4058
   78SLPC  H14X 7190   5.148   5.645   7.630 -0.3652  0.3866  1.5773
   78SLPC  H14Y 7191   5.052   5.787   7.593  0.8518  1.7143 -1.3011
   78SLPC  C315 7192   5.205   5.817   7.744  0.0780 -0.2576  0.4163
   78SLPC  H15X 7193   5.255   5.915   7.730  3.5733 -1.8828  0.4070
   78SLPC  H15Y 7194   5.294   5.762   7.784 -0.7368 -2.0570 -0.1513
   78SLPC  C316 7195   5.088   5.828   7.838 -0.6899 -0.3522 -0.4259
   78SLPC  H16X 7196   5.045   5.726   7.852 -0.3925 -0.4652 -0.3455
   78SLPC  H16Y 7197   5.004   5.881   7.787 -0.2162 -0.9538 -1.8997
   78SLPC  C317 7198   5.113   5.885   7.973 -0.0615  0.7637 -0.3873
   78SLPC  H17X 7199   5.150   5.988   7.951  0.2577  0.5907 -0.6698
   78SLPC  H17Y 7200   5.201   5.825   8.005 -0.2606  0.1925 -0.9043
   78SLPC  C318 7201   4.995   5.892   8.071 -0.6484 -0.2681  0.1114
   78SLPC  H18X 7202   4.907   5.955   8.045 -1.9656 -1.9063  0.3917
   78SLPC  H18Y 7203   5.030   5.929   8.170  1.9855 -1.2888 -0.3666
   78SLPC  H18Z 7204   4.951   5.792   8.089 -1.6194  0.2201  0.5289
   79SLPC     N 7205   2.250   1.166   6.175  0.2253  0.0732 -0.0978
   79SLPC   C13 7206   2.256   1.049   6.084 -0.7192  0.0166  0.2306
   79SLPC  H13A 7207   2.174   1.047   6.014  0.2135  2.0407 -1.0192
   79SLPC  H13B 7208   2.342   1.053   6.018 -1.2500 -1.9296 -0.6569
   79SLPC  H13C 7209   2.257   0.956   6.140 -1.9457  0.4570  1.0115
   79SLPC   C14 7210   2.244   1.292   6.090  0.2552 -0.5012 -0.1277
   79SLPC  H14A 7211   2.298   1.283   5.997  0.7764 -2.1763  0.3196
   79SLPC  H14B 7212   2.141   1.323   6.074  0.1153 -0.6214  0.5032
   79SLPC  H14C 7213   2.277   1.383   6.138 -0.2918 -0.6092  0.4765
   79SLPC   C15 7214   2.379   1.178   6.254  0.3005  0.9173  0.2337
   79SLPC  H15A 7215   2.462   1.180   6.185 -0.2333 -3.3330 -0.8283
   79SLPC  H15B 7216   2.373   1.252   6.332  1.4069  0.8386  0.4093
   79SLPC  H15C 7217   2.401   1.084   6.303  2.6203  0.9837 -0.5659
   79SLPC   C12 7218   2.129   1.145   6.266 -0.2737 -0.3737  0.0616
   79SLPC  H12A 7219   2.141   1.226   6.335  4.2744 -0.2519 -0.5725
   79SLPC  H12B 7220   2.133   1.051   6.320  1.9006 -0.5762 -0.3355
   79SLPC   C11 7221   1.994   1.150   6.199 -0.4869  0.0635  0.2201
   79SLPC  H11A 7222   1.918   1.128   6.277 -0.8863  1.3810  0.2223
   79SLPC  H11B 7223   1.986   1.078   6.115 -1.2195  1.9792 -1.4255
   79SLPC     P 7224   1.914   1.398   6.234  0.3632 -0.1184  0.3120
   79SLPC   O13 7225   1.953   1.523   6.166 -0.1917 -0.0156  0.4234
   79SLPC   O14 7226   1.768   1.384   6.244  0.7782 -0.5704 -0.3539
   79SLPC   O12 7227   1.971   1.281   6.151  0.2490 -0.4758  0.3823
   79SLPC   O11 7228   1.986   1.386   6.372  0.1792  0.2974 -0.1607
   79SLPC    C1 7229   2.102   1.457   6.409  0.0284  0.2353  0.1360
   79SLPC    HA 7230   2.187   1.391   6.438  1.6301  2.1990  0.1664
   79SLPC    HB 7231   2.149   1.511   6.323 -0.6316 -0.8233 -0.9105
   79SLPC    C2 7232   2.075   1.550   6.534  0.1445  0.4903  0.3006
   79SLPC    HS 7233   2.173   1.596   6.558  1.5704 -1.6139 -1.1124
   79SLPC   O21 7234   2.020   1.484   6.648  0.4018 -0.6844 -0.3450
   79SLPC   C21 7235   2.084   1.386   6.706  0.7658  0.3113 -0.8206
   79SLPC   O22 7236   2.172   1.318   6.664 -0.2811 -1.0049 -0.1170
   79SLPC   C22 7237   2.032   1.371   6.849  0.1701  0.3094 -0.0381
   79SLPC   H2R 7238   1.925   1.398   6.848 -0.2272 -1.0497  1.2203
   79SLPC   H2S 7239   2.042   1.267   6.886  0.1842  0.0094 -0.8764
   79SLPC    C3 7240   1.978   1.654   6.480  0.0597  0.9102 -0.4840
   79SLPC    HX 7241   1.886   1.606   6.441  1.4413 -0.9193 -1.6780
   79SLPC    HY 7242   2.031   1.701   6.395  1.1830 -0.5253 -0.6335
   79SLPC   O31 7243   1.932   1.749   6.576  0.8073  0.1338 -0.5996
   79SLPC   C31 7244   2.020   1.844   6.619 -0.3801  0.4657 -0.1768
   79SLPC   O32 7245   2.136   1.839   6.589 -0.3945 -0.5664  0.0739
   79SLPC   C32 7246   1.946   1.957   6.690 -0.1767  0.8975 -0.4026
   79SLPC   H2X 7247   1.838   1.935   6.696 -0.6745  3.0912 -0.5720
   79SLPC   H2Y 7248   1.949   2.042   6.618 -1.7867  0.2002 -1.3385
   79SLPC   C23 7249   2.093   1.460   6.957 -0.4236 -0.1914  0.0947
   79SLPC   H3R 7250   2.019   1.488   7.035 -0.1392 -1.1050  0.6956
   79SLPC   H3S 7251   2.110   1.559   6.909 -1.4486 -0.4652 -0.8971
   79SLPC   C24 7252   2.215   1.403   7.026  0.7746  0.6222 -0.0625
   79SLPC   H4R 7253   2.299   1.390   6.954 -0.2722  0.1404 -1.2372
   79SLPC   H4S 7254   2.195   1.301   7.065 -0.4861  0.1434 -1.7959
   79SLPC   C25 7255   2.272   1.500   7.123  0.0914  0.6342  0.0544
   79SLPC   H5R 7256   2.260   1.604   7.085 -1.6263  1.0625  1.6810
   79SLPC   H5S 7257   2.381   1.477   7.134 -0.1558 -0.4109  0.4312
   79SLPC   C26 7258   2.207   1.481   7.263  0.2648  0.9654 -0.5896
   79SLPC   H6R 7259   2.279   1.426   7.328  1.4864  2.6586 -0.4661
   79SLPC   H6S 7260   2.109   1.432   7.242  0.3138  1.3255 -1.7296
   79SLPC   C27 7261   2.176   1.607   7.339 -0.0027 -0.2739  0.5561
   79SLPC   H7R 7262   2.119   1.680   7.278  0.2168 -1.7589 -1.5208
   79SLPC   H7S 7263   2.272   1.654   7.368 -0.1680 -0.4304  1.3912
   79SLPC   C28 7264   2.095   1.597   7.469 -0.1155 -1.1451  0.4763
   79SLPC   H8R 7265   2.160   1.525   7.523  1.9203 -1.2868 -1.9433
   79SLPC   H8S 7266   1.998   1.544   7.454 -1.2645  0.2545  2.5229
   79SLPC   C29 7267   2.073   1.717   7.559 -0.2971 -0.4059 -0.3242
   79SLPC   H9R 7268   2.002   1.791   7.518 -2.7012 -1.5488  1.5178
   79SLPC  C210 7269   2.134   1.741   7.679 -0.2363  0.0070 -0.0064
   79SLPC  H10R 7270   2.105   1.835   7.729  0.7827 -0.0103  0.6411
   79SLPC  C211 7271   2.232   1.652   7.767 -0.1003 -0.4546  0.7703
   79SLPC  H11R 7272   2.263   1.708   7.858  1.3095  0.7810 -0.4165
   79SLPC  H11S 7273   2.326   1.633   7.711  0.0829  0.6921  0.6709
   79SLPC  C212 7274   2.175   1.513   7.793  0.3304  0.1692 -1.0054
   79SLPC  H12R 7275   2.092   1.486   7.726 -1.8991  2.2562  0.7573
   79SLPC  C213 7276   2.214   1.428   7.890  0.3947 -1.2795  0.2479
   79SLPC  H13R 7277   2.176   1.325   7.882 -0.4822 -0.8399 -2.8661
   79SLPC  C214 7278   2.317   1.466   7.988 -0.1273 -0.2923  0.4980
   79SLPC  H14R 7279   2.342   1.574   7.991 -0.6785 -0.1168  4.7087
   79SLPC  H14S 7280   2.415   1.422   7.960  0.2882 -0.3407  1.9330
   79SLPC  C215 7281   2.307   1.415   8.132 -0.1731 -0.0171 -0.1463
   79SLPC  H15R 7282   2.293   1.306   8.117 -0.4131  0.0577 -0.4864
   79SLPC  H15S 7283   2.208   1.439   8.178 -0.2873  1.1050 -0.9385
   79SLPC  C216 7284   2.429   1.443   8.228 -0.2665  0.1781  0.6255
   79SLPC  H16R 7285   2.425   1.551   8.254 -0.1654  0.7243 -1.4208
   79SLPC  H16S 7286   2.522   1.429   8.168 -1.1575 -0.0738 -0.7474
   79SLPC  C217 7287   2.444   1.344   8.348 -0.6704  0.0258 -1.0477
   79SLPC  H17R 7288   2.527   1.380   8.413 -1.6717  1.1453 -0.3320
   79SLPC  H17S 7289   2.480   1.244   8.315 -3.0096 -1.1448 -0.2955
   79SLPC  C218 7290   2.325   1.323   8.437  1.1819 -0.1479  0.6914
   79SLPC  H18R 7291   2.353   1.270   8.531 -1.6437  0.9238  2.2773
   79SLPC  H18S 7292   2.242   1.272   8.384 -0.1202 -0.0578  2.5341
   79SLPC  H18T 7293   2.282   1.420   8.471  0.7860  0.5957 -1.7281
   79SLPC   C33 7294   2.012   1.996   6.811 -0.1894 -0.2848 -0.1651
   79SLPC   H3X 7295   1.966   2.090   6.847 -0.9386 -0.1409 -1.4515
   79SLPC   H3Y 7296   2.119   2.027   6.807 -0.3898  0.3804 -0.5332
   79SLPC   C34 7297   2.002   1.888   6.916 -0.4840 -0.1522  0.1296
   79SLPC   H4X 7298   2.055   1.799   6.875 -0.2502  0.0879 -0.0880
   79SLPC   H4Y 7299   1.893   1.872   6.909 -0.7087 -1.7771  4.3423
   79SLPC   C35 7300   2.029   1.924   7.065 -0.1421 -0.6190  0.5774
   79SLPC   H5X 7301   2.114   1.995   7.064 -1.5669  1.1755 -0.3941
   79SLPC   H5Y 7302   2.049   1.834   7.128  0.7802 -1.1189 -0.3978
   79SLPC   C36 7303   1.908   1.999   7.128  0.3240  0.8882 -0.1952
   79SLPC   H6X 7304   1.825   1.927   7.110  0.4541  1.1396 -2.0341
   79SLPC   H6Y 7305   1.874   2.087   7.071 -3.1484 -0.1605  0.0612
   79SLPC   C37 7306   1.921   2.038   7.279 -0.0837  0.1811 -0.0605
   79SLPC   H7X 7307   2.005   2.111   7.278  1.0882 -1.1067 -1.9930
   79SLPC   H7Y 7308   1.966   1.956   7.339  0.4902  1.9178  2.0503
   79SLPC   C38 7309   1.799   2.070   7.370  0.2168  0.1024  0.8346
   79SLPC   H8X 7310   1.736   1.980   7.384 -1.7540  0.9876 -1.6442
   79SLPC   H8Y 7311   1.732   2.148   7.327 -0.1080  0.7433  2.3966
   79SLPC   C39 7312   1.838   2.143   7.498 -0.6401 -0.0367 -0.6293
   79SLPC   H9X 7313   1.903   2.232   7.482  0.1094 -1.0297 -4.0175
   79SLPC   H9Y 7314   1.894   2.073   7.563  0.1519 -3.2271 -4.3428
   79SLPC  C310 7315   1.712   2.183   7.582 -0.1818  0.1582  0.4919
   79SLPC  H10X 7316   1.620   2.169   7.521 -0.1723  1.3544  0.1725
   79SLPC  H10Y 7317   1.722   2.294   7.590 -0.9935  0.1516  2.0189
   79SLPC  C311 7318   1.706   2.121   7.720 -0.2261 -0.2584 -0.0427
   79SLPC  H11X 7319   1.787   2.158   7.787 -0.3972  0.7184 -0.3564
   79SLPC  H11Y 7320   1.724   2.013   7.702 -1.2244 -0.8673  2.3037
   79SLPC  C312 7321   1.576   2.163   7.790  1.1112 -0.2181  0.0626
   79SLPC  H12X 7322   1.573   2.083   7.867 -0.5499 -0.8789 -0.6488
   79SLPC  H12Y 7323   1.484   2.157   7.728 -0.2261  0.9099  1.8300
   79SLPC  C313 7324   1.583   2.304   7.853 -0.2691  0.1364  0.0488
   79SLPC  H13X 7325   1.564   2.387   7.783  2.5549  1.2149  0.4528
   79SLPC  H13Y 7326   1.682   2.312   7.904 -0.3479  0.1680  0.1978
   79SLPC  C314 7327   1.486   2.317   7.975  0.6207 -0.0478  0.1235
   79SLPC  H14X 7328   1.482   2.223   8.034  0.6078 -0.2191 -0.1522
   79SLPC  H14Y 7329   1.392   2.321   7.917  1.7285 -0.1021 -1.7775
   79SLPC  C315 7330   1.510   2.446   8.051  1.0068 -0.5603 -0.8450
   79SLPC  H15X 7331   1.425   2.464   8.120  0.3112 -1.7513 -1.3627
   79SLPC  H15Y 7332   1.511   2.530   7.977  3.1385 -0.1601 -0.4263
   79SLPC  C316 7333   1.644   2.455   8.126 -0.2244  0.1450  0.2189
   79SLPC  H16X 7334   1.732   2.464   8.059  1.1878 -0.9304  1.8768
   79SLPC  H16Y 7335   1.656   2.358   8.180  0.8104  0.3524  0.3651
   79SLPC  C317 7336   1.645   2.567   8.231 -0.0505 -0.8088  0.2580
   79SLPC  H17X 7337   1.729   2.555   8.302 -1.1736  1.3099  2.0694
   79SLPC  H17Y 7338   1.552   2.568   8.291  0.4251  1.3010  1.0473
   79SLPC  C318 7339   1.656   2.703   8.161 -0.2139  0.8420 -0.3500
   79SLPC  H18X 7340   1.756   2.711   8.114 -0.2275  2.8002 -0.1451
   79SLPC  H18Y 7341   1.649   2.789   8.231  1.7611  1.8488 -1.3158
   79SLPC  H18Z 7342   1.587   2.720   8.075 -3.0674  0.8084  1.7996
   80SLPC     N 7343   3.514   6.133   6.294  0.3994 -0.3231 -0.1536
   80SLPC   C13 7344   3.526   6.073   6.161  0.4286  0.1910  0.3461
   80SLPC  H13A 7345   3.611   6.007   6.158 -0.5217 -1.0167 -1.6996
   80SLPC  H13B 7346   3.443   6.007   6.141  1.1382 -1.0230  1.2688
   80SLPC  H13C 7347   3.556   6.135   6.078  1.5232 -2.0719 -1.0554
   80SLPC   C14 7348   3.423   6.253   6.300  0.0648  0.2575 -0.4551
   80SLPC  H14A 7349   3.465   6.337   6.247  0.4459  0.8344  0.7298
   80SLPC  H14B 7350   3.326   6.230   6.259 -0.0645  0.2026 -0.1256
   80SLPC  H14C 7351   3.415   6.289   6.402  3.0013  0.5767 -0.2540
   80SLPC   C15 7352   3.653   6.192   6.330 -0.3297  0.0703  0.9697
   80SLPC  H15A 7353   3.646   6.229   6.431 -1.4044  0.0161  0.9244
   80SLPC  H15B 7354   3.734   6.122   6.315 -1.1435 -0.6286 -0.4017
   80SLPC  H15C 7355   3.673   6.284   6.278 -2.1652  0.8835  1.6384
   80SLPC   C12 7356   3.479   6.033   6.398  0.4277  0.1708  0.5737
   80SLPC  H12A 7357   3.487   6.083   6.494 -0.0409 -0.2213  0.8229
   80SLPC  H12B 7358   3.546   5.948   6.393 -1.0479 -0.9913 -0.2324
   80SLPC   C11 7359   3.330   5.988   6.376  0.1628  0.0501 -0.3918
   80SLPC  H11A 7360   3.263   6.074   6.357  0.1130  0.6392  2.0052
   80SLPC  H11B 7361   3.298   5.959   6.478 -2.2577 -0.6393 -1.3022
   80SLPC     P 7362   3.380   5.748   6.324 -0.3479  0.1104 -0.0769
   80SLPC   O13 7363   3.305   5.633   6.285 -0.4742  0.2245  0.0059
   80SLPC   O14 7364   3.518   5.749   6.262  0.0473 -0.1568 -0.3155
   80SLPC   O12 7365   3.309   5.878   6.283  0.2940 -0.3201 -0.8761
   80SLPC   O11 7366   3.401   5.738   6.479  0.0841  0.1467  0.0555
   80SLPC    C1 7367   3.285   5.682   6.547  0.3139 -0.2523 -0.5184
   80SLPC    HA 7368   3.206   5.759   6.561 -0.3540 -0.8448 -0.9751
   80SLPC    HB 7369   3.224   5.611   6.488 -1.9387  1.4954 -0.4107
   80SLPC    C2 7370   3.328   5.616   6.682 -0.4760  0.2869 -0.1922
   80SLPC    HS 7371   3.237   5.572   6.729 -0.4810  1.0585  0.5456
   80SLPC   O21 7372   3.379   5.710   6.774  0.0630  0.0656 -0.4933
   80SLPC   C21 7373   3.294   5.797   6.826  0.1167  0.1035 -0.2354
   80SLPC   O22 7374   3.176   5.812   6.797 -0.6951 -0.5095 -0.6540
   80SLPC   C22 7375   3.367   5.878   6.941  0.5299 -0.2236 -0.1131
   80SLPC   H2R 7376   3.357   5.820   7.035 -0.3549 -1.0562 -0.7043
   80SLPC   H2S 7377   3.476   5.877   6.918  0.5397  1.6602 -0.2769
   80SLPC    C3 7378   3.435   5.496   6.665  0.7003 -0.6699  0.1827
   80SLPC    HX 7379   3.527   5.544   6.626  0.7002  0.2860  1.3198
   80SLPC    HY 7380   3.390   5.437   6.582  0.3245 -0.8317  0.5020
   80SLPC   O31 7381   3.467   5.422   6.788 -0.2832 -0.3663 -0.1123
   80SLPC   C31 7382   3.404   5.309   6.809  0.6414 -0.2228  0.0953
   80SLPC   O32 7383   3.322   5.255   6.735 -0.1994 -0.2098 -0.4192
   80SLPC   C32 7384   3.451   5.253   6.944  0.5413 -0.4701 -0.4336
   80SLPC   H2X 7385   3.481   5.339   7.008  0.2324  0.2233 -1.1970
   80SLPC   H2Y 7386   3.536   5.184   6.924  0.7775 -0.2278 -0.2651
   80SLPC   C23 7387   3.292   6.023   6.957 -0.3427  0.4727 -0.2512
   80SLPC   H3R 7388   3.188   6.004   6.992 -0.1847 -0.6328 -0.3442
   80SLPC   H3S 7389   3.289   6.079   6.861  2.0354 -1.1931 -1.3957
   80SLPC   C24 7390   3.347   6.112   7.072  1.0460  0.0919  0.1817
   80SLPC   H4R 7391   3.445   6.155   7.041  0.9926  0.0544 -0.0427
   80SLPC   H4S 7392   3.383   6.046   7.153  2.1500 -0.3410 -0.6272
   80SLPC   C25 7393   3.240   6.210   7.125 -0.6335 -0.1110  0.1243
   80SLPC   H5R 7394   3.307   6.277   7.182 -0.9948  0.4832 -0.1452
   80SLPC   H5S 7395   3.171   6.153   7.191  1.3935 -2.6025  0.2743
   80SLPC   C26 7396   3.176   6.303   7.012 -0.2076 -0.0299 -0.3226
   80SLPC   H6R 7397   3.097   6.243   6.963  0.1613  0.0844 -1.0760
   80SLPC   H6S 7398   3.258   6.333   6.942  0.6201 -0.1594  0.5752
   80SLPC   C27 7399   3.106   6.430   7.065 -1.2663 -0.5329  0.4251
   80SLPC   H7R 7400   3.093   6.511   6.990  0.5178  1.4340  2.1152
   80SLPC   H7S 7401   3.187   6.460   7.135 -0.6093 -0.0705 -0.5224
   80SLPC   C28 7402   2.971   6.408   7.147 -0.6754  0.1883 -0.0213
   80SLPC   H8R 7403   2.989   6.320   7.213  0.2050  0.8768  0.6829
   80SLPC   H8S 7404   2.887   6.383   7.079 -0.6967 -0.7903  0.3468
   80SLPC   C29 7405   2.943   6.532   7.225  0.2153  0.0033  0.1756
   80SLPC   H9R 7406   2.989   6.620   7.178 -1.1520  0.7859  0.2433
   80SLPC  C210 7407   2.884   6.548   7.346  0.4684  0.0594 -0.0490
   80SLPC  H10R 7408   2.877   6.650   7.387  2.0211  0.0671  0.2335
   80SLPC  C211 7409   2.815   6.448   7.440 -0.0172  0.0111  0.0741
   80SLPC  H11R 7410   2.844   6.344   7.416  1.2338 -0.1465  1.9809
   80SLPC  H11S 7411   2.705   6.450   7.424 -0.0059  0.6466  0.0680
   80SLPC  C212 7412   2.854   6.463   7.587 -0.5293  0.1221 -0.7335
   80SLPC  H12R 7413   2.785   6.520   7.651 -0.2350 -0.5758  0.2255
   80SLPC  C213 7414   2.968   6.429   7.651 -0.4679 -0.8785  0.1027
   80SLPC  H13R 7415   2.974   6.458   7.757 -1.8861 -0.7847  0.1793
   80SLPC  C214 7416   3.086   6.351   7.606  0.4766 -0.3478  0.2664
   80SLPC  H14R 7417   3.071   6.309   7.504  1.0565 -0.4246  0.2119
   80SLPC  H14S 7418   3.105   6.260   7.667  1.5214 -0.8373 -0.7379
   80SLPC  C215 7419   3.211   6.432   7.599 -0.2209 -0.4629 -0.1498
   80SLPC  H15R 7420   3.304   6.374   7.577  0.9732  1.3586 -0.1023
   80SLPC  H15S 7421   3.239   6.485   7.693  1.6055  0.5927 -1.2326
   80SLPC  C216 7422   3.217   6.545   7.495  0.2626 -0.3063 -0.7299
   80SLPC  H16R 7423   3.171   6.633   7.545  1.5518 -0.5053  0.9113
   80SLPC  H16S 7424   3.157   6.532   7.402 -0.0615 -0.3471 -0.5155
   80SLPC  C217 7425   3.367   6.588   7.481  0.6247  0.0994  0.5338
   80SLPC  H17R 7426   3.374   6.665   7.401 -1.1216 -0.1443  0.1005
   80SLPC  H17S 7427   3.422   6.499   7.443  1.3596  1.0379 -0.6684
   80SLPC  C218 7428   3.424   6.652   7.601 -0.5231 -0.8588 -0.5238
   80SLPC  H18R 7429   3.369   6.745   7.626 -0.6896 -1.2396  0.5834
   80SLPC  H18S 7430   3.525   6.691   7.578  0.1032 -1.5266  0.9707
   80SLPC  H18T 7431   3.429   6.589   7.692  0.9983 -0.2115 -0.1277
   80SLPC   C33 7432   3.339   5.168   7.013  0.3077 -0.1286 -0.4657
   80SLPC   H3X 7433   3.349   5.058   7.005 -1.6333 -0.3998  0.3262
   80SLPC   H3Y 7434   3.235   5.200   6.989  0.2011  0.2177  0.4007
   80SLPC   C34 7435   3.333   5.206   7.165  0.0232  0.2332  0.4051
   80SLPC   H4X 7436   3.231   5.186   7.203 -0.9841  0.9328 -1.7425
   80SLPC   H4Y 7437   3.349   5.314   7.186  0.2022  0.1040  0.9290
   80SLPC   C35 7438   3.438   5.117   7.242 -0.5309  0.0416 -0.5483
   80SLPC   H5X 7439   3.542   5.133   7.206 -0.4043 -1.4479 -0.9268
   80SLPC   H5Y 7440   3.421   5.009   7.220  1.8672 -0.2834 -1.1163
   80SLPC   C36 7441   3.440   5.135   7.396  0.1201 -0.2391 -0.2415
   80SLPC   H6X 7442   3.448   5.246   7.406  1.4239 -0.3874  0.4989
   80SLPC   H6Y 7443   3.534   5.100   7.442  0.8029  1.6451 -0.1254
   80SLPC   C37 7444   3.321   5.069   7.468 -0.1986 -0.2641 -0.6196
   80SLPC   H7X 7445   3.338   4.964   7.499 -1.7539  0.4073  3.0581
   80SLPC   H7Y 7446   3.241   5.071   7.390  0.4754  0.6354 -1.3017
   80SLPC   C38 7447   3.275   5.152   7.592  0.1863 -0.4379 -0.0810
   80SLPC   H8X 7448   3.203   5.098   7.657  0.5814 -1.4396 -0.4593
   80SLPC   H8Y 7449   3.237   5.252   7.563 -1.5279 -0.9263  0.3796
   80SLPC   C39 7450   3.398   5.179   7.678 -0.4709 -0.9113 -0.0957
   80SLPC   H9X 7451   3.470   5.239   7.619 -0.3085 -1.6050 -0.6213
   80SLPC   H9Y 7452   3.449   5.087   7.714  1.0625 -0.0131  0.1401
   80SLPC  C310 7453   3.364   5.262   7.799 -0.0348 -0.2501  0.0830
   80SLPC  H10X 7454   3.292   5.201   7.858 -1.1011  1.1300  0.2574
   80SLPC  H10Y 7455   3.311   5.356   7.776 -4.1121 -1.6392  2.7465
   80SLPC  C311 7456   3.484   5.305   7.878 -0.3176  0.0678  1.1007
   80SLPC  H11X 7457   3.540   5.381   7.820 -1.0831  0.4106  0.8010
   80SLPC  H11Y 7458   3.548   5.217   7.901 -1.4892 -0.7338  1.4300
   80SLPC  C312 7459   3.453   5.350   8.025  0.0891  0.3293 -0.1024
   80SLPC  H12X 7460   3.370   5.425   8.029  0.1971  0.4261  0.3649
   80SLPC  H12Y 7461   3.532   5.394   8.089  0.2457  0.9149 -0.6914
   80SLPC  C313 7462   3.408   5.216   8.099 -0.0154 -1.0996  0.3470
   80SLPC  H13X 7463   3.478   5.130   8.094 -0.7727 -1.7763  0.9258
   80SLPC  H13Y 7464   3.307   5.193   8.056 -1.3728  1.1021  2.1386
   80SLPC  C314 7465   3.387   5.246   8.251  0.1548 -0.2856  0.2643
   80SLPC  H14X 7466   3.468   5.314   8.285  1.1330 -1.5933  0.6752
   80SLPC  H14Y 7467   3.381   5.152   8.311 -0.9986 -0.2846  0.1616
   80SLPC  C315 7468   3.259   5.317   8.290  0.7255 -0.8153  0.0152
   80SLPC  H15X 7469   3.222   5.377   8.203  0.4418  2.1315  2.0064
   80SLPC  H15Y 7470   3.272   5.392   8.371  0.2921 -0.3381 -0.3463
   80SLPC  C316 7471   3.153   5.223   8.342 -0.3048  0.1023 -1.4827
   80SLPC  H16X 7472   3.184   5.185   8.442 -0.7701 -1.2900 -1.8484
   80SLPC  H16Y 7473   3.131   5.139   8.273  3.1265 -2.4365  0.2402
   80SLPC  C317 7474   3.016   5.291   8.367  0.0774 -0.2377  1.2504
   80SLPC  H17X 7475   2.967   5.329   8.274 -1.4502  0.0791  2.1537
   80SLPC  H17Y 7476   3.030   5.379   8.434  2.5299  1.2737 -1.0412
   80SLPC  C318 7477   2.913   5.195   8.421  0.2051 -0.5003  0.0070
   80SLPC  H18X 7478   2.915   5.104   8.357  1.3675 -1.7563  1.7336
   80SLPC  H18Y 7479   2.810   5.235   8.415  0.6791  0.5933 -1.8295
   80SLPC  H18Z 7480   2.938   5.155   8.522  0.5813 -1.7229 -0.5527
   81SAPS     N 7481   5.097   2.875  11.102 -0.5644 -0.0469 -0.1408
   81SAPS   HN1 7482   5.013   2.814  11.098 -0.6043  0.0433 -2.3313
   81SAPS   HN2 7483   5.085   2.937  11.184  0.6803  0.4904 -0.3441
   81SAPS   HN3 7484   5.066   2.926  11.016 -0.8721 -0.6374 -0.3845
   81SAPS   C12 7485   5.223   2.789  11.099  0.1337  0.0763  0.3775
   81SAPS  H12A 7486   5.307   2.857  11.093 -0.5343  0.8324 -0.9150
   81SAPS   C13 7487   5.244   2.715  11.231  0.1479  1.1895  0.5926
   81SAPS  O13A 7488   5.181   2.747  11.335  0.1149  0.2317  0.2297
   81SAPS  O13B 7489   5.317   2.609  11.240 -0.1652 -0.2444 -0.4962
   81SAPS   C11 7490   5.225   2.678  10.994 -0.3100 -0.7896  0.0663
   81SAPS  H11A 7491   5.138   2.609  10.998 -0.8617 -0.1274 -0.3100
   81SAPS  H11B 7492   5.320   2.621  10.994  0.1172 -0.1196  1.2725
   81SAPS     P 7493   5.172   2.681  10.746 -0.1044  0.3881 -0.1709
   81SAPS   O13 7494   5.212   2.539  10.754  0.3728  0.4110 -0.4999
   81SAPS   O14 7495   5.025   2.709  10.753 -0.2777  0.0659 -0.1382
   81SAPS   O12 7496   5.231   2.751  10.870  0.5086 -0.6606 -0.1234
   81SAPS   O11 7497   5.251   2.753  10.629 -0.4947  0.1832  0.1694
   81SAPS    C1 7498   5.354   2.678  10.560  0.2565  0.4960 -0.0356
   81SAPS    HA 7499   5.423   2.754  10.519  1.5066 -0.6805 -0.1885
   81SAPS    HB 7500   5.412   2.612  10.629 -0.7158  2.5332  2.9205
   81SAPS    C2 7501   5.299   2.583  10.442 -0.2213 -0.3170  0.1673
   81SAPS    HS 7502   5.350   2.613  10.347  0.7451  0.9881  1.0566
   81SAPS   O21 7503   5.154   2.599  10.422 -0.0265  0.2105 -0.4421
   81SAPS   C21 7504   5.124   2.715  10.375  0.4303 -0.9905  0.3289
   81SAPS   O22 7505   5.204   2.794  10.329  0.0527 -0.3306  0.5110
   81SAPS   C22 7506   4.975   2.736  10.384 -0.5645 -0.0582  0.3678
   81SAPS   H2R 7507   4.935   2.679  10.471 -1.4738  0.4139  0.2654
   81SAPS   H2S 7508   4.948   2.843  10.391 -1.9789 -0.3593 -0.1222
   81SAPS    C3 7509   5.326   2.431  10.459 -0.6114 -0.7977 -0.7301
   81SAPS    HX 7510   5.249   2.397  10.531  0.7406  0.2874  1.3372
   81SAPS    HY 7511   5.424   2.413  10.509 -1.6957  0.7842  2.2370
   81SAPS   O31 7512   5.316   2.360  10.335 -0.2468  0.7328  0.8460
   81SAPS   C31 7513   5.301   2.232  10.345  0.5279 -0.3828  0.0692
   81SAPS   O32 7514   5.282   2.173  10.454  0.5782 -0.4318  0.6674
   81SAPS   C32 7515   5.314   2.164  10.214  0.5923  0.4134 -0.3939
   81SAPS   H2X 7516   5.422   2.150  10.191  0.4504 -2.3597  0.2368
   81SAPS   H2Y 7517   5.267   2.229  10.137 -2.6117 -0.8255  0.3757
   81SAPS   C23 7518   4.914   2.678  10.254 -0.5773 -0.1928  0.4678
   81SAPS   H3R 7519   4.808   2.654  10.275 -0.6287  0.0361  0.4770
   81SAPS   H3S 7520   4.958   2.579  10.230  0.1007 -0.1715  1.5634
   81SAPS   C24 7521   4.946   2.758  10.128  0.2946 -0.6301  0.4923
   81SAPS   H4R 7522   4.940   2.686  10.044 -3.0693  0.1640 -0.0959
   81SAPS   H4S 7523   5.045   2.808  10.131  0.4871 -1.0457  2.7269
   81SAPS   C25 7524   4.844   2.867  10.103 -0.0930 -0.1909 -0.2038
   81SAPS   H5R 7525   4.888   2.967  10.099 -0.4682  0.0563  1.2452
   81SAPS   C26 7526   4.715   2.857  10.057 -0.6615 -0.7427 -0.6200
   81SAPS   H6R 7527   4.652   2.946  10.047 -0.2309 -0.3892 -0.2110
   81SAPS   C27 7528   4.645   2.727  10.038 -0.1481 -0.0952  0.6165
   81SAPS   H7R 7529   4.711   2.639  10.056 -0.8861 -0.5782  1.0218
   81SAPS   H7S 7530   4.634   2.715   9.928  0.9302 -1.2427  0.6005
   81SAPS   C28 7531   4.527   2.703  10.131 -0.3868 -0.2066  0.2495
   81SAPS   H8R 7532   4.565   2.674  10.230  1.5896 -0.6033 -0.5735
   81SAPS   C29 7533   4.395   2.687  10.095 -0.4096  0.0183  0.3420
   81SAPS   H9R 7534   4.327   2.656  10.175 -2.0331 -0.0831 -1.0263
   81SAPS  C210 7535   4.347   2.686   9.949  0.4650 -0.8089 -0.3613
   81SAPS  H10R 7536   4.367   2.785   9.901  0.9454 -0.5529  0.3509
   81SAPS  H10S 7537   4.237   2.690   9.959  0.6820  0.1479  3.0971
   81SAPS  C211 7538   4.392   2.579   9.857 -0.2645 -0.3174  0.4250
   81SAPS  H11R 7539   4.487   2.531   9.887  1.1434  0.9727 -1.7131
   81SAPS  C212 7540   4.345   2.541   9.737 -0.0543  0.4106 -0.4063
   81SAPS  H12R 7541   4.406   2.463   9.689  0.0728 -0.6985  1.4582
   81SAPS  C213 7542   4.223   2.591   9.666  0.3978 -0.4295 -0.3552
   81SAPS  H13R 7543   4.247   2.660   9.582 -1.0884  0.7368  0.1229
   81SAPS  H13S 7544   4.162   2.660   9.728  1.1847  1.0458 -1.1665
   81SAPS  C214 7545   4.138   2.484   9.615  0.2487  1.1330  0.1644
   81SAPS  H14R 7546   4.173   2.439   9.521 -1.1927  1.5981 -0.6301
   81SAPS  C215 7547   4.022   2.443   9.666 -0.8172  1.0748  0.0056
   81SAPS  H15R 7548   3.976   2.360   9.611  0.3962  0.1387  0.3600
   81SAPS  C216 7549   3.938   2.500   9.775 -0.2802 -0.0471  0.7084
   81SAPS  H16R 7550   3.831   2.503   9.744 -0.3995 -3.3485  0.4632
   81SAPS  H16S 7551   3.976   2.597   9.812  0.1951  0.4760 -1.0864
   81SAPS  C217 7552   3.931   2.408   9.900  0.0454  0.3542  0.4895
   81SAPS  H17R 7553   3.900   2.305   9.873  0.5650 -0.9016  4.2154
   81SAPS  H17S 7554   3.861   2.451   9.975 -1.9820  1.3016 -1.7884
   81SAPS  C218 7555   4.069   2.413   9.969 -0.2883 -0.2090 -0.2813
   81SAPS  H18R 7556   4.105   2.514   9.996  0.6542 -0.8280  0.9167
   81SAPS  H18S 7557   4.148   2.380   9.899 -1.6347 -2.3136 -0.9147
   81SAPS  C219 7558   4.083   2.332  10.104 -0.5644 -0.6372  0.3334
   81SAPS  H19R 7559   4.046   2.228  10.095 -2.8174  0.1298  0.1113
   81SAPS  H19S 7560   4.017   2.392  10.170 -1.2048 -2.1497  1.1041
   81SAPS  C220 7561   4.228   2.331  10.145  0.0691  0.2032 -0.2514
   81SAPS  H20R 7562   4.254   2.381  10.241 -1.7423 -0.0805  0.4355
   81SAPS  H20S 7563   4.300   2.363  10.067 -1.5064  1.4226 -1.2759
   81SAPS  H20T 7564   4.255   2.228  10.176  0.1910  0.4198  0.3888
   81SAPS   C33 7565   5.249   2.026  10.210  1.0299  0.2370 -0.2082
   81SAPS   H3X 7566   5.275   1.949  10.286  3.3054  0.7984 -0.3502
   81SAPS   H3Y 7567   5.284   1.984  10.113  2.1588 -1.3235  0.8241
   81SAPS   C34 7568   5.092   2.036  10.197 -0.6757 -0.1645  0.3485
   81SAPS   H4X 7569   5.045   2.137  10.189  0.4618  0.3672  0.0636
   81SAPS   H4Y 7570   5.059   1.981  10.287  1.2426  1.7643  2.3627
   81SAPS   C35 7571   5.049   1.944  10.076  0.8788  0.4119 -0.1101
   81SAPS   H5X 7572   4.938   1.941  10.068  0.7017 -0.2597  1.9839
   81SAPS   H5Y 7573   5.071   1.836  10.085  0.7109  0.1773 -2.0688
   81SAPS   C36 7574   5.105   1.992   9.945  0.6960  0.8280  0.4102
   81SAPS   H6X 7575   5.216   1.989   9.942  0.7602  0.2065  2.2139
   81SAPS   H6Y 7576   5.080   2.100   9.934  0.3837  0.6672 -0.5028
   81SAPS   C37 7577   5.040   1.913   9.830  0.0270 -0.7600 -1.0602
   81SAPS   H7X 7578   4.931   1.917   9.852  0.1380  4.1976 -0.4118
   81SAPS   H7Y 7579   5.073   1.807   9.840  0.2849 -0.5324  0.9641
   81SAPS   C38 7580   5.066   1.984   9.697  0.2844  0.2908  0.0843
   81SAPS   H8X 7581   5.175   1.989   9.674  0.1914 -2.9574 -1.6501
   81SAPS   H8Y 7582   5.033   2.090   9.692 -0.0193  0.1410 -2.5898
   81SAPS   C39 7583   4.993   1.926   9.580 -0.1162 -0.0322  0.8734
   81SAPS   H9X 7584   4.887   1.905   9.607 -1.5167  1.7439 -2.5695
   81SAPS   H9Y 7585   5.038   1.828   9.553 -0.2648  0.0004  0.4948
   81SAPS  C310 7586   4.982   2.019   9.459  0.7123  0.0552  0.4500
   81SAPS  H10X 7587   5.086   2.055   9.445  0.7734 -0.9246 -2.2535
   81SAPS  H10Y 7588   4.914   2.106   9.473 -0.4217 -0.6375 -0.5783
   81SAPS  C311 7589   4.933   1.954   9.335 -0.2802  0.1256 -0.4834
   81SAPS  H11X 7590   4.831   1.913   9.325 -0.2465  0.4386 -2.4244
   81SAPS  H11Y 7591   5.005   1.870   9.329 -0.4346 -0.1005  0.6467
   81SAPS  C312 7592   4.950   2.030   9.204  0.2825 -0.5090 -0.0105
   81SAPS  H12X 7593   4.969   1.958   9.121  0.2708 -0.5850  0.0532
   81SAPS  H12Y 7594   5.028   2.109   9.205 -0.4768  0.2896 -1.1983
   81SAPS  C313 7595   4.828   2.116   9.156 -0.4697 -0.1938  0.1039
   81SAPS  H13X 7596   4.817   2.220   9.191 -0.4450 -0.1493 -0.0192
   81SAPS  H13Y 7597   4.732   2.076   9.196  1.6964 -1.6860  4.4410
   81SAPS  C314 7598   4.839   2.132   9.007  0.3475 -0.5607  0.3492
   81SAPS  H14X 7599   4.858   2.033   8.959  1.1000 -0.0129 -0.5222
   81SAPS  H14Y 7600   4.933   2.190   8.991  0.4714 -0.6536  0.7236
   81SAPS  C315 7601   4.713   2.199   8.948 -0.2977 -0.0063  0.4982
   81SAPS  H15X 7602   4.727   2.308   8.962  3.0911 -0.5270  2.1523
   81SAPS  H15Y 7603   4.618   2.175   9.000  0.2577  0.4037  1.7354
   81SAPS  C316 7604   4.692   2.178   8.795  0.3600 -0.9308 -0.6862
   81SAPS  H16X 7605   4.696   2.068   8.776 -0.0295 -1.2194  0.7989
   81SAPS  H16Y 7606   4.769   2.231   8.736 -1.5415  1.1554 -1.4522
   81SAPS  C317 7607   4.557   2.224   8.746  0.1755 -0.5806  0.5745
   81SAPS  H17X 7608   4.525   2.330   8.754 -0.8435 -0.9504  1.7679
   81SAPS  H17Y 7609   4.477   2.158   8.787 -0.7963 -1.0682 -1.8899
   81SAPS  C318 7610   4.553   2.194   8.595  0.6505  0.1109  0.8122
   81SAPS  H18X 7611   4.592   2.282   8.540 -0.3779 -1.4500 -2.7374
   81SAPS  H18Y 7612   4.448   2.182   8.561  1.3974 -0.9025 -1.3508
   81SAPS  H18Z 7613   4.609   2.103   8.564 -1.9024 -1.3256  0.1153
   82SAPS     N 7614   2.688   0.284  11.038  0.1244 -0.1196 -0.0799
   82SAPS   HN1 7615   2.645   0.211  11.099 -1.5972  1.9845  1.3839
   82SAPS   HN2 7616   2.667   0.257  10.940 -0.4513  1.2239 -0.3464
   82SAPS   HN3 7617   2.790   0.303  11.046 -0.5570  4.2891  0.8636
   82SAPS   C12 7618   2.616   0.406  11.088  0.1635  0.6674  0.2242
   82SAPS  H12A 7619   2.512   0.377  11.089  1.0458 -3.1185 -0.7982
   82SAPS   C13 7620   2.659   0.447  11.227 -0.2614  0.0686 -0.1473
   82SAPS  O13A 7621   2.719   0.363  11.305 -0.4219  0.2635  0.0186
   82SAPS  O13B 7622   2.600   0.545  11.283 -0.1290 -0.1609 -0.2433
   82SAPS   C11 7623   2.657   0.521  10.994 -0.0227 -0.5715  0.2468
   82SAPS  H11A 7624   2.767   0.532  10.989 -0.1607  0.1031 -2.2228
   82SAPS  H11B 7625   2.626   0.620  11.034 -3.4281 -1.1114 -0.7073
   82SAPS     P 7626   2.700   0.551  10.730 -0.0681 -0.0513  0.2448
   82SAPS   O13 7627   2.844   0.532  10.759  0.0090  0.2107  0.2383
   82SAPS   O14 7628   2.638   0.479  10.613 -0.1729  0.2213 -0.1940
   82SAPS   O12 7629   2.612   0.511  10.859  0.0471 -0.3074  0.2587
   82SAPS   O11 7630   2.681   0.703  10.710  0.1817  0.5472 -0.7630
   82SAPS    C1 7631   2.557   0.758  10.665 -0.4679 -0.5429  0.9926
   82SAPS    HA 7632   2.472   0.693  10.694  0.7920 -1.9384  1.7216
   82SAPS    HB 7633   2.540   0.856  10.713  0.5353  0.6896 -1.0320
   82SAPS    C2 7634   2.546   0.773  10.508  0.1254 -0.2258 -0.1642
   82SAPS    HS 7635   2.568   0.669  10.479  3.0684 -0.9665  3.9093
   82SAPS   O21 7636   2.640   0.866  10.454 -0.2913  0.2742 -0.1469
   82SAPS   C21 7637   2.690   0.833  10.335 -0.2843 -0.3168  0.1263
   82SAPS   O22 7638   2.665   0.737  10.269  0.4894  0.4425  0.0894
   82SAPS   C22 7639   2.787   0.952  10.301 -0.2327  0.2091  0.1778
   82SAPS   H2R 7640   2.873   0.944  10.371  0.0191  1.5019  0.0351
   82SAPS   H2S 7641   2.818   0.935  10.196  0.4612  1.4966  0.1564
   82SAPS    C3 7642   2.406   0.813  10.454  0.6560  0.0128 -0.3391
   82SAPS    HX 7643   2.402   0.924  10.453 -3.3965  0.0218 -1.0218
   82SAPS    HY 7644   2.321   0.769  10.511 -1.6335  1.0092 -2.7763
   82SAPS   O31 7645   2.396   0.755  10.320 -0.2047 -0.1884  0.4537
   82SAPS   C31 7646   2.371   0.833  10.214 -0.3038  0.1997  0.2470
   82SAPS   O32 7647   2.330   0.947  10.225 -0.0184 -0.2235  0.8278
   82SAPS   C32 7648   2.396   0.768  10.082 -0.1752 -0.9244 -0.1615
   82SAPS   H2X 7649   2.348   0.670  10.097  2.7922 -2.2430  1.6378
   82SAPS   H2Y 7650   2.507   0.757  10.083  0.2098  1.8885  1.9819
   82SAPS   C23 7651   2.728   1.086  10.327  0.7550 -1.4197 -0.0920
   82SAPS   H3R 7652   2.812   1.155  10.349 -1.9175  3.3966 -3.1371
   82SAPS   H3S 7653   2.667   1.099  10.419  1.3250 -1.1648  0.2486
   82SAPS   C24 7654   2.655   1.131  10.200  0.5182 -0.3164 -0.4620
   82SAPS   H4R 7655   2.581   1.211  10.223  0.1264 -1.4257  2.7016
   82SAPS   H4S 7656   2.603   1.039  10.167 -1.5029  0.8737 -0.7823
   82SAPS   C25 7657   2.749   1.194  10.100  0.0305 -0.3762 -0.0390
   82SAPS   H5R 7658   2.822   1.257  10.153 -0.4508  1.9380 -1.9377
   82SAPS   C26 7659   2.761   1.178   9.968  0.0789 -0.6607  0.2812
   82SAPS   H6R 7660   2.835   1.241   9.917  0.4165  0.3318  1.9124
   82SAPS   C27 7661   2.672   1.095   9.876 -0.4476  0.8572  0.6409
   82SAPS   H7R 7662   2.605   1.162   9.818 -1.2997 -0.0299  0.5758
   82SAPS   H7S 7663   2.596   1.027   9.920 -0.1518 -1.3309 -2.0183
   82SAPS   C28 7664   2.761   1.003   9.790  0.2964  0.0203 -0.3560
   82SAPS   H8R 7665   2.825   0.929   9.840 -1.1917 -1.4446 -0.5423
   82SAPS   C29 7666   2.784   1.017   9.658 -0.1524 -0.2868  0.2110
   82SAPS   H9R 7667   2.873   0.968   9.616  0.6597  0.2685  1.2317
   82SAPS  C210 7668   2.721   1.121   9.570 -0.1711  0.6423 -0.1523
   82SAPS  H10R 7669   2.645   1.183   9.622  0.6346 -1.3867  3.9365
   82SAPS  H10S 7670   2.671   1.066   9.488  2.5935 -0.2250 -1.3699
   82SAPS  C211 7671   2.819   1.223   9.522 -0.0813  0.2587 -0.6979
   82SAPS  H11R 7672   2.899   1.251   9.592 -0.2459  0.9770 -0.7805
   82SAPS  C212 7673   2.826   1.283   9.399  0.2825 -0.5567  0.3172
   82SAPS  H12R 7674   2.899   1.363   9.381 -1.0944  0.4559 -1.0749
   82SAPS  C213 7675   2.732   1.263   9.292  0.5489  0.1058 -0.0358
   82SAPS  H13R 7676   2.727   1.361   9.240 -3.0147 -0.6378 -1.4540
   82SAPS  H13S 7677   2.628   1.243   9.327  1.1135  0.4415  1.9334
   82SAPS  C214 7678   2.780   1.144   9.202  0.8627 -0.2626  0.4722
   82SAPS  H14R 7679   2.797   1.050   9.256 -0.6839 -1.0490 -0.3443
   82SAPS  C215 7680   2.814   1.150   9.071  0.3673  1.1343 -0.1359
   82SAPS  H15R 7681   2.831   1.055   9.018 -1.5235  2.1834 -2.8173
   82SAPS  C216 7682   2.808   1.270   8.988 -0.7032 -0.6751 -0.1170
   82SAPS  H16R 7683   2.911   1.311   8.979 -0.0223 -2.6017 -2.1359
   82SAPS  H16S 7684   2.736   1.346   9.026 -0.5018  0.2883 -1.5703
   82SAPS  C217 7685   2.766   1.252   8.839  0.1674  0.2589 -0.0859
   82SAPS  H17R 7686   2.710   1.336   8.791 -2.4280 -1.7816 -0.8344
   82SAPS  H17S 7687   2.692   1.170   8.825  1.2278 -0.4503 -1.8653
   82SAPS  C218 7688   2.892   1.220   8.761 -0.6615 -0.3454 -0.0055
   82SAPS  H18R 7689   2.933   1.123   8.798 -0.4869 -0.7218 -1.1460
   82SAPS  H18S 7690   2.968   1.300   8.772 -3.3746  2.4459 -0.3858
   82SAPS  C219 7691   2.871   1.192   8.616 -0.7156 -0.7445 -0.0287
   82SAPS  H19R 7692   2.846   1.285   8.559 -2.5557 -1.6592 -0.8032
   82SAPS  H19S 7693   2.777   1.133   8.606 -1.4525  0.5834 -1.3253
   82SAPS  C220 7694   2.986   1.113   8.546 -0.0460  0.4304  0.5096
   82SAPS  H20R 7695   2.991   1.004   8.565 -0.0989 -0.3608 -3.2559
   82SAPS  H20S 7696   3.080   1.170   8.565 -0.8967  3.1082 -2.4546
   82SAPS  H20T 7697   2.967   1.112   8.436 -0.9597 -0.0501  0.6656
   82SAPS   C33 7698   2.351   0.856   9.964 -0.4695 -0.0599  0.2046
   82SAPS   H3X 7699   2.389   0.960   9.972  2.0178 -0.8071 -0.8313
   82SAPS   H3Y 7700   2.240   0.861   9.961 -0.4569  0.6291  0.6886
   82SAPS   C34 7701   2.406   0.794   9.832  0.0390 -0.1652  0.5916
   82SAPS   H4X 7702   2.408   0.685   9.851 -2.5944 -1.2745 -3.9818
   82SAPS   H4Y 7703   2.507   0.830   9.805 -1.1016  2.4461 -0.5807
   82SAPS   C35 7704   2.311   0.814   9.708  0.2433 -0.1758  0.0685
   82SAPS   H5X 7705   2.209   0.791   9.746  0.3598  1.8730  1.8294
   82SAPS   H5Y 7706   2.335   0.744   9.626  1.4013  3.3902 -2.9253
   82SAPS   C36 7707   2.298   0.957   9.644  0.3343  0.9733 -0.3444
   82SAPS   H6X 7708   2.397   0.996   9.613  0.2835  0.4167 -1.2125
   82SAPS   H6Y 7709   2.252   1.031   9.714  0.2777  3.3783 -2.7537
   82SAPS   C37 7710   2.210   0.956   9.519  0.1883 -0.5121  0.4800
   82SAPS   H7X 7711   2.209   1.063   9.491 -0.7170  0.3340  3.3275
   82SAPS   H7Y 7712   2.104   0.929   9.542  0.5352 -0.3087  2.5396
   82SAPS   C38 7713   2.272   0.889   9.390 -0.1843  0.4964 -0.0924
   82SAPS   H8X 7714   2.256   0.779   9.399  1.3693  0.3243  0.8835
   82SAPS   H8Y 7715   2.379   0.918   9.381  0.6320 -2.0326  0.6752
   82SAPS   C39 7716   2.219   0.941   9.256  0.7829  0.0430 -0.3966
   82SAPS   H9X 7717   2.242   1.050   9.253  0.5131  0.0750 -2.3656
   82SAPS   H9Y 7718   2.109   0.926   9.255  0.8087 -0.1448 -1.3006
   82SAPS  C310 7719   2.286   0.873   9.137 -0.5095 -1.1299  0.0495
   82SAPS  H10X 7720   2.262   0.765   9.142 -2.4344 -0.7393 -0.0927
   82SAPS  H10Y 7721   2.395   0.891   9.151 -1.0061  0.6435  2.3791
   82SAPS  C311 7722   2.225   0.918   8.999  0.3095  1.1817 -0.6113
   82SAPS  H11X 7723   2.215   1.029   8.997  0.5901  1.2229 -0.0348
   82SAPS  H11Y 7724   2.128   0.865   8.998  0.7988  0.2698 -1.3446
   82SAPS  C312 7725   2.301   0.876   8.875 -0.1238  0.8687  0.3789
   82SAPS  H12X 7726   2.232   0.911   8.795 -2.0065  1.2033  2.0637
   82SAPS  H12Y 7727   2.303   0.765   8.870 -0.0864  0.6975  2.7542
   82SAPS  C313 7728   2.445   0.930   8.860  0.0980 -0.3303 -0.0934
   82SAPS  H13X 7729   2.508   0.871   8.929 -0.1499  1.0519  1.3677
   82SAPS  H13Y 7730   2.453   1.032   8.902 -2.3045 -0.3397  0.5414
   82SAPS  C314 7731   2.498   0.903   8.723 -0.1608 -0.2485  0.5455
   82SAPS  H14X 7732   2.603   0.934   8.709 -0.5317  0.8948  0.2119
   82SAPS  H14Y 7733   2.452   0.976   8.654 -2.8483 -0.9266  1.4925
   82SAPS  C315 7734   2.491   0.752   8.683  0.1729  0.2699  0.5672
   82SAPS  H15X 7735   2.525   0.737   8.578 -0.0441 -1.1894  0.6812
   82SAPS  H15Y 7736   2.390   0.707   8.677 -0.6902  2.2103 -0.5346
   82SAPS  C316 7737   2.587   0.664   8.764 -0.2516 -0.0488 -0.2073
   82SAPS  H16X 7738   2.558   0.684   8.869  2.1233 -3.2987  1.2350
   82SAPS  H16Y 7739   2.693   0.696   8.771 -0.1275 -0.7952  2.2289
   82SAPS  C317 7740   2.569   0.519   8.727  0.4621 -0.0401 -0.2820
   82SAPS  H17X 7741   2.574   0.506   8.617 -2.4305  1.5515 -0.6894
   82SAPS  H17Y 7742   2.462   0.505   8.751  0.6759  0.9566  1.4253
   82SAPS  C318 7743   2.656   0.419   8.808 -0.6101  0.4111  0.0708
   82SAPS  H18X 7744   2.638   0.316   8.769 -1.1929  0.4564  0.2211
   82SAPS  H18Y 7745   2.639   0.417   8.918  1.2646 -1.2547  0.3850
   82SAPS  H18Z 7746   2.758   0.458   8.788 -0.4793 -0.0267 -0.1331
   83SAPS     N 7747   4.794   2.584  10.815  0.3199 -0.0372 -0.1052
   83SAPS   HN1 7748   4.729   2.665  10.814 -0.8938 -0.9932 -0.6129
   83SAPS   HN2 7749   4.881   2.635  10.788 -0.7053  2.4364  0.9785
   83SAPS   HN3 7750   4.770   2.521  10.736  0.5392 -1.8788  1.2070
   83SAPS   C12 7751   4.801   2.510  10.942 -0.8955 -0.2659  0.2336
   83SAPS  H12A 7752   4.864   2.426  10.916 -1.7007 -0.4520 -1.1646
   83SAPS   C13 7753   4.855   2.584  11.067  0.3342  0.6083  0.1609
   83SAPS  O13A 7754   4.883   2.703  11.058 -0.3692 -0.2628 -0.1798
   83SAPS  O13B 7755   4.917   2.503  11.142 -0.4954 -0.2327 -0.3409
   83SAPS   C11 7756   4.663   2.454  10.974  0.2857 -0.5286 -1.0363
   83SAPS  H11A 7757   4.602   2.534  11.022 -0.1789 -1.9668  0.9015
   83SAPS  H11B 7758   4.680   2.370  11.045  0.2391  0.2649 -0.0604
   83SAPS     P 7759   4.447   2.319  10.899  0.0422 -0.2316  0.2862
   83SAPS   O13 7760   4.431   2.309  11.043  0.3467  0.3018 -0.3505
   83SAPS   O14 7761   4.330   2.358  10.812 -0.4936  0.8664  0.3952
   83SAPS   O12 7762   4.578   2.405  10.872 -0.1879  0.0277 -0.6146
   83SAPS   O11 7763   4.488   2.172  10.852  0.1612 -0.0596  0.0289
   83SAPS    C1 7764   4.599   2.152  10.765  0.0864  0.2407  0.1617
   83SAPS    HA 7765   4.686   2.217  10.790 -1.5187  2.2453  0.8618
   83SAPS    HB 7766   4.632   2.046  10.769  0.5482  0.3731 -0.0891
   83SAPS    C2 7767   4.576   2.168  10.614 -0.1534  0.9928 -0.3806
   83SAPS    HS 7768   4.584   2.276  10.590  2.3388  0.8736 -0.3500
   83SAPS   O21 7769   4.448   2.119  10.582  0.6869 -0.5376  0.0092
   83SAPS   C21 7770   4.387   2.182  10.481  0.5310  0.1857 -0.4875
   83SAPS   O22 7771   4.428   2.268  10.406  0.2922 -0.0007 -0.4138
   83SAPS   C22 7772   4.243   2.123  10.475 -0.7915 -0.3461 -0.2773
   83SAPS   H2R 7773   4.188   2.155  10.566 -0.4871 -0.2247 -0.1303
   83SAPS   H2S 7774   4.181   2.177  10.401 -1.1849 -0.7314 -0.2275
   83SAPS    C3 7775   4.686   2.080  10.544 -0.0707  0.1442  0.2538
   83SAPS    HX 7776   4.663   1.976  10.577 -0.1440  0.1123  0.1032
   83SAPS    HY 7777   4.788   2.105  10.580 -0.0031 -1.9094  1.6576
   83SAPS   O31 7778   4.675   2.087  10.396 -0.2366 -0.3658 -0.5162
   83SAPS   C31 7779   4.705   2.213  10.338 -0.1163  0.0647 -0.3494
   83SAPS   O32 7780   4.753   2.302  10.405  0.5238  0.6718 -0.4665
   83SAPS   C32 7781   4.677   2.226  10.190 -0.2147  0.8707  0.5461
   83SAPS   H2X 7782   4.567   2.219  10.175 -0.1606  0.8521  0.1220
   83SAPS   H2Y 7783   4.727   2.139  10.143 -0.7989  0.1411  1.2605
   83SAPS   C23 7784   4.234   1.964  10.472 -0.2076 -0.8857 -0.3250
   83SAPS   H3R 7785   4.130   1.942  10.504 -0.5329  0.5943 -0.3257
   83SAPS   H3S 7786   4.299   1.925  10.553  1.1998 -2.4667 -2.1064
   83SAPS   C24 7787   4.263   1.901  10.342 -0.3159 -0.1794  0.5015
   83SAPS   H4R 7788   4.194   1.960  10.278 -1.4900 -1.1400  0.8582
   83SAPS   H4S 7789   4.233   1.794  10.340  1.1881 -0.6199 -0.4295
   83SAPS   C25 7790   4.410   1.901  10.297  0.2514  0.1021 -0.6545
   83SAPS   H5R 7791   4.480   1.854  10.367 -0.6929 -1.1348 -0.4955
   83SAPS   C26 7792   4.454   1.945  10.177 -0.8014  0.0412  0.0949
   83SAPS   H6R 7793   4.562   1.946  10.156 -0.9638 -2.1592 -1.2111
   83SAPS   C27 7794   4.372   1.991  10.063 -0.4281 -0.4833  0.5914
   83SAPS   H7R 7795   4.426   2.060   9.995 -1.4825  0.0117  0.2280
   83SAPS   H7S 7796   4.279   2.046  10.089  0.1704  0.5054  0.6897
   83SAPS   C28 7797   4.335   1.870   9.978  0.7399  0.0427  0.6092
   83SAPS   H8R 7798   4.294   1.783  10.031  1.2328  0.0307  0.9826
   83SAPS   C29 7799   4.341   1.863   9.841  0.1023 -0.0339  0.2477
   83SAPS   H9R 7800   4.305   1.769   9.797  3.1970 -0.9975 -0.4962
   83SAPS  C210 7801   4.385   1.975   9.744 -0.5701 -0.0427  0.4575
   83SAPS  H10R 7802   4.373   2.077   9.786  0.1749  0.9406 -1.5839
   83SAPS  H10S 7803   4.313   1.970   9.659 -1.4740 -2.1649  1.2661
   83SAPS  C211 7804   4.528   1.962   9.698 -0.4479  0.0780 -0.2895
   83SAPS  H11R 7805   4.605   1.996   9.769  0.9393 -3.1640 -0.0525
   83SAPS  C212 7806   4.558   1.898   9.586 -0.5254 -0.2112  0.2921
   83SAPS  H12R 7807   4.666   1.906   9.567 -0.6878  1.0483 -0.1916
   83SAPS  C213 7808   4.464   1.831   9.488  0.0680 -0.1445 -0.6709
   83SAPS  H13R 7809   4.450   1.891   9.395  0.3189 -2.0657 -2.0096
   83SAPS  H13S 7810   4.361   1.821   9.529  0.4542 -0.3397  0.2566
   83SAPS  C214 7811   4.494   1.690   9.451 -0.6838  0.2786 -0.6577
   83SAPS  H14R 7812   4.447   1.615   9.517 -1.2886  0.7568 -0.5364
   83SAPS  C215 7813   4.558   1.645   9.340 -0.6016 -0.5168 -0.4356
   83SAPS  H15R 7814   4.582   1.538   9.330 -1.3071 -0.6078 -1.3262
   83SAPS  C216 7815   4.598   1.746   9.232  0.2537 -0.0582  0.2744
   83SAPS  H16R 7816   4.676   1.693   9.173 -1.6351 -1.8690 -0.7572
   83SAPS  H16S 7817   4.657   1.829   9.276 -2.0606  0.7105  2.0974
   83SAPS  C217 7818   4.487   1.800   9.144  0.5217 -0.3788 -0.6197
   83SAPS  H17R 7819   4.407   1.831   9.215  1.2304 -1.5404  0.7330
   83SAPS  H17S 7820   4.443   1.718   9.085  1.9077 -1.5247 -0.1069
   83SAPS  C218 7821   4.517   1.903   9.029 -0.6930  0.0426 -0.2143
   83SAPS  H18R 7822   4.583   1.854   8.954 -1.6219  1.3429 -1.9740
   83SAPS  H18S 7823   4.574   1.985   9.077 -0.9113  0.8679 -1.3053
   83SAPS  C219 7824   4.384   1.943   8.969  0.0291 -0.2202  1.0008
   83SAPS  H19R 7825   4.389   2.050   8.940  1.3875 -0.4742  0.2140
   83SAPS  H19S 7826   4.311   1.934   9.053  0.7599 -1.3305  1.5373
   83SAPS  C220 7827   4.348   1.854   8.857 -0.2213  0.1039 -0.2346
   83SAPS  H20R 7828   4.415   1.861   8.769 -1.2806 -0.6431 -1.1234
   83SAPS  H20S 7829   4.251   1.883   8.812 -0.2962 -0.7606 -0.6425
   83SAPS  H20T 7830   4.352   1.746   8.884  1.2687  0.1098 -0.3428
   83SAPS   C33 7831   4.728   2.360  10.126  0.0810 -0.2150 -0.7494
   83SAPS   H3X 7832   4.836   2.374  10.147 -0.5631  2.2999  1.4254
   83SAPS   H3Y 7833   4.680   2.442  10.184 -2.1546 -1.2567 -1.0103
   83SAPS   C34 7834   4.687   2.353   9.974  0.0170 -1.0998 -0.7208
   83SAPS   H4X 7835   4.722   2.447   9.927  0.6499  0.7205  3.0577
   83SAPS   H4Y 7836   4.576   2.354   9.971  0.0279 -1.4486 -1.4358
   83SAPS   C35 7837   4.761   2.245   9.898 -0.2250  0.3380 -0.2286
   83SAPS   H5X 7838   4.698   2.155   9.918  0.7780 -0.5696 -0.9811
   83SAPS   H5Y 7839   4.859   2.224   9.947 -0.1652  1.9837  0.4077
   83SAPS   C36 7840   4.775   2.256   9.748  0.7387  0.7138 -0.4269
   83SAPS   H6X 7841   4.788   2.152   9.712 -0.2541  0.0712  0.9798
   83SAPS   H6Y 7842   4.859   2.323   9.724  2.1770 -0.8173  0.1522
   83SAPS   C37 7843   4.645   2.302   9.678  0.5593 -0.2701  0.2919
   83SAPS   H7X 7844   4.628   2.411   9.688  1.0716 -0.0535 -0.9888
   83SAPS   H7Y 7845   4.552   2.265   9.727 -0.1011  3.3470  2.0985
   83SAPS   C38 7846   4.643   2.266   9.524  0.0681 -0.3584 -0.3524
   83SAPS   H8X 7847   4.670   2.159   9.512 -0.1727 -0.2901 -1.6560
   83SAPS   H8Y 7848   4.726   2.328   9.482 -1.3817  0.9356 -1.4290
   83SAPS   C39 7849   4.517   2.307   9.451 -1.0085  1.1061 -0.5570
   83SAPS   H9X 7850   4.484   2.407   9.487  1.0410  1.9548 -0.8430
   83SAPS   H9Y 7851   4.438   2.234   9.475  0.0269 -0.1633 -0.8930
   83SAPS  C310 7852   4.541   2.302   9.299  0.5888 -0.2347 -1.0003
   83SAPS  H10X 7853   4.536   2.197   9.262  0.6575 -0.0918 -1.4126
   83SAPS  H10Y 7854   4.629   2.367   9.285  1.2796  0.1737  3.5089
   83SAPS  C311 7855   4.434   2.373   9.213  0.2621 -0.4070  0.3154
   83SAPS  H11X 7856   4.331   2.336   9.229  0.0887 -1.0541 -1.9560
   83SAPS  H11Y 7857   4.465   2.332   9.115  0.7489  0.2874  0.1700
   83SAPS  C312 7858   4.446   2.526   9.224 -0.7882  0.1870 -0.3495
   83SAPS  H12X 7859   4.542   2.563   9.182 -1.2865  0.4651 -1.2770
   83SAPS  H12Y 7860   4.435   2.542   9.333  0.4948  0.6675 -0.2795
   83SAPS  C313 7861   4.334   2.585   9.141  0.1979 -0.4267  1.1259
   83SAPS  H13X 7862   4.340   2.694   9.163  1.6202 -0.1627 -0.3791
   83SAPS  H13Y 7863   4.241   2.554   9.193  0.1497  0.0116  1.3068
   83SAPS  C314 7864   4.338   2.570   8.994 -0.2590 -0.0095  0.7779
   83SAPS  H14X 7865   4.378   2.470   8.969  0.2495  0.0758  1.2461
   83SAPS  H14Y 7866   4.412   2.642   8.953 -0.1644 -0.1855  0.6374
   83SAPS  C315 7867   4.205   2.589   8.930  0.5107 -0.0160 -0.0942
   83SAPS  H15X 7868   4.160   2.687   8.957  0.0374 -0.1922 -0.2323
   83SAPS  H15Y 7869   4.144   2.500   8.957  0.7792 -1.0482 -2.5581
   83SAPS  C316 7870   4.212   2.588   8.778  0.4097 -0.1926 -0.1016
   83SAPS  H16X 7871   4.292   2.517   8.747 -0.0453 -0.8189  0.1457
   83SAPS  H16Y 7872   4.248   2.690   8.750  2.9370  0.0374  3.3176
   83SAPS  C317 7873   4.085   2.541   8.716 -0.9130 -0.1225 -0.0583
   83SAPS  H17X 7874   3.999   2.611   8.721  0.2085  1.5677 -2.4480
   83SAPS  H17Y 7875   4.050   2.451   8.772  0.6385 -0.1511  0.9312
   83SAPS  C318 7876   4.082   2.520   8.562  0.0169  0.4345 -0.2409
   83SAPS  H18X 7877   3.985   2.472   8.536  0.6214 -0.8161 -0.2351
   83SAPS  H18Y 7878   4.169   2.456   8.534  0.3965  0.9772 -0.3095
   83SAPS  H18Z 7879   4.080   2.615   8.505  0.4433  1.3736  1.2654
   84SAPS     N 7880   5.356   0.781  10.858  0.1726 -0.6150  0.3115
   84SAPS   HN1 7881   5.264   0.828  10.848  1.2354  1.2261 -1.9483
   84SAPS   HN2 7882   5.429   0.851  10.832  1.2150 -1.6756  0.2881
   84SAPS   HN3 7883   5.365   0.699  10.794 -1.4380  0.1619 -0.9687
   84SAPS   C12 7884   5.357   0.751  10.999 -0.8791  0.2939 -1.0934
   84SAPS  H12A 7885   5.445   0.690  11.013 -1.5199 -0.5337 -0.6027
   84SAPS   C13 7886   5.374   0.875  11.093  0.8884 -0.2392 -0.0842
   84SAPS  O13A 7887   5.393   0.982  11.034  0.3349 -0.6707  0.0854
   84SAPS  O13B 7888   5.359   0.869  11.219  0.1859 -0.0598  0.4536
   84SAPS   C11 7889   5.230   0.674  11.040  0.4867 -0.0418  0.1054
   84SAPS  H11A 7890   5.143   0.733  11.006 -0.6117 -0.8668  1.3739
   84SAPS  H11B 7891   5.223   0.655  11.149 -2.3113 -4.4619 -0.5602
   84SAPS     P 7892   5.157   0.483  10.869  0.0525  0.2295 -0.3897
   84SAPS   O13 7893   5.174   0.337  10.870  0.2467 -0.0380 -0.8440
   84SAPS   O14 7894   5.012   0.527  10.880  0.2595  0.0970  0.4642
   84SAPS   O12 7895   5.238   0.543  10.987  0.4487 -0.1764 -0.1405
   84SAPS   O11 7896   5.232   0.544  10.742  0.0935  0.1630 -0.0680
   84SAPS    C1 7897   5.161   0.534  10.618  0.2516 -0.1033 -0.5329
   84SAPS    HA 7898   5.122   0.432  10.601  0.0187 -0.1587  0.2760
   84SAPS    HB 7899   5.077   0.607  10.624 -0.7976 -1.1683 -1.7779
   84SAPS    C2 7900   5.249   0.570  10.493  0.8513 -0.3581 -0.0304
   84SAPS    HS 7901   5.316   0.653  10.524 -0.3318  0.0226  1.6700
   84SAPS   O21 7902   5.165   0.624  10.381  0.1554  0.1974 -0.1400
   84SAPS   C21 7903   5.137   0.748  10.384  1.1630 -0.0010 -0.6027
   84SAPS   O22 7904   5.170   0.818  10.480  0.2708  0.3074  0.1638
   84SAPS   C22 7905   5.054   0.800  10.273 -0.3143 -0.1791  0.4500
   84SAPS   H2R 7906   5.019   0.706  10.224  0.5932 -0.9485  1.2463
   84SAPS   H2S 7907   4.966   0.856  10.312  1.2882  1.3102  2.0567
   84SAPS    C3 7908   5.343   0.458  10.458  0.0123  0.2133 -0.0488
   84SAPS    HX 7909   5.278   0.368  10.461 -0.8132  0.7577 -1.0517
   84SAPS    HY 7910   5.425   0.444  10.532 -0.6227  1.3129  0.8798
   84SAPS   O31 7911   5.402   0.481  10.324 -0.2675  0.0296  0.4093
   84SAPS   C31 7912   5.455   0.370  10.274 -0.2422 -0.1741 -0.3864
   84SAPS   O32 7913   5.450   0.261  10.327 -0.2291 -0.0877  0.1736
   84SAPS   C32 7914   5.534   0.403  10.145  0.5102  0.4363  0.4982
   84SAPS   H2X 7915   5.617   0.330  10.148 -0.4090 -0.7205 -1.1364
   84SAPS   H2Y 7916   5.572   0.508  10.143  0.2948  0.5692 -3.4509
   84SAPS   C23 7917   5.133   0.891  10.172  0.1358  0.0787  0.1274
   84SAPS   H3R 7918   5.211   0.837  10.115 -2.1588 -1.5124 -1.7019
   84SAPS   H3S 7919   5.168   0.976  10.235  1.7518  1.7852 -2.8838
   84SAPS   C24 7920   5.033   0.949  10.074  0.1443  0.3993 -0.1204
   84SAPS   H4R 7921   5.097   1.030  10.032  1.9250  0.0070  1.6972
   84SAPS   H4S 7922   4.957   1.012  10.124 -0.0318  2.5886 -2.8454
   84SAPS   C25 7923   4.961   0.850   9.984 -0.6802  0.4371  0.1634
   84SAPS   H5R 7924   4.909   0.767  10.035 -2.6915 -0.0914 -2.5354
   84SAPS   C26 7925   4.961   0.849   9.850  0.1802 -0.9174  0.0038
   84SAPS   H6R 7926   4.917   0.767   9.791  1.1475 -1.4571  0.0116
   84SAPS   C27 7927   5.027   0.952   9.766  0.1836  0.5086 -0.8067
   84SAPS   H7R 7928   5.035   0.897   9.670  0.5129 -1.0057  0.0548
   84SAPS   H7S 7929   5.129   0.972   9.806  0.6927 -1.5482 -0.9690
   84SAPS   C28 7930   4.942   1.078   9.743 -0.3170 -0.2108  0.2208
   84SAPS   H8R 7931   4.897   1.108   9.839  2.9555  0.6145  1.6126
   84SAPS   C29 7932   4.907   1.145   9.632  0.2698  0.9455 -0.3815
   84SAPS   H9R 7933   4.841   1.232   9.640  0.7207  1.1658  1.3215
   84SAPS  C210 7934   4.951   1.113   9.495  0.6885 -0.2208  0.1357
   84SAPS  H10R 7935   5.049   1.060   9.504  0.3877 -0.8049  0.0072
   84SAPS  H10S 7936   4.966   1.210   9.443  0.1008  0.5059  1.2658
   84SAPS  C211 7937   4.862   1.022   9.413  0.1347  0.4385  0.1995
   84SAPS  H11R 7938   4.809   0.946   9.472 -1.0510 -0.1698 -1.5570
   84SAPS  C212 7939   4.846   1.027   9.279 -0.4628  0.5434 -0.5266
   84SAPS  H12R 7940   4.771   0.965   9.228  1.1612 -1.1258 -0.9827
   84SAPS  C213 7941   4.913   1.113   9.175 -0.3793  0.1297  0.5511
   84SAPS  H13R 7942   4.924   1.220   9.204  1.6164  0.3206 -0.7524
   84SAPS  H13S 7943   4.839   1.110   9.092  0.4799 -0.8273 -0.1933
   84SAPS  C214 7944   5.037   1.051   9.126 -0.4438 -0.1691 -0.1188
   84SAPS  H14R 7945   5.122   1.046   9.195 -0.6808 -0.6882  0.1419
   84SAPS  C215 7946   5.056   0.989   9.006  0.0508  0.3733  0.2824
   84SAPS  H15R 7947   5.157   0.952   8.987 -0.3300  0.5211 -2.4750
   84SAPS  C216 7948   4.953   0.977   8.893 -0.5654  0.0158 -0.7870
   84SAPS  H16R 7949   4.852   0.939   8.919 -0.2957  0.0810  0.4138
   84SAPS  H16S 7950   4.994   0.916   8.810 -4.0885  0.1534 -2.8288
   84SAPS  C217 7951   4.925   1.112   8.820 -0.3338  0.6001 -1.1136
   84SAPS  H17R 7952   4.873   1.183   8.889 -0.8194 -2.3117  1.7610
   84SAPS  H17S 7953   4.849   1.090   8.743 -1.8296  1.9095 -0.0980
   84SAPS  C218 7954   5.041   1.182   8.758 -0.1646 -0.1956  0.8917
   84SAPS  H18R 7955   5.095   1.109   8.694 -1.2492  1.3915 -2.0073
   84SAPS  H18S 7956   5.107   1.230   8.833  0.3875 -0.3270  0.4912
   84SAPS  C219 7957   5.009   1.307   8.668 -0.3167  0.5805 -0.1511
   84SAPS  H19R 7958   5.107   1.343   8.631 -0.0366  0.5023  0.5068
   84SAPS  H19S 7959   4.981   1.389   8.738 -0.2346  0.0199  0.5475
   84SAPS  C220 7960   4.912   1.301   8.545  0.3637 -0.1538  0.3646
   84SAPS  H20R 7961   4.923   1.398   8.493  3.2749 -0.6930 -0.1844
   84SAPS  H20S 7962   4.810   1.289   8.587  0.6698 -0.1042  1.1318
   84SAPS  H20T 7963   4.943   1.230   8.465 -1.0349 -0.7655  0.3424
   84SAPS   C33 7964   5.439   0.366  10.027 -0.1750  0.2462 -0.3341
   84SAPS   H3X 7965   5.342   0.421  10.033  0.2936  0.9714  1.1755
   84SAPS   H3Y 7966   5.414   0.258  10.039  1.8866 -0.2465 -0.2406
   84SAPS   C34 7967   5.503   0.386   9.890 -0.3855  0.4396 -0.3416
   84SAPS   H4X 7968   5.593   0.322   9.880  1.1569  2.5355 -0.5400
   84SAPS   H4Y 7969   5.543   0.490   9.880  0.1669  0.4032  1.2163
   84SAPS   C35 7970   5.405   0.342   9.775 -0.0071 -0.5412 -0.2831
   84SAPS   H5X 7971   5.319   0.413   9.777  1.2188  0.9740  0.6929
   84SAPS   H5Y 7972   5.361   0.242   9.790 -2.6732  0.5921  0.0512
   84SAPS   C36 7973   5.464   0.337   9.638 -0.1940  0.2110  0.1079
   84SAPS   H6X 7974   5.511   0.237   9.632 -0.0810 -0.0126  3.0802
   84SAPS   H6Y 7975   5.539   0.417   9.629 -1.4471  1.2473 -1.8602
   84SAPS   C37 7976   5.366   0.353   9.521  0.3434  0.6687 -0.7003
   84SAPS   H7X 7977   5.323   0.456   9.528 -0.3083  0.3079  1.6196
   84SAPS   H7Y 7978   5.277   0.289   9.541 -1.1868  3.5069  2.9656
   84SAPS   C38 7979   5.426   0.319   9.385  0.5024  0.8674  0.0239
   84SAPS   H8X 7980   5.490   0.229   9.376  2.4194  2.2185 -0.5129
   84SAPS   H8Y 7981   5.488   0.403   9.347  1.1246  0.0803 -0.7309
   84SAPS   C39 7982   5.307   0.318   9.274  0.2404 -0.3009  0.1429
   84SAPS   H9X 7983   5.346   0.354   9.176 -3.7740 -0.4528 -1.7020
   84SAPS   H9Y 7984   5.232   0.397   9.295  2.4776  1.9910  0.0458
   84SAPS  C310 7985   5.243   0.177   9.264  1.2817  0.2850 -0.0969
   84SAPS  H10X 7986   5.186   0.173   9.359  0.4596  1.1787 -0.5376
   84SAPS  H10Y 7987   5.304   0.084   9.264 -0.9073 -1.2256  0.5559
   84SAPS  C311 7988   5.131   0.165   9.151 -0.2055 -0.1832 -0.6528
   84SAPS  H11X 7989   5.064   0.252   9.166 -0.2882 -0.3052 -0.3140
   84SAPS  H11Y 7990   5.070   0.073   9.163  0.2271 -0.2980  0.7715
   84SAPS  C312 7991   5.185   0.161   9.007 -0.0760 -0.5801 -0.3150
   84SAPS  H12X 7992   5.264   0.083   8.997  0.2865 -0.3472  0.6477
   84SAPS  H12Y 7993   5.222   0.258   8.968 -0.7215 -0.2385 -0.0965
   84SAPS  C313 7994   5.080   0.107   8.905 -0.1973 -0.0823 -0.2447
   84SAPS  H13X 7995   5.026   0.197   8.870  2.1437  2.6817  2.6275
   84SAPS  H13Y 7996   5.007   0.037   8.951 -2.0757  1.7927 -0.2580
   84SAPS  C314 7997   5.142   0.038   8.780 -0.2638  0.1370  0.5939
   84SAPS  H14X 7998   5.204  -0.050   8.809 -2.1628 -0.8062  2.0108
   84SAPS  H14Y 7999   5.207   0.103   8.717 -1.9792  0.7155 -0.6526
   84SAPS  C315 8000   5.037  -0.030   8.696  0.4060 -0.6572  0.1697
   84SAPS  H15X 8001   4.990  -0.113   8.753  0.1291 -0.1852  0.6423
   84SAPS  H15Y 8002   5.081  -0.067   8.601 -1.4001  0.7681 -1.3053
   84SAPS  C316 8003   4.926   0.061   8.649  0.2012  0.3267 -0.1438
   84SAPS  H16X 8004   4.867   0.108   8.731  0.3295 -0.0537  0.1722
   84SAPS  H16Y 8005   4.856  -0.004   8.592  0.6028  0.3472 -0.6729
   84SAPS  C317 8006   4.985   0.168   8.556  0.4515  0.7108 -0.0721
   84SAPS  H17X 8007   5.062   0.131   8.485 -0.2326  1.1763 -1.0764
   84SAPS  H17Y 8008   5.030   0.251   8.613 -1.0677  2.8109 -1.7790
   84SAPS  C318 8009   4.875   0.236   8.477  0.0350 -0.3218 -0.4473
   84SAPS  H18X 8010   4.799   0.280   8.545  2.5104 -1.6831  3.5059
   84SAPS  H18Y 8011   4.831   0.163   8.406  2.8337 -1.6536 -0.9558
   84SAPS  H18Z 8012   4.919   0.305   8.402 -1.6840 -1.1338 -2.2967
   85SAPS     N 8013   1.416   2.661  11.031  0.3758  0.1556  0.4004
   85SAPS   HN1 8014   1.348   2.707  10.967 -0.9225 -0.4929  1.2673
   85SAPS   HN2 8015   1.407   2.558  11.031  0.2565  0.0986 -2.2354
   85SAPS   HN3 8016   1.391   2.698  11.125 -0.6469 -0.5893  0.4387
   85SAPS   C12 8017   1.556   2.707  11.014 -0.0447 -0.1122  0.2614
   85SAPS  H12A 8018   1.566   2.815  11.023 -1.1414  0.0383 -0.1564
   85SAPS   C13 8019   1.659   2.637  11.111  0.2235 -0.6546  0.1410
   85SAPS  O13A 8020   1.609   2.555  11.197 -0.1750 -0.1535 -0.0801
   85SAPS  O13B 8021   1.774   2.688  11.122 -0.6964  0.0499 -0.4146
   85SAPS   C11 8022   1.597   2.654  10.868 -0.5770 -0.0188 -0.1173
   85SAPS  H11A 8023   1.574   2.547  10.884  3.5316 -0.9092  1.1705
   85SAPS  H11B 8024   1.708   2.655  10.857 -0.2900  0.7114  2.2451
   85SAPS     P 8025   1.560   2.871  10.713 -0.5709  0.4477  0.0416
   85SAPS   O13 8026   1.439   2.952  10.712  0.1530 -0.1730  0.8016
   85SAPS   O14 8027   1.667   2.933  10.789  0.2904 -0.0644  0.4115
   85SAPS   O12 8028   1.528   2.726  10.767 -0.2645 -0.3477 -0.2835
   85SAPS   O11 8029   1.605   2.834  10.568 -0.8147  0.5121  0.4769
   85SAPS    C1 8030   1.616   2.696  10.539  0.2910 -0.0459 -0.0906
   85SAPS    HA 8031   1.690   2.652  10.609  1.0237  0.6315 -0.4195
   85SAPS    HB 8032   1.518   2.646  10.551  0.4049 -1.0623 -2.8177
   85SAPS    C2 8033   1.682   2.673  10.398 -0.3837 -0.4003 -0.2308
   85SAPS    HS 8034   1.791   2.693  10.403 -0.9328  2.8519  0.7594
   85SAPS   O21 8035   1.618   2.760  10.304  0.1808 -0.2451 -0.1569
   85SAPS   C21 8036   1.688   2.862  10.255  0.1364  0.4726 -0.1902
   85SAPS   O22 8037   1.797   2.896  10.302 -0.1878  0.2774 -0.8075
   85SAPS   C22 8038   1.605   2.931  10.153 -0.1384  0.1123  0.5921
   85SAPS   H2R 8039   1.537   2.853  10.113  2.2718 -1.5733 -0.4022
   85SAPS   H2S 8040   1.541   3.010  10.199 -1.9882 -0.3787 -0.9922
   85SAPS    C3 8041   1.659   2.529  10.346 -0.4817 -0.1347  0.0575
   85SAPS    HX 8042   1.551   2.502  10.341 -0.8833  1.4666 -3.6163
   85SAPS    HY 8043   1.706   2.446  10.404 -1.9466 -1.2319 -0.2422
   85SAPS   O31 8044   1.716   2.526  10.215  0.0844  0.2827 -0.1930
   85SAPS   C31 8045   1.636   2.528  10.117  0.1695 -0.1398 -0.4720
   85SAPS   O32 8046   1.511   2.527  10.119  0.3501  0.1523 -0.2279
   85SAPS   C32 8047   1.712   2.506   9.981  0.5321 -0.2184 -0.0047
   85SAPS   H2X 8048   1.754   2.403   9.983  0.9851 -0.0249  1.2155
   85SAPS   H2Y 8049   1.790   2.585   9.978  0.6373 -0.2632  1.1533
   85SAPS   C23 8050   1.692   2.985  10.040 -0.0165  0.3519  0.1865
   85SAPS   H3R 8051   1.767   2.918   9.992 -0.4015 -1.3251  1.8155
   85SAPS   H3S 8052   1.762   3.062  10.079 -1.1873  1.0164  1.0158
   85SAPS   C24 8053   1.605   3.039   9.928 -0.1884 -0.5247  0.1332
   85SAPS   H4R 8054   1.531   2.962   9.897 -0.2802 -0.3729 -0.0175
   85SAPS   H4S 8055   1.665   3.057   9.837  1.5813 -5.1831  0.0897
   85SAPS   C25 8056   1.540   3.167   9.968  1.1960  0.4401 -1.1128
   85SAPS   H5R 8057   1.613   3.233  10.019  1.4164 -0.4924 -0.1669
   85SAPS   C26 8058   1.408   3.202   9.958 -0.3501 -0.5303  0.4426
   85SAPS   H6R 8059   1.377   3.301   9.993  0.2411 -0.3921  0.5951
   85SAPS   C27 8060   1.314   3.101   9.903 -0.0020 -0.2148 -0.0434
   85SAPS   H7R 8061   1.300   3.022   9.981 -0.6194  0.4281  0.5090
   85SAPS   H7S 8062   1.363   3.050   9.817  0.4007  0.6035 -0.3048
   85SAPS   C28 8063   1.178   3.163   9.889  0.8992 -0.8348 -0.1680
   85SAPS   H8R 8064   1.124   3.177   9.984  1.5976  2.8216 -0.1523
   85SAPS   C29 8065   1.122   3.203   9.770 -0.0636  0.6970 -0.1062
   85SAPS   H9R 8066   1.021   3.246   9.769 -0.5608 -0.4366  0.1524
   85SAPS  C210 8067   1.201   3.185   9.638  0.3085 -0.1898 -0.1383
   85SAPS  H10R 8068   1.127   3.204   9.557 -0.2905 -0.0656  0.4290
   85SAPS  H10S 8069   1.224   3.077   9.626 -1.6137 -0.4150 -2.4725
   85SAPS  C211 8070   1.325   3.273   9.612 -0.4905 -0.7391  0.0119
   85SAPS  H11R 8071   1.337   3.367   9.668  0.6492 -0.1980 -1.1065
   85SAPS  C212 8072   1.429   3.247   9.520  0.1719  1.2814  0.6501
   85SAPS  H12R 8073   1.512   3.319   9.507 -0.8918  2.2508 -1.2477
   85SAPS  C213 8074   1.442   3.120   9.443  0.1005 -0.0766  0.0230
   85SAPS  H13R 8075   1.455   3.159   9.340  0.6476  1.6073  0.6941
   85SAPS  H13S 8076   1.342   3.072   9.445 -0.1274  0.1611 -2.4575
   85SAPS  C214 8077   1.558   3.026   9.485  0.4463  0.8293 -0.1521
   85SAPS  H14R 8078   1.522   2.935   9.535 -0.9276  0.6679 -1.3554
   85SAPS  C215 8079   1.692   3.030   9.474 -0.1378 -0.6156 -0.6231
   85SAPS  H15R 8080   1.742   2.950   9.530 -2.2549 -0.1970  2.1331
   85SAPS  C216 8081   1.777   3.143   9.421  0.1896  0.1637  0.3941
   85SAPS  H16R 8082   1.828   3.202   9.500  2.5090  0.4316 -1.2017
   85SAPS  H16S 8083   1.725   3.225   9.366  2.4948  0.7562 -1.0150
   85SAPS  C217 8084   1.874   3.080   9.324 -0.1678 -0.2447 -0.3031
   85SAPS  H17R 8085   1.929   2.990   9.359 -0.4669 -0.3215 -0.0156
   85SAPS  H17S 8086   1.960   3.148   9.308  2.2634 -2.9943  0.3005
   85SAPS  C218 8087   1.812   3.054   9.182  1.1837  0.3551 -0.4683
   85SAPS  H18R 8088   1.713   3.005   9.195  1.6115 -0.1730  1.0556
   85SAPS  H18S 8089   1.877   2.987   9.121 -1.3799 -2.2742 -0.5223
   85SAPS  C219 8090   1.778   3.183   9.104 -0.3861  0.6954  0.1140
   85SAPS  H19R 8091   1.688   3.229   9.150 -3.1535 -2.0296 -2.0754
   85SAPS  H19S 8092   1.740   3.148   9.005 -1.3482 -3.1176  1.6335
   85SAPS  C220 8093   1.900   3.277   9.085  0.9986 -0.6472  0.4857
   85SAPS  H20R 8094   1.937   3.309   9.184  0.2760  0.2614  0.4748
   85SAPS  H20S 8095   1.886   3.360   9.012 -0.3026 -0.2837  1.1298
   85SAPS  H20T 8096   1.988   3.225   9.041 -1.0475 -2.1612 -2.1030
   85SAPS   C33 8097   1.618   2.524   9.859 -0.8692  0.2604  0.0071
   85SAPS   H3X 8098   1.580   2.629   9.865  1.1196  0.9807  1.2074
   85SAPS   H3Y 8099   1.533   2.454   9.876 -0.1893 -0.8146 -0.9011
   85SAPS   C34 8100   1.685   2.515   9.728 -0.1055 -0.0957 -0.9248
   85SAPS   H4X 8101   1.733   2.415   9.724  1.6147  0.6415  0.1571
   85SAPS   H4Y 8102   1.774   2.582   9.733 -0.2897  0.2474 -2.0031
   85SAPS   C35 8103   1.603   2.541   9.607  0.5974  0.8664  0.2040
   85SAPS   H5X 8104   1.554   2.641   9.603 -0.2671  0.4592  0.3619
   85SAPS   H5Y 8105   1.524   2.464   9.595 -0.6965  1.6480  2.8041
   85SAPS   C36 8106   1.691   2.532   9.487 -0.3135 -0.7248 -0.1555
   85SAPS   H6X 8107   1.741   2.433   9.481 -0.0569 -0.5851 -0.3367
   85SAPS   H6Y 8108   1.770   2.610   9.490  0.0296 -1.0961  0.5411
   85SAPS   C37 8109   1.624   2.555   9.358  0.3925 -0.4053  0.7265
   85SAPS   H7X 8110   1.608   2.665   9.356  2.1806 -0.1193 -0.4204
   85SAPS   H7Y 8111   1.524   2.507   9.347 -0.1266  0.7730  0.0912
   85SAPS   C38 8112   1.711   2.526   9.240  0.1154  0.0730  0.3265
   85SAPS   H8X 8113   1.755   2.426   9.257  2.9857  1.3872  1.1577
   85SAPS   H8Y 8114   1.798   2.594   9.247  0.6198 -0.5786  0.4421
   85SAPS   C39 8115   1.637   2.528   9.109  0.4563 -0.3154 -0.0677
   85SAPS   H9X 8116   1.582   2.624   9.096 -1.2450 -1.1253  0.8527
   85SAPS   H9Y 8117   1.550   2.460   9.115  1.3245 -1.5369 -1.0454
   85SAPS  C310 8118   1.715   2.482   8.984  0.1806 -0.4000 -0.0921
   85SAPS  H10X 8119   1.744   2.375   8.995  1.7883  0.2446  3.3591
   85SAPS  H10Y 8120   1.808   2.541   8.974 -0.1049  0.2235  0.7411
   85SAPS  C311 8121   1.628   2.493   8.858 -0.2934  0.3823  0.4072
   85SAPS  H11X 8122   1.609   2.598   8.824 -0.3127  0.8014  1.6644
   85SAPS  H11Y 8123   1.534   2.435   8.874  0.8305 -1.2332  1.3873
   85SAPS  C312 8124   1.685   2.410   8.737  0.7187 -0.2418  0.2977
   85SAPS  H12X 8125   1.684   2.302   8.762  1.6646  0.2064  2.4963
   85SAPS  H12Y 8126   1.792   2.436   8.732  1.2100 -2.2528 -0.6722
   85SAPS  C313 8127   1.603   2.450   8.612 -0.1357  0.9735  0.1064
   85SAPS  H13X 8128   1.660   2.538   8.574 -1.4900  1.3937 -1.0356
   85SAPS  H13Y 8129   1.495   2.462   8.635 -1.3049 -0.8238 -3.5405
   85SAPS  C314 8130   1.597   2.343   8.497 -0.1238 -0.2863 -0.2277
   85SAPS  H14X 8131   1.702   2.323   8.467  1.1946 -3.0679  4.9380
   85SAPS  H14Y 8132   1.536   2.378   8.412 -1.3822 -2.8316 -0.4830
   85SAPS  C315 8133   1.524   2.211   8.552 -0.1913 -0.4822 -0.6120
   85SAPS  H15X 8134   1.424   2.228   8.597 -0.0461 -1.7193  0.1970
   85SAPS  H15Y 8135   1.595   2.170   8.626 -1.4781 -1.8896 -0.1059
   85SAPS  C316 8136   1.507   2.094   8.453  0.1884  0.5405  0.4174
   85SAPS  H16X 8137   1.416   2.114   8.392 -0.5792 -0.5437  1.1723
   85SAPS  H16Y 8138   1.483   2.010   8.521 -0.2264  1.8934  1.9923
   85SAPS  C317 8139   1.627   2.059   8.351 -0.1525  0.0159  0.6800
   85SAPS  H17X 8140   1.716   2.032   8.413  2.7818 -2.6162 -4.0593
   85SAPS  H17Y 8141   1.655   2.156   8.304  0.8219 -0.2384  0.7012
   85SAPS  C318 8142   1.607   1.952   8.241 -0.0138 -1.1752  0.4898
   85SAPS  H18X 8143   1.518   1.969   8.177  0.2630 -3.3290 -0.5605
   85SAPS  H18Y 8144   1.605   1.852   8.290  2.1938 -0.4205  2.2923
   85SAPS  H18Z 8145   1.700   1.956   8.180  0.4173  1.4762  1.2053
   86SAPS     N 8146   4.643   3.939  10.843  0.1037  0.3205  0.4706
   86SAPS   HN1 8147   4.639   4.040  10.870 -0.5555  0.2856  0.5018
   86SAPS   HN2 8148   4.709   3.922  10.764 -1.1329 -1.4536 -0.2337
   86SAPS   HN3 8149   4.547   3.928  10.805 -0.2332 -0.0144  1.4193
   86SAPS   C12 8150   4.666   3.846  10.959  0.4052  0.1492  0.0274
   86SAPS  H12A 8151   4.740   3.904  11.013  1.7946 -1.8592  0.3649
   86SAPS   C13 8152   4.541   3.822  11.049 -0.5541 -0.5129 -0.3903
   86SAPS  O13A 8153   4.430   3.872  11.020  0.4799 -0.0900  0.5577
   86SAPS  O13B 8154   4.546   3.717  11.121  0.5620 -0.1339  0.4875
   86SAPS   C11 8155   4.740   3.724  10.901 -0.0988  0.2906  0.1411
   86SAPS  H11A 8156   4.672   3.659  10.842  0.7234 -0.6962  0.2448
   86SAPS  H11B 8157   4.771   3.658  10.986 -2.6605  0.8083  1.5942
   86SAPS     P 8158   4.977   3.667  10.786  0.0469  0.2029 -0.2753
   86SAPS   O13 8159   5.094   3.737  10.736 -0.2177 -0.6194 -0.0567
   86SAPS   O14 8160   5.003   3.583  10.907 -0.0301  0.1598 -0.2591
   86SAPS   O12 8161   4.857   3.766  10.830 -0.5313 -0.3372  0.0618
   86SAPS   O11 8162   4.925   3.573  10.682  0.3291 -0.6276  0.3750
   86SAPS    C1 8163   4.861   3.621  10.559 -0.1331 -0.3401 -0.4122
   86SAPS    HA 8164   4.810   3.532  10.516 -1.2846  1.0335 -2.0343
   86SAPS    HB 8165   4.785   3.698  10.584 -0.8701 -0.2211 -2.7639
   86SAPS    C2 8166   4.965   3.678  10.457  0.0839 -0.5176 -0.9133
   86SAPS    HS 8167   5.017   3.770  10.491  1.2902 -1.9543  1.3313
   86SAPS   O21 8168   4.910   3.707  10.328 -0.7085  0.6337  0.0423
   86SAPS   C21 8169   4.845   3.817  10.313 -0.2764 -0.6238  0.0033
   86SAPS   O22 8170   4.811   3.891  10.401 -0.2598 -0.3014 -0.9236
   86SAPS   C22 8171   4.821   3.838  10.167  0.1225 -0.1321 -0.0427
   86SAPS   H2R 8172   4.814   3.947  10.146 -0.5685 -0.5493 -2.2837
   86SAPS   H2S 8173   4.904   3.796  10.106 -1.0789 -0.0548 -1.8111
   86SAPS    C3 8174   5.077   3.572  10.441  0.2797  1.1123 -0.2484
   86SAPS    HX 8175   5.109   3.550  10.545 -0.8222  2.7534  0.4544
   86SAPS    HY 8176   5.165   3.613  10.386  0.9916 -2.3493 -2.0497
   86SAPS   O31 8177   5.028   3.450  10.375  0.6238 -0.3096  0.2255
   86SAPS   C31 8178   5.037   3.447  10.242  0.0244 -0.5013 -0.0667
   86SAPS   O32 8179   5.086   3.531  10.166  0.4002  0.4848  0.1372
   86SAPS   C32 8180   4.966   3.324  10.188 -0.2700  0.5457 -0.3489
   86SAPS   H2X 8181   4.910   3.334  10.092 -0.1129  0.8269 -0.4125
   86SAPS   H2Y 8182   4.882   3.308  10.259 -0.2978  0.2677 -0.4439
   86SAPS   C23 8183   4.696   3.774  10.107  0.3575 -0.7174  0.3253
   86SAPS   H3R 8184   4.631   3.746  10.193  1.0633 -1.1656  0.7261
   86SAPS   H3S 8185   4.718   3.690  10.038 -0.1365 -0.1331 -0.5630
   86SAPS   C24 8186   4.623   3.873  10.014 -0.2137  0.3180  1.2873
   86SAPS   H4R 8187   4.687   3.901   9.927 -0.5058 -1.1276  0.5634
   86SAPS   H4S 8188   4.592   3.964  10.068 -1.9315  0.4652  0.1287
   86SAPS   C25 8189   4.508   3.812   9.951  0.4741 -0.1912 -0.5939
   86SAPS   H5R 8190   4.433   3.776  10.023 -0.4986  0.9637 -0.9866
   86SAPS   C26 8191   4.483   3.799   9.819  0.3650 -0.0580 -0.1959
   86SAPS   H6R 8192   4.389   3.751   9.788  0.7415 -0.8801 -0.0901
   86SAPS   C27 8193   4.569   3.836   9.699 -0.5675  0.3308 -0.0877
   86SAPS   H7R 8194   4.573   3.764   9.615  0.1212  1.1027 -0.7230
   86SAPS   H7S 8195   4.675   3.835   9.731 -0.6249 -2.9575  0.4118
   86SAPS   C28 8196   4.544   3.979   9.651 -0.1577  0.9674 -0.2915
   86SAPS   H8R 8197   4.526   4.050   9.733 -0.2786 -0.5692  1.0481
   86SAPS   C29 8198   4.531   4.008   9.518 -0.1730 -0.0443 -0.5930
   86SAPS   H9R 8199   4.496   4.110   9.494  0.9822  0.4930 -0.0737
   86SAPS  C210 8200   4.559   3.919   9.398 -0.5139  0.0363 -0.1744
   86SAPS  H10R 8201   4.500   3.960   9.313  0.4248 -0.9735 -1.3391
   86SAPS  H10S 8202   4.519   3.818   9.421 -0.2801  0.3506  1.8876
   86SAPS  C211 8203   4.707   3.932   9.378  0.0169  0.1232 -0.7349
   86SAPS  H11R 8204   4.769   3.946   9.467 -2.0454 -1.0571  0.9690
   86SAPS  C212 8205   4.766   3.933   9.253 -0.5804 -0.0927 -0.9023
   86SAPS  H12R 8206   4.875   3.928   9.264 -0.7917  0.0075  2.0260
   86SAPS  C213 8207   4.692   3.909   9.130  0.5126  0.9819  0.3539
   86SAPS  H13R 8208   4.736   3.941   9.033 -1.5228 -1.0691 -1.3501
   86SAPS  H13S 8209   4.599   3.970   9.123 -0.0943 -0.0938 -2.0277
   86SAPS  C214 8210   4.653   3.765   9.114 -0.2885  0.0771  0.3096
   86SAPS  H14R 8211   4.637   3.703   9.203 -0.1879 -2.3532 -1.2699
   86SAPS  C215 8212   4.635   3.693   9.005  0.4104 -0.4947  0.0414
   86SAPS  H15R 8213   4.603   3.589   9.022  0.3243 -0.0549  3.1588
   86SAPS  C216 8214   4.657   3.735   8.858  0.2414 -0.5692 -0.3249
   86SAPS  H16R 8215   4.684   3.649   8.794 -1.9404 -1.7728  0.2581
   86SAPS  H16S 8216   4.734   3.814   8.860 -0.4908  0.1499  1.0087
   86SAPS  C217 8217   4.536   3.800   8.783 -0.1504  0.0875  0.1982
   86SAPS  H17R 8218   4.522   3.900   8.830 -2.4136 -0.3271  0.4901
   86SAPS  H17S 8219   4.445   3.741   8.806 -0.0049 -0.1849  0.0757
   86SAPS  C218 8220   4.560   3.845   8.639 -0.3183  0.3515 -0.4657
   86SAPS  H18R 8221   4.571   3.762   8.566 -0.2559  0.9849 -1.1900
   86SAPS  H18S 8222   4.663   3.888   8.643 -0.7556  1.3903  0.0531
   86SAPS  C219 8223   4.467   3.951   8.577 -0.3070 -0.5021 -0.2748
   86SAPS  H19R 8224   4.514   3.974   8.480  0.7472 -1.1810  0.0575
   86SAPS  H19S 8225   4.478   4.036   8.648 -1.3849 -0.8284  0.3094
   86SAPS  C220 8226   4.317   3.914   8.572  0.5185 -0.2435 -0.7610
   86SAPS  H20R 8227   4.250   3.988   8.523 -0.4866 -0.2817  0.4963
   86SAPS  H20S 8228   4.284   3.907   8.677  0.0070 -1.0155 -0.9650
   86SAPS  H20T 8229   4.299   3.814   8.527 -1.1426 -0.7751  0.9472
   86SAPS   C33 8230   5.065   3.197  10.180  0.2300 -0.8581  0.5712
   86SAPS   H3X 8231   4.994   3.112  10.181 -1.3393  0.4014  0.8099
   86SAPS   H3Y 8232   5.144   3.197  10.258 -0.7407  3.6044  1.8247
   86SAPS   C34 8233   5.124   3.206  10.036 -0.0867 -0.2667 -0.1176
   86SAPS   H4X 8234   5.180   3.299  10.014 -1.3351  0.1391 -1.7623
   86SAPS   H4Y 8235   5.040   3.192   9.964 -0.0610  3.6203 -1.0975
   86SAPS   C35 8236   5.229   3.091  10.016  0.1238 -0.1353  0.1645
   86SAPS   H5X 8237   5.203   3.011  10.089  0.3889  0.6714  1.1699
   86SAPS   H5Y 8238   5.328   3.130  10.046 -0.3871  2.7222 -1.4284
   86SAPS   C36 8239   5.253   3.039   9.877 -0.3962 -0.9207 -0.8598
   86SAPS   H6X 8240   5.341   2.971   9.876 -1.2650 -2.2354  1.8864
   86SAPS   H6Y 8241   5.272   3.119   9.803 -0.1491 -0.4821 -0.3326
   86SAPS   C37 8242   5.138   2.942   9.830  1.0645 -0.1687  0.3338
   86SAPS   H7X 8243   5.040   2.992   9.815 -0.0502 -1.8000  1.7389
   86SAPS   H7Y 8244   5.125   2.858   9.901  2.5221  1.0127  2.0841
   86SAPS   C38 8245   5.149   2.889   9.685 -0.1900  0.6823 -0.3144
   86SAPS   H8X 8246   5.079   2.803   9.681 -0.5966  0.9961 -0.0801
   86SAPS   H8Y 8247   5.251   2.850   9.667 -0.0505  0.3309  1.1074
   86SAPS   C39 8248   5.105   2.982   9.564 -0.6221  0.0292 -0.3074
   86SAPS   H9X 8249   5.172   3.069   9.577  0.6161 -0.9954  0.3653
   86SAPS   H9Y 8250   5.004   3.019   9.589  0.5986  2.5063  1.2373
   86SAPS  C310 8251   5.110   2.907   9.424 -0.0707  0.3553  0.2744
   86SAPS  H10X 8252   5.021   2.844   9.402  0.3162 -0.2640  0.4585
   86SAPS  H10Y 8253   5.191   2.831   9.426  0.8614  1.3319  1.6100
   86SAPS  C311 8254   5.146   2.994   9.304  0.2401  0.2193  0.1460
   86SAPS  H11X 8255   5.251   3.030   9.317  1.5900 -2.7797 -1.3474
   86SAPS  H11Y 8256   5.074   3.075   9.282 -0.8122 -1.0387 -1.2084
   86SAPS  C312 8257   5.145   2.914   9.170 -0.3990  0.2070  0.3765
   86SAPS  H12X 8258   5.068   2.836   9.157  0.0696 -0.1803 -0.1406
   86SAPS  H12Y 8259   5.243   2.868   9.142 -1.4238 -1.8655  0.0715
   86SAPS  C313 8260   5.125   3.016   9.052  0.0891  0.5170 -0.3057
   86SAPS  H13X 8261   5.194   3.100   9.074 -0.9351  1.3149 -0.0755
   86SAPS  H13Y 8262   5.021   3.053   9.059 -0.3379 -0.5512 -0.8328
   86SAPS  C314 8263   5.142   2.941   8.915  0.3192 -0.0975 -0.1779
   86SAPS  H14X 8264   5.075   3.002   8.851 -1.0383  0.5869  1.7915
   86SAPS  H14Y 8265   5.096   2.840   8.923 -0.3321  0.2063 -0.0377
   86SAPS  C315 8266   5.277   2.928   8.849 -0.6401 -0.2449 -0.1198
   86SAPS  H15X 8267   5.330   2.846   8.903 -0.2884 -0.0938 -0.2383
   86SAPS  H15Y 8268   5.324   3.027   8.862  0.3248 -0.5339 -1.2375
   86SAPS  C316 8269   5.277   2.916   8.702 -0.3952 -0.2526 -0.5450
   86SAPS  H16X 8270   5.378   2.876   8.679  0.6065  0.1469  2.6895
   86SAPS  H16Y 8271   5.264   3.013   8.649 -0.7016  0.6624  1.1446
   86SAPS  C317 8272   5.176   2.819   8.643 -1.4650  0.1032  0.4096
   86SAPS  H17X 8273   5.174   2.847   8.535  1.9083 -0.1446  0.2015
   86SAPS  H17Y 8274   5.073   2.828   8.684 -1.1220  0.9993  1.0935
   86SAPS  C318 8275   5.220   2.677   8.669  0.1135  0.1401  0.1743
   86SAPS  H18X 8276   5.142   2.606   8.634  0.1633  0.8898 -1.5369
   86SAPS  H18Y 8277   5.221   2.661   8.779  0.6489  1.0843  0.3146
   86SAPS  H18Z 8278   5.325   2.661   8.639  1.2421  1.4740  3.0876
   87SAPS     N 8279   3.801   4.390  11.178  0.0995 -0.6080 -0.5009
   87SAPS   HN1 8280   3.771   4.449  11.098  2.1846  0.8758 -0.2650
   87SAPS   HN2 8281   3.832   4.295  11.148  0.0776 -0.4152 -1.1399
   87SAPS   HN3 8282   3.718   4.381  11.240  0.6728 -0.1258  0.3673
   87SAPS   C12 8283   3.933   4.447  11.239  0.1292  0.0323 -0.2152
   87SAPS  H12A 8284   3.943   4.554  11.224 -2.3870  0.2908 -0.3901
   87SAPS   C13 8285   3.937   4.431  11.391 -0.3585 -0.8720 -0.4506
   87SAPS  O13A 8286   3.834   4.393  11.455  0.2324 -0.1702  0.3314
   87SAPS  O13B 8287   4.026   4.494  11.451 -0.1181 -0.0193  0.2293
   87SAPS   C11 8288   4.060   4.391  11.173 -0.6156 -0.3403 -0.3720
   87SAPS  H11A 8289   4.067   4.289  11.216 -0.5998 -0.4936 -0.7269
   87SAPS  H11B 8290   4.153   4.444  11.202  0.0267 -0.0996 -2.6439
   87SAPS     P 8291   4.168   4.368  10.938  0.0943  0.3518 -0.7169
   87SAPS   O13 8292   4.247   4.493  10.923  0.7290 -0.4311  0.4169
   87SAPS   O14 8293   4.250   4.245  10.979 -0.3177 -0.4853  0.1457
   87SAPS   O12 8294   4.046   4.385  11.030  0.0711 -0.3159  0.3005
   87SAPS   O11 8295   4.098   4.341  10.793 -0.7189  0.0937  0.2147
   87SAPS    C1 8296   4.007   4.238  10.763 -0.1275  0.5694  0.4795
   87SAPS    HA 8297   4.027   4.156  10.835 -0.3847 -1.4003 -1.5865
   87SAPS    HB 8298   3.903   4.278  10.771  0.7797  2.9374  1.5663
   87SAPS    C2 8299   4.023   4.184  10.618  0.4023  0.3089  0.3479
   87SAPS    HS 8300   4.122   4.134  10.602 -2.1109 -4.9421 -1.0571
   87SAPS   O21 8301   3.996   4.298  10.531 -0.1676 -0.0357  0.4889
   87SAPS   C21 8302   4.056   4.298  10.417  0.6583  0.3066  0.6396
   87SAPS   O22 8303   4.147   4.226  10.373 -0.0283 -0.7831 -0.7088
   87SAPS   C22 8304   3.988   4.400  10.322  0.3828 -0.1856 -0.7947
   87SAPS   H2R 8305   3.879   4.388  10.338  0.3684  1.0720  0.1840
   87SAPS   H2S 8306   4.033   4.495  10.356 -4.0900  1.8930  0.0085
   87SAPS    C3 8307   3.928   4.058  10.596  0.7498  0.1221  0.6431
   87SAPS    HX 8308   3.829   4.064  10.647 -0.1581 -0.0746 -1.0141
   87SAPS    HY 8309   3.979   3.982  10.659 -0.7257 -0.3683  1.3043
   87SAPS   O31 8310   3.926   4.013  10.459  0.4845  0.0135  0.6222
   87SAPS   C31 8311   4.033   3.936  10.422  0.0285  0.6978  1.1359
   87SAPS   O32 8312   4.128   3.909  10.496 -0.4157 -0.1459  0.0705
   87SAPS   C32 8313   4.037   3.914  10.266  0.4396 -0.6080 -0.6142
   87SAPS   H2X 8314   3.944   3.959  10.225 -0.8185 -0.3290  2.2780
   87SAPS   H2Y 8315   4.022   3.807  10.238  1.9913 -1.3693  1.2435
   87SAPS   C23 8316   4.018   4.376  10.179 -0.2978 -0.2288 -0.1532
   87SAPS   H3R 8317   3.967   4.283  10.147  0.0211 -0.2087 -0.7327
   87SAPS   H3S 8318   4.129   4.363  10.171 -0.1164  1.2932 -0.3805
   87SAPS   C24 8319   3.990   4.491  10.087  0.6482  0.1316  0.0490
   87SAPS   H4R 8320   4.037   4.587  10.117 -0.3003  1.3224 -2.0496
   87SAPS   H4S 8321   3.884   4.522  10.103 -0.2404 -2.1780 -0.9332
   87SAPS   C25 8322   4.010   4.453   9.941  0.4175  0.4998  0.4174
   87SAPS   H5R 8323   3.954   4.370   9.896  1.3743 -0.1146  0.3163
   87SAPS   C26 8324   4.101   4.510   9.858 -0.2679  0.7642 -0.3579
   87SAPS   H6R 8325   4.114   4.484   9.752  0.6563 -1.0407  0.1495
   87SAPS   C27 8326   4.204   4.614   9.893 -0.1825 -0.5560  0.2095
   87SAPS   H7R 8327   4.294   4.604   9.829 -1.3143 -1.3284 -1.2944
   87SAPS   H7S 8328   4.230   4.603  10.001 -1.7718  0.4318  0.7381
   87SAPS   C28 8329   4.145   4.753   9.882 -0.2410 -0.0634  1.1347
   87SAPS   H8R 8330   4.077   4.787   9.962 -0.0853  0.7033  0.9515
   87SAPS   C29 8331   4.188   4.846   9.791  0.2598  0.3474 -0.3038
   87SAPS   H9R 8332   4.147   4.945   9.820  2.7797  1.1543  0.7894
   87SAPS  C210 8333   4.281   4.833   9.673 -0.3516  0.1335  0.0606
   87SAPS  H10R 8334   4.272   4.924   9.610  3.7609 -0.8308 -2.3178
   87SAPS  H10S 8335   4.264   4.740   9.615 -0.1116  0.3906 -0.4343
   87SAPS  C211 8336   4.420   4.832   9.743  0.3864  0.1694 -0.2212
   87SAPS  H11R 8337   4.425   4.853   9.850  0.2381 -0.7100 -0.0359
   87SAPS  C212 8338   4.541   4.832   9.680  0.2722 -0.8963 -0.5161
   87SAPS  H12R 8339   4.634   4.845   9.736  0.2959 -0.7858 -0.5806
   87SAPS  C213 8340   4.570   4.809   9.534 -0.1324 -0.5628  0.7898
   87SAPS  H13R 8341   4.477   4.807   9.474  0.4419  1.1496 -0.2282
   87SAPS  H13S 8342   4.619   4.710   9.520  0.6016 -0.0121 -0.7638
   87SAPS  C214 8343   4.655   4.924   9.473  0.2566 -0.4130 -0.1601
   87SAPS  H14R 8344   4.648   5.025   9.518  2.5957  0.9052 -2.5209
   87SAPS  C215 8345   4.749   4.914   9.376  0.0963 -0.0632 -0.4794
   87SAPS  H15R 8346   4.807   5.007   9.363  1.3828 -0.7385  0.2628
   87SAPS  C216 8347   4.779   4.793   9.287 -0.5758 -0.0943 -0.1220
   87SAPS  H16R 8348   4.719   4.705   9.320  1.1380 -0.2794  2.8807
   87SAPS  H16S 8349   4.884   4.756   9.286 -0.6639 -0.3478 -0.5840
   87SAPS  C217 8350   4.739   4.831   9.140 -0.1561  0.0537  0.0788
   87SAPS  H17R 8351   4.782   4.750   9.077  0.4003 -0.4130  1.0239
   87SAPS  H17S 8352   4.783   4.930   9.117 -0.1812  0.4853  1.7379
   87SAPS  C218 8353   4.596   4.834   9.118  0.1758 -0.5866  0.4843
   87SAPS  H18R 8354   4.554   4.912   9.186  1.0234 -0.0001  0.3466
   87SAPS  H18S 8355   4.545   4.736   9.128 -0.8270 -0.3146 -1.5224
   87SAPS  C219 8356   4.555   4.877   8.975 -0.0470 -0.0250  0.3336
   87SAPS  H19R 8357   4.604   4.977   8.965  0.8705 -0.4649  0.2598
   87SAPS  H19S 8358   4.448   4.903   8.970 -0.1012 -0.5081 -1.7804
   87SAPS  C220 8359   4.587   4.778   8.859  0.4270 -0.5378 -0.2298
   87SAPS  H20R 8360   4.540   4.825   8.770  1.3306  1.4838  0.2820
   87SAPS  H20S 8361   4.549   4.679   8.890  1.5881 -0.8689  0.1825
   87SAPS  H20T 8362   4.697   4.769   8.842  0.3708 -1.8781  0.0642
   87SAPS   C33 8363   4.163   3.965  10.189  0.1046  0.2093 -0.0242
   87SAPS   H3X 8364   4.250   3.910  10.229  0.6842 -1.0871 -2.7787
   87SAPS   H3Y 8365   4.185   4.072  10.208  0.9401 -0.3025  2.1805
   87SAPS   C34 8366   4.164   3.953  10.030 -0.0834  1.1697  0.4221
   87SAPS   H4X 8367   4.179   3.847  10.001  0.8963  1.5684 -0.5707
   87SAPS   H4Y 8368   4.251   4.007   9.990  0.1448  0.2863 -0.3131
   87SAPS   C35 8369   4.033   3.997   9.967  0.0506 -0.2924  0.4576
   87SAPS   H5X 8370   4.012   4.103   9.994 -0.7580 -0.1544 -0.6533
   87SAPS   H5Y 8371   3.946   3.931   9.990 -0.7928  0.0290 -1.5921
   87SAPS   C36 8372   4.039   4.010   9.811  0.4376 -0.1855 -0.0602
   87SAPS   H6X 8373   3.941   4.051   9.778  0.4155  0.5860  0.9132
   87SAPS   H6Y 8374   4.038   3.908   9.768 -0.8017 -0.2890  0.1774
   87SAPS   C37 8375   4.144   4.108   9.763 -0.5866 -0.2685  0.2705
   87SAPS   H7X 8376   4.240   4.053   9.768 -0.8235 -0.7001  0.0994
   87SAPS   H7Y 8377   4.153   4.198   9.828  1.8378  0.5878 -1.0987
   87SAPS   C38 8378   4.122   4.152   9.615 -0.1944 -0.7943 -0.3970
   87SAPS   H8X 8379   4.192   4.233   9.583 -1.0400 -1.4999 -4.7571
   87SAPS   H8Y 8380   4.015   4.184   9.617  0.4050  1.5518  2.8427
   87SAPS   C39 8381   4.140   4.034   9.511  0.6842 -0.3198 -0.4623
   87SAPS   H9X 8382   4.072   3.948   9.527  0.1594  0.3912  1.4066
   87SAPS   H9Y 8383   4.246   4.006   9.527  0.6454 -0.1809  0.0631
   87SAPS  C310 8384   4.120   4.091   9.370  0.4590 -0.0115 -0.4989
   87SAPS  H10X 8385   4.163   4.193   9.373  1.4748 -0.3194 -2.7271
   87SAPS  H10Y 8386   4.015   4.107   9.339 -0.0685 -2.6359 -0.3207
   87SAPS  C311 8387   4.200   4.019   9.259  0.3480  0.3868  0.2136
   87SAPS  H11X 8388   4.309   4.014   9.279  0.1863  2.3800  1.9218
   87SAPS  H11Y 8389   4.201   4.085   9.170  0.9853  1.6541  1.1265
   87SAPS  C312 8390   4.147   3.878   9.243 -0.0614  0.0053  0.3315
   87SAPS  H12X 8391   4.040   3.880   9.213  0.2798  2.2887 -0.9206
   87SAPS  H12Y 8392   4.160   3.806   9.327  1.3845 -0.6447 -0.4226
   87SAPS  C313 8393   4.211   3.812   9.113  0.3162  0.1700 -0.3784
   87SAPS  H13X 8394   4.319   3.809   9.139  0.3505 -1.5737 -0.6396
   87SAPS  H13Y 8395   4.201   3.867   9.017  1.2129 -0.7047 -0.9916
   87SAPS  C314 8396   4.149   3.673   9.086 -0.1434  0.4171  0.4077
   87SAPS  H14X 8397   4.045   3.682   9.047 -0.3899 -1.6461  0.4768
   87SAPS  H14Y 8398   4.143   3.610   9.177 -3.0669  0.0164  0.0263
   87SAPS  C315 8399   4.224   3.587   8.981  0.2542 -0.6321 -0.5252
   87SAPS  H15X 8400   4.333   3.605   8.995  0.9156 -1.6396 -3.6274
   87SAPS  H15Y 8401   4.200   3.612   8.876  1.7516  1.3674 -0.4647
   87SAPS  C316 8402   4.199   3.441   8.999 -0.1720 -0.0600  0.0336
   87SAPS  H16X 8403   4.090   3.421   8.991 -0.0394 -0.5358 -0.6698
   87SAPS  H16Y 8404   4.237   3.420   9.101 -1.3535  1.3801  0.8125
   87SAPS  C317 8405   4.257   3.343   8.897 -0.2183 -1.0200  0.2365
   87SAPS  H17X 8406   4.213   3.242   8.910 -0.7632 -0.7664  0.3694
   87SAPS  H17Y 8407   4.366   3.328   8.914  0.1809  1.4700  0.2876
   87SAPS  C318 8408   4.228   3.383   8.754  0.0998  0.1452 -0.1492
   87SAPS  H18X 8409   4.258   3.310   8.676  1.3016 -1.0744  1.3745
   87SAPS  H18Y 8410   4.281   3.478   8.729  1.6991 -0.5983  0.2783
   87SAPS  H18Z 8411   4.120   3.407   8.741 -0.1806 -0.6945  0.5943
   88SAPS     N 8412   0.747   1.575  10.753  0.1573  0.5223  0.4807
   88SAPS   HN1 8413   0.747   1.471  10.752 -2.4446  0.4303  1.2060
   88SAPS   HN2 8414   0.839   1.619  10.734  1.5156 -1.0531  2.8142
   88SAPS   HN3 8415   0.721   1.606  10.849 -1.8236  0.1516  0.1076
   88SAPS   C12 8416   0.642   1.652  10.674  0.0177  0.3490  0.0818
   88SAPS  H12A 8417   0.574   1.709  10.736 -0.7823  0.8471 -1.1998
   88SAPS   C13 8418   0.696   1.739  10.561 -0.2297 -0.3027 -0.8101
   88SAPS  O13A 8419   0.821   1.730  10.530  0.1805  0.0518  0.2677
   88SAPS  O13B 8420   0.618   1.814  10.493  0.3572  0.1450 -0.2905
   88SAPS   C11 8421   0.535   1.551  10.617 -0.2337  0.0577 -0.1722
   88SAPS  H11A 8422   0.577   1.486  10.537  3.1555 -0.0848  1.5563
   88SAPS  H11B 8423   0.458   1.612  10.564  2.3356  3.2585 -0.6003
   88SAPS     P 8424   0.345   1.457  10.777  0.1614  0.1729 -0.1201
   88SAPS   O13 8425   0.325   1.341  10.867 -0.1404  0.2199  0.3572
   88SAPS   O14 8426   0.337   1.588  10.844 -0.2923 -0.3538  0.5267
   88SAPS   O12 8427   0.487   1.458  10.716 -0.4248 -0.5287 -0.1215
   88SAPS   O11 8428   0.240   1.453  10.658  0.0063  0.0483  0.4197
   88SAPS    C1 8429   0.228   1.334  10.576 -0.4499  0.1771  0.1614
   88SAPS    HA 8430   0.328   1.286  10.571  0.4244  1.9310  0.0224
   88SAPS    HB 8431   0.147   1.277  10.625 -1.7399  2.3325  0.6471
   88SAPS    C2 8432   0.182   1.353  10.427 -1.0648  0.6510 -0.4876
   88SAPS    HS 8433   0.251   1.429  10.385  0.3467 -1.0450 -1.3570
   88SAPS   O21 8434   0.036   1.393  10.429 -0.0444 -0.0314  0.1840
   88SAPS   C21 8435   0.003   1.466  10.327 -0.2933 -0.1554 -0.3203
   88SAPS   O22 8436   0.076   1.519  10.243  0.4400 -0.1353  0.0316
   88SAPS   C22 8437  -0.154   1.475  10.322 -0.4641  0.7919  0.2344
   88SAPS   H2R 8438  -0.195   1.473  10.425 -1.9918  0.9900 -0.3331
   88SAPS   H2S 8439  -0.167   1.581  10.290  0.8228  0.8679 -0.0950
   88SAPS    C3 8440   0.193   1.206  10.355  0.6221 -0.3220  0.2520
   88SAPS    HX 8441   0.129   1.136  10.413 -0.0673 -0.8558 -1.1178
   88SAPS    HY 8442   0.295   1.164  10.371  0.8394 -1.3759 -3.0954
   88SAPS   O31 8443   0.146   1.193  10.219 -0.1050 -0.0617  0.0318
   88SAPS   C31 8444   0.234   1.229  10.132  0.4662 -0.3054  1.1014
   88SAPS   O32 8445   0.349   1.252  10.150  0.4467 -0.2577 -0.4410
   88SAPS   C32 8446   0.170   1.209   9.990  0.4929  0.5334 -0.1086
   88SAPS   H2X 8447   0.109   1.297   9.959 -3.3692 -0.8084  2.8254
   88SAPS   H2Y 8448   0.113   1.114   9.978  0.7362  0.4856 -0.9337
   88SAPS   C23 8449  -0.215   1.369  10.227 -0.5460  0.3036  0.0653
   88SAPS   H3R 8450  -0.184   1.273  10.272 -0.6716  0.5542  0.6948
   88SAPS   H3S 8451  -0.171   1.376  10.125 -0.3010 -3.5254 -0.2191
   88SAPS   C24 8452  -0.369   1.385  10.221 -0.4119  0.7521 -0.3183
   88SAPS   H4R 8453  -0.402   1.365  10.325  1.3064  0.2857  0.1817
   88SAPS   H4S 8454  -0.419   1.313  10.154  0.0575 -1.4139  1.5183
   88SAPS   C25 8455  -0.410   1.525  10.179  0.6348  0.7660 -0.9772
   88SAPS   H5R 8456  -0.453   1.588  10.259 -2.1098 -1.9619 -0.1002
   88SAPS   C26 8457  -0.402   1.573  10.054  0.4266 -0.3162  0.4121
   88SAPS   H6R 8458  -0.460   1.664  10.032  0.6968 -0.5002 -1.1556
   88SAPS   C27 8459  -0.352   1.494   9.937  0.8114 -0.2505  0.0448
   88SAPS   H7R 8460  -0.342   1.388   9.967  0.0025 -0.2460  0.3454
   88SAPS   H7S 8461  -0.257   1.541   9.902 -0.2046  1.2729 -0.7517
   88SAPS   C28 8462  -0.448   1.482   9.817 -0.3044  0.4253 -0.0317
   88SAPS   H8R 8463  -0.554   1.462   9.842 -0.0563 -1.4161 -0.3231
   88SAPS   C29 8464  -0.422   1.505   9.687  0.2522 -0.3867 -0.2995
   88SAPS   H9R 8465  -0.509   1.488   9.621 -1.5127 -0.8146  2.0027
   88SAPS  C210 8466  -0.295   1.559   9.628  0.2799  0.7607 -0.0237
   88SAPS  H10R 8467  -0.247   1.492   9.554 -1.0379 -2.2137  1.6466
   88SAPS  H10S 8468  -0.215   1.556   9.705 -0.3886 -0.2480  0.6466
   88SAPS  C211 8469  -0.312   1.698   9.571  1.2122  0.1578 -0.0274
   88SAPS  H11R 8470  -0.316   1.780   9.644 -4.1447  0.1829 -0.0068
   88SAPS  C212 8471  -0.332   1.719   9.440  0.0654 -0.6274 -0.3942
   88SAPS  H12R 8472  -0.329   1.817   9.391  2.5343 -1.7918 -2.9137
   88SAPS  C213 8473  -0.325   1.619   9.323 -0.9269 -0.0438 -1.1774
   88SAPS  H13R 8474  -0.282   1.521   9.354 -1.4159  0.6480  2.0042
   88SAPS  H13S 8475  -0.247   1.655   9.252  1.5102 -1.5450  0.5364
   88SAPS  C214 8476  -0.459   1.605   9.263  0.8153  0.2728 -0.5456
   88SAPS  H14R 8477  -0.544   1.573   9.326 -0.0476  0.9386 -1.3375
   88SAPS  C215 8478  -0.480   1.634   9.130  0.5156 -0.2961 -0.1604
   88SAPS  H15R 8479  -0.569   1.610   9.070  1.7351 -1.6612 -1.5023
   88SAPS  C216 8480  -0.372   1.681   9.034  0.1597  0.1550  0.1070
   88SAPS  H16R 8481  -0.286   1.611   9.030 -0.7343 -1.1309  2.1283
   88SAPS  H16S 8482  -0.326   1.777   9.068  0.2128  0.3425 -0.4729
   88SAPS  C217 8483  -0.422   1.723   8.891 -0.4518  0.1987 -0.3558
   88SAPS  H17R 8484  -0.463   1.826   8.896 -2.9096 -0.6377 -1.7179
   88SAPS  H17S 8485  -0.502   1.660   8.848 -0.5383  1.5867 -2.3764
   88SAPS  C218 8486  -0.306   1.740   8.797 -0.2440 -0.3693 -0.2101
   88SAPS  H18R 8487  -0.249   1.646   8.778  0.4407  0.2616 -1.3945
   88SAPS  H18S 8488  -0.245   1.817   8.850 -0.4349 -0.0746 -0.4168
   88SAPS  C219 8489  -0.356   1.813   8.665 -0.0875 -0.0096  0.4881
   88SAPS  H19R 8490  -0.272   1.853   8.604 -1.2761  2.2085  0.2185
   88SAPS  H19S 8491  -0.422   1.896   8.698 -0.8845 -0.4210 -0.0532
   88SAPS  C220 8492  -0.445   1.716   8.582 -0.7185  0.7948 -0.1969
   88SAPS  H20R 8493  -0.382   1.660   8.510  0.1649  0.9540  0.4418
   88SAPS  H20S 8494  -0.525   1.770   8.526 -0.4184  0.9798 -0.4483
   88SAPS  H20T 8495  -0.493   1.639   8.647 -0.3031  0.2687 -0.5114
   88SAPS   C33 8496   0.275   1.192   9.880  0.1601 -0.1183  0.2639
   88SAPS   H3X 8497   0.344   1.109   9.906 -0.3773 -0.4674  0.5893
   88SAPS   H3Y 8498   0.326   1.290   9.874 -0.4576  0.2471  0.8653
   88SAPS   C34 8499   0.201   1.163   9.746 -0.1256  0.0231  0.3069
   88SAPS   H4X 8500   0.112   1.224   9.717 -0.8723 -2.2488 -2.6928
   88SAPS   H4Y 8501   0.163   1.059   9.749  0.4455 -0.2846 -1.6845
   88SAPS   C35 8502   0.287   1.189   9.629 -0.3900 -0.3172  0.1194
   88SAPS   H5X 8503   0.379   1.127   9.621  0.0016  0.3996 -1.2560
   88SAPS   H5Y 8504   0.312   1.297   9.639 -2.9537  0.3049  0.5592
   88SAPS   C36 8505   0.216   1.158   9.496 -0.0428 -0.0152  0.7578
   88SAPS   H6X 8506   0.165   1.253   9.466  2.7807  1.3710 -0.0325
   88SAPS   H6Y 8507   0.134   1.084   9.508 -0.5620  0.6035  1.1290
   88SAPS   C37 8508   0.316   1.140   9.381 -0.1739  1.6027 -0.5777
   88SAPS   H7X 8509   0.395   1.067   9.407 -1.6837  0.3660  0.7482
   88SAPS   H7Y 8510   0.366   1.238   9.366 -1.0231  2.4439  1.6455
   88SAPS   C38 8511   0.243   1.098   9.248  0.2484 -0.4093  0.2300
   88SAPS   H8X 8512   0.173   1.183   9.236  1.9256  1.2191  1.3435
   88SAPS   H8Y 8513   0.185   1.004   9.257 -0.9520  0.3462  0.6571
   88SAPS   C39 8514   0.333   1.083   9.127 -0.5311 -0.3285 -0.2542
   88SAPS   H9X 8515   0.411   1.006   9.145 -0.7993 -0.5095  0.1390
   88SAPS   H9Y 8516   0.380   1.177   9.092  1.1283 -1.0090  0.0579
   88SAPS  C310 8517   0.262   1.018   9.001 -0.0303  0.0420 -0.5329
   88SAPS  H10X 8518   0.194   0.939   9.041  0.6572  0.7992  2.3661
   88SAPS  H10Y 8519   0.341   0.961   8.948  1.7911  2.2169 -0.3026
   88SAPS  C311 8520   0.189   1.116   8.911 -0.3151 -0.0754  0.1583
   88SAPS  H11X 8521   0.268   1.183   8.869  0.2579 -1.7101 -1.5187
   88SAPS  H11Y 8522   0.121   1.167   8.982 -0.5527 -0.0994 -0.0539
   88SAPS  C312 8523   0.113   1.065   8.793 -0.2730  0.5181  0.0875
   88SAPS  H12X 8524   0.031   1.132   8.758 -0.8726  1.4595  3.0528
   88SAPS  H12Y 8525   0.080   0.968   8.834  1.4762  0.5127  1.5823
   88SAPS  C313 8526   0.210   1.050   8.675  0.2560 -0.7701 -0.2223
   88SAPS  H13X 8527   0.301   0.993   8.704  1.2631  2.4250  3.8133
   88SAPS  H13Y 8528   0.248   1.153   8.662  1.0363 -0.7711  1.7799
   88SAPS  C314 8529   0.143   1.007   8.546 -0.1094  0.4259  0.9103
   88SAPS  H14X 8530   0.058   1.073   8.517  0.3723  1.1287  1.0750
   88SAPS  H14Y 8531   0.101   0.904   8.551 -1.8961  0.8700 -2.1454
   88SAPS  C315 8532   0.249   0.992   8.428  0.1859 -0.6012  0.3759
   88SAPS  H15X 8533   0.331   0.932   8.472  0.1556 -0.0340  1.2192
   88SAPS  H15Y 8534   0.292   1.089   8.397 -1.8395 -0.2868 -1.7774
   88SAPS  C316 8535   0.189   0.936   8.298  0.5503  0.3881 -0.4293
   88SAPS  H16X 8536   0.118   1.012   8.259 -1.1862  0.3286  2.3364
   88SAPS  H16Y 8537   0.137   0.842   8.326  0.2836  0.8945  0.8389
   88SAPS  C317 8538   0.299   0.895   8.204 -0.0776 -0.3136 -0.6410
   88SAPS  H17X 8539   0.367   0.826   8.259 -0.9130  0.1895  1.0914
   88SAPS  H17Y 8540   0.351   0.992   8.190 -0.8681  0.6830  2.4147
   88SAPS  C318 8541   0.247   0.823   8.076 -0.1360  0.3776  0.4867
   88SAPS  H18X 8542   0.170   0.894   8.037  2.1148  2.9728  0.4209
   88SAPS  H18Y 8543   0.200   0.724   8.094 -1.5183  0.9543  0.1826
   88SAPS  H18Z 8544   0.334   0.807   8.008  2.3697 -2.6327  4.0048
   89SAPS     N 8545   0.058   4.314  10.448 -0.1506  0.3256  0.2034
   89SAPS   HN1 8546   0.144   4.286  10.397 -0.3052  0.8495 -0.3598
   89SAPS   HN2 8547  -0.004   4.240  10.485 -1.5063  0.6873 -1.2053
   89SAPS   HN3 8548   0.010   4.365  10.371 -0.3505  0.0864  0.1693
   89SAPS   C12 8549   0.079   4.401  10.565  0.3801 -0.2915 -1.0682
   89SAPS  H12A 8550   0.150   4.480  10.545  1.1578 -0.4565  0.8964
   89SAPS   C13 8551  -0.055   4.466  10.616  0.6870 -0.3005  0.4581
   89SAPS  O13A 8552  -0.126   4.529  10.529  0.3780 -0.2667  0.3449
   89SAPS  O13B 8553  -0.049   4.523  10.725  0.0112  0.1943 -0.4236
   89SAPS   C11 8554   0.160   4.317  10.669 -0.4326 -0.1104  0.5093
   89SAPS  H11A 8555   0.081   4.249  10.706 -1.3241  1.0047  0.7042
   89SAPS  H11B 8556   0.187   4.371  10.762 -2.5542 -0.6474  1.4864
   89SAPS     P 8557   0.382   4.169  10.700  0.0144 -0.0778 -0.1762
   89SAPS   O13 8558   0.451   4.260  10.795 -0.2218 -0.0902  0.2666
   89SAPS   O14 8559   0.296   4.068  10.763  0.3274  0.3582 -0.0269
   89SAPS   O12 8560   0.281   4.260  10.609 -0.0102 -0.4474 -0.0968
   89SAPS   O11 8561   0.480   4.105  10.588  0.4568  0.3511  0.1160
   89SAPS    C1 8562   0.440   4.123  10.451 -0.1444 -0.3973 -0.5944
   89SAPS    HA 8563   0.477   4.033  10.398 -1.8304 -1.0783 -0.6953
   89SAPS    HB 8564   0.331   4.115  10.430 -0.0165 -0.7932 -1.1311
   89SAPS    C2 8565   0.505   4.242  10.382  0.7141 -0.0875 -0.9338
   89SAPS    HS 8566   0.468   4.333  10.435 -0.8979 -1.8338  1.1181
   89SAPS   O21 8567   0.469   4.231  10.241  0.1213  0.1646 -0.2474
   89SAPS   C21 8568   0.354   4.289  10.204  0.4513 -0.2270  0.7133
   89SAPS   O22 8569   0.267   4.333  10.272  0.7222 -0.0204 -0.2697
   89SAPS   C22 8570   0.339   4.281  10.053  0.3227 -0.0808  0.0584
   89SAPS   H2R 8571   0.441   4.289  10.009 -0.6378  2.0123 -1.9392
   89SAPS   H2S 8572   0.293   4.182  10.029  0.2057 -0.2094  0.7819
   89SAPS    C3 8573   0.660   4.258  10.402  0.1532  0.3596 -0.5938
   89SAPS    HX 8574   0.698   4.161  10.365 -0.3327  0.5698 -1.6837
   89SAPS    HY 8575   0.680   4.262  10.511  0.5144 -2.9963 -0.4310
   89SAPS   O31 8576   0.723   4.364  10.332 -0.6690 -0.0862  0.0034
   89SAPS   C31 8577   0.851   4.399  10.372 -0.0405 -0.5594 -0.3365
   89SAPS   O32 8578   0.896   4.375  10.483 -0.1957  0.2661  0.2243
   89SAPS   C32 8579   0.925   4.494  10.266 -0.3206  0.0921  0.0375
   89SAPS   H2X 8580   1.024   4.511  10.312 -1.2732  2.0996  1.5343
   89SAPS   H2Y 8581   0.879   4.594  10.251 -0.4793 -0.3111 -2.4940
   89SAPS   C23 8582   0.249   4.398   9.997  0.2691  0.0005 -1.3788
   89SAPS   H3R 8583   0.280   4.493  10.045  1.5975 -0.2775 -1.6566
   89SAPS   H3S 8584   0.146   4.363  10.021 -0.3246  0.7992 -2.6443
   89SAPS   C24 8585   0.256   4.427   9.848 -0.0634  0.0195  0.0806
   89SAPS   H4R 8586   0.162   4.479   9.821  0.5425 -0.1506 -2.5938
   89SAPS   H4S 8587   0.259   4.329   9.795  1.4252  0.0384  0.0745
   89SAPS   C25 8588   0.370   4.511   9.804 -0.2192 -0.6746 -0.0139
   89SAPS   H5R 8589   0.361   4.616   9.835 -1.0078 -1.5062  2.9133
   89SAPS   C26 8590   0.483   4.475   9.739 -0.1568  1.7119  0.9134
   89SAPS   H6R 8591   0.556   4.555   9.722  1.8206 -0.3923 -1.1577
   89SAPS   C27 8592   0.523   4.337   9.689 -0.3587 -0.1996  0.4854
   89SAPS   H7R 8593   0.509   4.330   9.579 -1.3074 -1.8107  0.6731
   89SAPS   H7S 8594   0.457   4.252   9.719  1.0115 -1.3830  0.2585
   89SAPS   C28 8595   0.667   4.299   9.736  0.5228 -0.2542 -0.3679
   89SAPS   H8R 8596   0.683   4.335   9.839  0.7499 -1.3943  0.0099
   89SAPS   C29 8597   0.755   4.228   9.674 -0.6648  0.5215  0.2953
   89SAPS   H9R 8598   0.853   4.216   9.722 -0.9710  1.1020  1.0958
   89SAPS  C210 8599   0.742   4.179   9.533 -0.3354  0.6204  0.0394
   89SAPS  H10R 8600   0.634   4.160   9.516 -0.6027  1.3468  0.8563
   89SAPS  H10S 8601   0.785   4.077   9.527 -2.6933 -0.3446 -2.4036
   89SAPS  C211 8602   0.789   4.275   9.427 -0.3985  0.2202  0.4793
   89SAPS  H11R 8603   0.793   4.378   9.466 -0.3964 -1.2857  5.0491
   89SAPS  C212 8604   0.811   4.256   9.297  0.7793 -0.1012 -0.4163
   89SAPS  H12R 8605   0.835   4.342   9.233  0.6738 -0.0741 -0.4210
   89SAPS  C213 8606   0.801   4.137   9.214 -0.0204 -0.0522 -0.0429
   89SAPS  H13R 8607   0.765   4.173   9.115  0.9315 -2.2637 -1.2596
   89SAPS  H13S 8608   0.731   4.063   9.260  0.8494 -1.3691 -0.7890
   89SAPS  C214 8609   0.930   4.061   9.199  0.2697 -0.5430 -0.0839
   89SAPS  H14R 8610   0.983   4.050   9.295  0.3268 -1.2728 -0.1939
   89SAPS  C215 8611   0.994   4.016   9.088  0.1244 -0.1238 -0.6408
   89SAPS  H15R 8612   1.083   3.953   9.104  0.4945  0.1039 -1.6756
   89SAPS  C216 8613   0.944   4.022   8.948  0.1154  0.3391 -0.4053
   89SAPS  H16R 8614   0.993   4.097   8.884 -0.5285 -1.2807 -2.9544
   89SAPS  H16S 8615   0.837   4.053   8.948  0.6978  2.5697  0.8944
   89SAPS  C217 8616   0.946   3.885   8.881 -0.0289  0.1696 -0.7691
   89SAPS  H17R 8617   0.895   3.804   8.938 -0.5446 -0.9670 -2.7272
   89SAPS  H17S 8618   1.055   3.868   8.867  0.5051  1.9822  0.7669
   89SAPS  C218 8619   0.870   3.886   8.742  0.5892 -0.6288  0.0709
   89SAPS  H18R 8620   0.880   3.988   8.698 -0.9310 -0.0526  0.9889
   89SAPS  H18S 8621   0.762   3.880   8.769  0.8814  2.0323  2.2897
   89SAPS  C219 8622   0.928   3.773   8.656 -0.4098 -0.4325  0.4981
   89SAPS  H19R 8623   0.907   3.677   8.708 -1.1605  0.1437  1.2782
   89SAPS  H19S 8624   1.038   3.790   8.652 -0.6418  1.0758 -0.0776
   89SAPS  C220 8625   0.885   3.767   8.510 -0.4632  0.2186  0.2538
   89SAPS  H20R 8626   0.936   3.851   8.457  1.4091 -0.1054  1.4564
   89SAPS  H20S 8627   0.774   3.773   8.500 -0.6490 -1.8248  0.7592
   89SAPS  H20T 8628   0.929   3.681   8.456  0.8013  0.1959  1.2768
   89SAPS   C33 8629   0.947   4.429  10.127  0.1302 -0.1584 -0.0316
   89SAPS   H3X 8630   0.846   4.410  10.083 -0.1720  1.9850 -0.3933
   89SAPS   H3Y 8631   1.002   4.334  10.142 -0.2496 -0.1855  1.2658
   89SAPS   C34 8632   1.022   4.514  10.023  0.0341  0.3751  0.5434
   89SAPS   H4X 8633   1.130   4.538  10.039  0.4599 -0.6061 -0.6625
   89SAPS   H4Y 8634   0.957   4.604  10.022 -1.3582 -0.6042  1.4075
   89SAPS   C35 8635   1.015   4.454   9.882  0.3542  0.0878 -0.5791
   89SAPS   H5X 8636   0.913   4.426   9.848  0.6668  0.1468 -1.5888
   89SAPS   H5Y 8637   1.088   4.372   9.864  0.1404  0.2213 -2.2549
   89SAPS   C36 8638   1.062   4.560   9.777 -0.2549 -0.1032 -0.0124
   89SAPS   H6X 8639   1.170   4.575   9.797 -0.5918 -0.7595  2.5260
   89SAPS   H6Y 8640   1.013   4.660   9.791 -0.8886 -0.2491 -1.0532
   89SAPS   C37 8641   1.035   4.507   9.639  0.1781 -0.3489  0.7511
   89SAPS   H7X 8642   0.927   4.502   9.613  0.6420 -3.3261 -1.1182
   89SAPS   H7Y 8643   1.066   4.401   9.641  1.0118 -0.1246  0.2548
   89SAPS   C38 8644   1.101   4.598   9.528 -0.2003  0.0069 -0.4485
   89SAPS   H8X 8645   1.212   4.602   9.536  0.1557  2.4754 -4.3625
   89SAPS   H8Y 8646   1.073   4.704   9.545  2.0494  0.9227 -1.8909
   89SAPS   C39 8647   1.066   4.552   9.384  0.0866 -0.1650  0.0619
   89SAPS   H9X 8648   0.955   4.544   9.379 -0.0865  1.0197  1.4088
   89SAPS   H9Y 8649   1.110   4.452   9.363  0.7657  0.1453 -0.0185
   89SAPS  C310 8650   1.126   4.645   9.277 -0.0223 -0.7397 -0.5721
   89SAPS  H10X 8651   1.237   4.640   9.280 -0.0959 -2.5705  0.8386
   89SAPS  H10Y 8652   1.090   4.749   9.292  1.8867  0.3914 -3.1019
   89SAPS  C311 8653   1.063   4.622   9.138 -0.3132 -0.6116  0.5022
   89SAPS  H11X 8654   1.094   4.703   9.068  2.4454  0.9388  3.2227
   89SAPS  H11Y 8655   0.953   4.632   9.148 -0.2037 -0.8356  2.2752
   89SAPS  C312 8656   1.110   4.488   9.072 -0.2020 -0.9881  0.2695
   89SAPS  H12X 8657   1.083   4.411   9.148  1.1889 -1.4077  0.3675
   89SAPS  H12Y 8658   1.217   4.498   9.042 -0.3276  2.0013  0.5414
   89SAPS  C313 8659   1.032   4.439   8.951  0.4317  0.1436  0.6256
   89SAPS  H13X 8660   0.926   4.424   8.979  0.0623 -1.1834 -1.2974
   89SAPS  H13Y 8661   1.078   4.344   8.915 -2.2949 -1.1828  0.4010
   89SAPS  C314 8662   1.033   4.532   8.832  0.4207  0.7269 -0.0707
   89SAPS  H14X 8663   1.138   4.565   8.817  1.1805 -1.2839  0.4636
   89SAPS  H14Y 8664   0.971   4.622   8.847 -0.1568  1.0154 -3.4028
   89SAPS  C315 8665   0.970   4.472   8.699 -0.1836  0.3320  0.4024
   89SAPS  H15X 8666   0.880   4.414   8.725  0.5829 -1.3649 -0.6021
   89SAPS  H15Y 8667   1.038   4.392   8.663 -1.3623 -1.8050  2.6023
   89SAPS  C316 8668   0.955   4.583   8.594  0.2644  0.0582 -0.1426
   89SAPS  H16X 8669   0.876   4.650   8.633  0.1817 -0.1053 -0.0294
   89SAPS  H16Y 8670   0.905   4.537   8.505  2.4617 -0.0733 -1.3931
   89SAPS  C317 8671   1.081   4.655   8.558  0.1621  0.0947  0.4719
   89SAPS  H17X 8672   1.119   4.705   8.650 -0.6476  1.5893  0.0189
   89SAPS  H17Y 8673   1.060   4.740   8.490  0.5556  0.5707  0.9311
   89SAPS  C318 8674   1.190   4.560   8.499 -0.4785 -0.3959 -0.3395
   89SAPS  H18X 8675   1.204   4.469   8.562 -2.6134  1.5141  3.2603
   89SAPS  H18Y 8676   1.287   4.612   8.494 -0.8139  0.3287  0.5019
   89SAPS  H18Z 8677   1.161   4.528   8.397 -1.3646 -0.6157 -0.0359
   90SAPS     N 8678   1.866   3.574  10.603 -0.1177 -0.7717  0.5706
   90SAPS   HN1 8679   1.954   3.576  10.548  0.3680  1.2071  1.3165
   90SAPS   HN2 8680   1.809   3.660  10.588 -1.4284 -1.3368  2.0727
   90SAPS   HN3 8681   1.892   3.577  10.703 -0.1387  2.6987  0.5899
   90SAPS   C12 8682   1.791   3.446  10.559  0.0931  0.1749  1.0236
   90SAPS  H12A 8683   1.805   3.432  10.453 -0.6589  1.5628  0.7216
   90SAPS   C13 8684   1.848   3.316  10.622 -0.2136  0.4745  0.2036
   90SAPS  O13A 8685   1.947   3.324  10.695  0.1051 -0.6058  0.7412
   90SAPS  O13B 8686   1.786   3.208  10.602  0.3613 -0.3565 -0.0881
   90SAPS   C11 8687   1.650   3.456  10.605 -0.3248 -0.5603  0.2908
   90SAPS  H11A 8688   1.631   3.441  10.713 -0.7044  0.9663  0.4562
   90SAPS  H11B 8689   1.608   3.374  10.543  0.4682 -0.7350 -0.0312
   90SAPS     P 8690   1.441   3.582  10.535 -0.2869 -0.0359  0.1358
   90SAPS   O13 8691   1.415   3.483  10.431 -0.1189  0.4453  0.0514
   90SAPS   O14 8692   1.376   3.564  10.667  0.6744 -0.7173 -0.2368
   90SAPS   O12 8693   1.600   3.582  10.559  0.1634  0.0831 -0.0960
   90SAPS   O11 8694   1.412   3.726  10.477  0.5630  0.6694  1.0939
   90SAPS    C1 8695   1.451   3.774  10.351  0.1554 -0.1225  0.7929
   90SAPS    HA 8696   1.523   3.705  10.303  1.8595  1.1490  1.4286
   90SAPS    HB 8697   1.364   3.782  10.283  1.4609  0.1054 -0.9147
   90SAPS    C2 8698   1.512   3.918  10.346  0.4677 -0.0223  0.3067
   90SAPS    HS 8699   1.590   3.912  10.425 -0.7604  0.7782  1.6388
   90SAPS   O21 8700   1.404   4.004  10.393 -0.0742  0.0241 -0.3013
   90SAPS   C21 8701   1.442   4.108  10.464 -0.6115  0.1616  0.8859
   90SAPS   O22 8702   1.554   4.137  10.507 -0.4420 -0.6216  0.3443
   90SAPS   C22 8703   1.316   4.195  10.491  0.4712 -0.0156  1.1429
   90SAPS   H2R 8704   1.247   4.127  10.545 -2.6214 -0.1973 -2.5990
   90SAPS   H2S 8705   1.355   4.285  10.544  0.7889  1.0735 -0.8335
   90SAPS    C3 8706   1.574   3.962  10.211  0.1872  0.0255 -0.2640
   90SAPS    HX 8707   1.490   3.967  10.139 -1.7565  1.1147  1.9346
   90SAPS    HY 8708   1.633   3.873  10.179 -0.2628  0.1784 -1.5774
   90SAPS   O31 8709   1.655   4.084  10.227 -0.0910 -0.1052 -0.6137
   90SAPS   C31 8710   1.770   4.070  10.288 -0.2767  0.2551  0.0980
   90SAPS   O32 8711   1.814   3.966  10.333  0.4021  0.1944 -0.6209
   90SAPS   C32 8712   1.853   4.195  10.290 -0.2462 -0.1237 -0.2973
   90SAPS   H2X 8713   1.907   4.196  10.387 -0.2418  1.0931 -0.3003
   90SAPS   H2Y 8714   1.784   4.281  10.283  2.3765  2.2331  0.8184
   90SAPS   C23 8715   1.243   4.232  10.356  0.0759  0.3873  0.3445
   90SAPS   H3R 8716   1.144   4.256  10.400  0.5329  2.3613  0.3946
   90SAPS   H3S 8717   1.221   4.141  10.296 -0.5448  0.7209  0.0558
   90SAPS   C24 8718   1.291   4.355  10.284  0.7423 -0.3438 -0.2161
   90SAPS   H4R 8719   1.297   4.447  10.346 -1.3014 -0.4036  0.1329
   90SAPS   H4S 8720   1.222   4.377  10.200 -1.1319 -1.6755  0.8990
   90SAPS   C25 8721   1.429   4.330  10.232 -1.1540  0.2593 -0.2380
   90SAPS   H5R 8722   1.497   4.328  10.318  0.1504  1.8635 -1.1756
   90SAPS   C26 8723   1.479   4.311  10.110 -0.5658  0.5845  0.3371
   90SAPS   H6R 8724   1.586   4.283  10.102 -0.5001  0.1682  2.1850
   90SAPS   C27 8725   1.405   4.294   9.976 -0.2050  0.2030  0.2443
   90SAPS   H7R 8726   1.480   4.282   9.895 -0.6463  1.4620 -0.3915
   90SAPS   H7S 8727   1.343   4.385   9.958 -0.9728  0.0532  1.8881
   90SAPS   C28 8728   1.305   4.188   9.953  0.6844  0.0799 -0.1027
   90SAPS   H8R 8729   1.255   4.154  10.045 -0.2573 -3.3079 -1.6827
   90SAPS   C29 8730   1.255   4.128   9.838 -0.2797 -0.0977  0.2587
   90SAPS   H9R 8731   1.177   4.050   9.835  1.0625 -1.4822 -1.6829
   90SAPS  C210 8732   1.282   4.175   9.694 -0.0987  0.1725 -0.5235
   90SAPS  H10R 8733   1.314   4.281   9.695  0.1850  0.1957  3.1301
   90SAPS  H10S 8734   1.186   4.163   9.641  0.1341 -2.5301 -0.4808
   90SAPS  C211 8735   1.388   4.107   9.610 -0.2099  0.8997  0.9334
   90SAPS  H11R 8736   1.461   4.048   9.668  1.3730  1.8320 -0.0231
   90SAPS  C212 8737   1.398   4.097   9.477 -0.7835  0.2434 -0.0607
   90SAPS  H12R 8738   1.498   4.061   9.451  0.0869  0.8836  2.1720
   90SAPS  C213 8739   1.307   4.146   9.368  0.0889  0.3361 -0.5768
   90SAPS  H13R 8740   1.213   4.186   9.412  0.8245  0.2445  1.1484
   90SAPS  H13S 8741   1.286   4.073   9.288  2.9504  1.1386 -2.2106
   90SAPS  C214 8742   1.376   4.268   9.309  0.0943 -0.2448 -0.4468
   90SAPS  H14R 8743   1.379   4.359   9.370 -0.6905  0.8572 -1.9858
   90SAPS  C215 8744   1.425   4.278   9.184  0.0731 -0.3230  0.2724
   90SAPS  H15R 8745   1.463   4.375   9.150 -2.2303  0.0743 -1.4474
   90SAPS  C216 8746   1.434   4.177   9.074  0.2329 -0.1850  0.0548
   90SAPS  H16R 8747   1.426   4.078   9.123  2.3179  0.5780  2.1871
   90SAPS  H16S 8748   1.540   4.190   9.043  0.2795  1.5800  0.8456
   90SAPS  C217 8749   1.332   4.183   8.964  0.2486 -0.5046  1.0675
   90SAPS  H17R 8750   1.336   4.281   8.912  0.8654 -1.4608 -0.7487
   90SAPS  H17S 8751   1.228   4.174   9.003 -0.5552 -1.2033 -1.1027
   90SAPS  C218 8752   1.351   4.075   8.854 -0.2152 -0.1184  0.4779
   90SAPS  H18R 8753   1.447   4.093   8.801  0.1164 -0.9569  0.7765
   90SAPS  H18S 8754   1.270   4.081   8.778 -0.1911 -1.8231  0.2894
   90SAPS  C219 8755   1.345   3.928   8.909 -1.0037  1.0309  0.0105
   90SAPS  H19R 8756   1.245   3.914   8.955 -0.1695  0.5971  1.7505
   90SAPS  H19S 8757   1.421   3.912   8.989 -0.4671 -1.0885 -0.8523
   90SAPS  C220 8758   1.365   3.821   8.803 -0.4581  0.2510 -0.7853
   90SAPS  H20R 8759   1.304   3.846   8.713  0.3800  0.6672 -1.2494
   90SAPS  H20S 8760   1.340   3.724   8.851 -1.8652  1.5830  1.3463
   90SAPS  H20T 8761   1.469   3.825   8.764 -0.8729  0.7038 -1.9014
   90SAPS   C33 8762   1.950   4.182  10.168 -0.4700  0.2299  0.2924
   90SAPS   H3X 8763   1.998   4.082  10.178 -1.2658 -0.3562 -1.4392
   90SAPS   H3Y 8764   2.024   4.263  10.185 -0.6608  0.6915 -1.0079
   90SAPS   C34 8765   1.873   4.206  10.033  0.0731 -0.4845 -0.1183
   90SAPS   H4X 8766   1.829   4.308  10.039 -1.6474 -1.1265 -0.8919
   90SAPS   H4Y 8767   1.781   4.146  10.017 -0.5481  0.0413  1.3160
   90SAPS   C35 8768   1.966   4.204   9.906  0.4270  0.3986  0.7385
   90SAPS   H5X 8769   2.025   4.111   9.915  1.1003  0.9412  2.3526
   90SAPS   H5Y 8770   2.036   4.291   9.913  1.5978 -0.5374  1.0155
   90SAPS   C36 8771   1.892   4.226   9.769 -0.3777 -0.1304  0.0643
   90SAPS   H6X 8772   1.864   4.333   9.756  1.4695  0.4196  0.3262
   90SAPS   H6Y 8773   1.801   4.166   9.747 -1.4638  1.4321  0.1411
   90SAPS   C37 8774   1.991   4.204   9.655 -1.0801 -0.2525  1.0605
   90SAPS   H7X 8775   2.021   4.097   9.661  0.9153  0.2824  1.7115
   90SAPS   H7Y 8776   2.080   4.269   9.665 -1.1031  0.7300 -3.2087
   90SAPS   C38 8777   1.923   4.235   9.525 -0.2852 -0.1611  0.4163
   90SAPS   H8X 8778   1.886   4.339   9.529  0.8680  0.3400 -1.1564
   90SAPS   H8Y 8779   1.832   4.175   9.502  0.3751 -0.5395 -1.3339
   90SAPS   C39 8780   2.020   4.224   9.400 -0.0354 -0.6237 -0.3849
   90SAPS   H9X 8781   2.032   4.114   9.385 -0.0833 -0.6187 -0.4600
   90SAPS   H9Y 8782   2.112   4.285   9.415 -0.9676  1.1990 -1.7362
   90SAPS  C310 8783   1.954   4.290   9.277 -0.4410 -0.9674  0.1481
   90SAPS  H10X 8784   1.960   4.401   9.279 -1.8415 -0.8814  1.3576
   90SAPS  H10Y 8785   1.849   4.255   9.280 -1.5007  1.9247 -0.6819
   90SAPS  C311 8786   2.014   4.240   9.148  0.3092  0.3842  0.2933
   90SAPS  H11X 8787   2.009   4.129   9.148 -1.5102  0.4142  1.4579
   90SAPS  H11Y 8788   2.122   4.267   9.148 -0.0196  1.7711  0.2339
   90SAPS  C312 8789   1.947   4.291   9.024  1.1953  0.7672 -0.7554
   90SAPS  H12X 8790   1.935   4.402   9.022 -0.4944  0.6191 -0.0969
   90SAPS  H12Y 8791   1.845   4.248   9.026  1.5248 -0.2012 -2.7735
   90SAPS  C313 8792   2.022   4.231   8.899  0.5030 -0.3316  0.4083
   90SAPS  H13X 8793   2.045   4.123   8.904 -1.3138 -0.8766 -1.4084
   90SAPS  H13Y 8794   2.113   4.294   8.886 -0.1936  0.4377 -1.0044
   90SAPS  C314 8795   1.934   4.247   8.781  0.2969  0.4125  0.2656
   90SAPS  H14X 8796   1.883   4.346   8.780  0.2392  0.3834 -0.4234
   90SAPS  H14Y 8797   1.859   4.167   8.799  0.0447  0.7413  0.6963
   90SAPS  C315 8798   2.022   4.237   8.648  0.3325  1.4109 -0.8274
   90SAPS  H15X 8799   2.062   4.134   8.634 -2.0006  0.4086 -0.5638
   90SAPS  H15Y 8800   2.113   4.293   8.678  1.0844 -1.1237  2.1636
   90SAPS  C316 8801   1.943   4.276   8.525 -0.4649  0.5637  0.1463
   90SAPS  H16X 8802   1.908   4.381   8.535  0.7779  0.9336  0.7304
   90SAPS  H16Y 8803   1.855   4.208   8.518  0.9779 -1.4453  0.8251
   90SAPS  C317 8804   2.025   4.255   8.397 -0.0709 -0.2568 -0.8749
   90SAPS  H17X 8805   2.053   4.148   8.399 -2.0651 -0.8137 -0.9351
   90SAPS  H17Y 8806   2.120   4.313   8.403 -0.4899  0.3642  0.0270
   90SAPS  C318 8807   1.942   4.296   8.272 -0.3362 -0.6326 -0.0115
   90SAPS  H18X 8808   1.922   4.404   8.254  0.9580  0.2711  3.2633
   90SAPS  H18Y 8809   1.841   4.255   8.288 -1.0804  0.5741 -1.3656
   90SAPS  H18Z 8810   1.985   4.250   8.180  2.1748 -1.1791  1.3409
   91SAPS     N 8811   5.737   2.207   5.719  0.8286 -0.3086  0.1833
   91SAPS   HN1 8812   5.834   2.244   5.725  0.9457 -0.7279  0.8961
   91SAPS   HN2 8813   5.705   2.214   5.620  1.3687 -2.6161 -0.2039
   91SAPS   HN3 8814   5.663   2.266   5.761 -2.5320 -2.7441 -1.7983
   91SAPS   C12 8815   5.717   2.061   5.751 -0.3895 -0.2590 -0.6673
   91SAPS  H12A 8816   5.670   2.053   5.848 -0.4114 -2.7212 -0.8168
   91SAPS   C13 8817   5.621   1.996   5.643 -0.1389  0.8103  0.2778
   91SAPS  O13A 8818   5.557   2.069   5.564  0.4376 -0.0500  0.0268
   91SAPS  O13B 8819   5.588   1.871   5.661  0.0693  0.1384 -0.4304
   91SAPS   C11 8820   5.851   1.989   5.765 -0.7339 -0.2649  0.0529
   91SAPS  H11A 8821   5.922   2.018   5.684 -0.5448  0.1807  0.3752
   91SAPS  H11B 8822   5.835   1.881   5.747  1.1889 -0.0365 -4.1715
   91SAPS     P 8823   5.923   1.917   6.015 -0.1668 -0.2718  0.1245
   91SAPS   O13 8824   5.777   1.891   6.052 -0.6273 -0.0815  0.9350
   91SAPS   O14 8825   6.009   1.799   5.988  0.2401 -0.0448 -0.8141
   91SAPS   O12 8826   5.923   2.013   5.887  0.7026  0.4414 -0.8243
   91SAPS   O11 8827   5.998   1.997   6.131  0.4572  0.1208  0.0974
   91SAPS    C1 8828   6.091   2.106   6.102  0.3948 -1.0547  0.4025
   91SAPS    HA 8829   6.139   2.091   6.003 -1.0167 -0.8102 -0.3477
   91SAPS    HB 8830   6.035   2.202   6.098  0.4365 -0.9836  1.3000
   91SAPS    C2 8831   6.190   2.121   6.217  0.1676 -0.5386 -0.4609
   91SAPS    HS 8832   6.215   2.016   6.243 -0.4374 -0.4712  0.4486
   91SAPS   O21 8833   6.121   2.185   6.323  0.0989 -0.0900  0.3351
   91SAPS   C21 8834   6.177   2.151   6.449 -0.6692 -0.4234 -0.2933
   91SAPS   O22 8835   6.267   2.066   6.461 -0.2625 -0.0193  0.6248
   91SAPS   C22 8836   6.105   2.230   6.558 -0.4322  0.7570 -0.2460
   91SAPS   H2R 8837   6.173   2.293   6.619 -2.2389 -0.3630  3.1913
   91SAPS   H2S 8838   6.035   2.304   6.515 -2.0149  0.2651  1.3812
   91SAPS    C3 8839   6.315   2.200   6.178 -0.1884 -0.5579 -0.4399
   91SAPS    HX 8840   6.280   2.298   6.137  0.9650 -0.3657 -0.9922
   91SAPS    HY 8841   6.368   2.149   6.095 -0.1334  0.5060 -1.0824
   91SAPS   O31 8842   6.396   2.252   6.286  0.5044 -0.1453  0.2008
   91SAPS   C31 8843   6.522   2.220   6.282  0.4258 -0.2534  0.3246
   91SAPS   O32 8844   6.577   2.165   6.188  0.0679 -0.4373 -0.0816
   91SAPS   C32 8845   6.583   2.249   6.416 -0.0809 -0.3647  0.3629
   91SAPS   H2X 8846   6.569   2.148   6.461  1.6532 -1.2871 -1.0914
   91SAPS   H2Y 8847   6.519   2.325   6.467  0.2517 -0.3460  0.7529
   91SAPS   C23 8848   6.026   2.144   6.662 -0.7546 -0.1984 -0.2807
   91SAPS   H3R 8849   6.093   2.075   6.717 -1.0366 -0.3062 -0.0668
   91SAPS   H3S 8850   5.955   2.081   6.604 -2.2304  1.0338  0.1103
   91SAPS   C24 8851   5.947   2.235   6.745  0.4375 -0.2134 -0.9938
   91SAPS   H4R 8852   5.866   2.287   6.689 -1.2609 -0.5260  1.0330
   91SAPS   H4S 8853   6.012   2.317   6.784  0.8438 -1.2925  0.6889
   91SAPS   C25 8854   5.877   2.166   6.861  0.2432  0.0930  0.3343
   91SAPS   H5R 8855   5.830   2.072   6.828  3.5360 -1.2199 -0.9923
   91SAPS   C26 8856   5.858   2.204   6.991 -0.5683  0.0734 -0.2624
   91SAPS   H6R 8857   5.804   2.132   7.055 -0.0802 -0.3323 -0.2989
   91SAPS   C27 8858   5.920   2.329   7.055 -0.5696  0.2944  1.2740
   91SAPS   H7R 8859   5.929   2.408   6.977  1.8592 -0.0298  1.1378
   91SAPS   H7S 8860   6.022   2.306   7.093 -0.9709 -0.5572  1.8562
   91SAPS   C28 8861   5.839   2.395   7.167 -0.2819  0.6787 -0.4581
   91SAPS   H8R 8862   5.750   2.449   7.131  0.0807  1.2623 -0.5060
   91SAPS   C29 8863   5.866   2.381   7.299 -0.1508  0.1498 -0.0703
   91SAPS   H9R 8864   5.810   2.452   7.361  0.1971  0.1102  0.2916
   91SAPS  C210 8865   5.983   2.300   7.356  0.1768 -0.8518  0.4666
   91SAPS  H10R 8866   6.034   2.236   7.282 -1.0740 -2.2342  0.7682
   91SAPS  H10S 8867   5.942   2.223   7.425 -1.8864 -0.3173 -0.0957
   91SAPS  C211 8868   6.085   2.396   7.423  0.4140  0.5059  0.6786
   91SAPS  H11R 8869   6.163   2.420   7.348 -2.0556  1.0907 -1.8949
   91SAPS  C212 8870   6.088   2.465   7.541  0.5072  0.5082  0.4297
   91SAPS  H12R 8871   6.179   2.518   7.572  1.3371 -0.5514 -0.1770
   91SAPS  C213 8872   5.984   2.453   7.657 -0.9145  0.6849  0.1930
   91SAPS  H13R 8873   5.912   2.369   7.650 -0.8400  0.7654 -1.9380
   91SAPS  H13S 8874   5.940   2.552   7.682 -0.3240  1.1828 -0.6897
   91SAPS  C214 8875   6.071   2.421   7.773  0.5843  0.2815  1.0219
   91SAPS  H14R 8876   6.114   2.320   7.764 -0.3740 -0.1983  1.5954
   91SAPS  C215 8877   6.103   2.491   7.886 -0.2187 -0.3967  0.4473
   91SAPS  H15R 8878   6.163   2.438   7.961 -3.0847 -1.7805  1.9248
   91SAPS  C216 8879   6.057   2.630   7.917  0.2945 -0.3243 -0.1769
   91SAPS  H16R 8880   5.998   2.672   7.832  1.1232  0.6259 -0.3035
   91SAPS  H16S 8881   6.149   2.691   7.930 -0.2568  0.8102 -1.3500
   91SAPS  C217 8882   5.972   2.647   8.051 -0.1666  0.2620  0.3675
   91SAPS  H17R 8883   5.897   2.565   8.043  1.4116 -1.2359  0.4091
   91SAPS  H17S 8884   5.922   2.746   8.056 -0.5129  0.0892  0.3949
   91SAPS  C218 8885   6.066   2.645   8.172  0.4419  1.1902  0.5640
   91SAPS  H18R 8886   6.150   2.714   8.151 -0.3743  1.4072 -2.3756
   91SAPS  H18S 8887   6.102   2.541   8.194 -2.9852  0.2984  2.6508
   91SAPS  C219 8888   5.993   2.692   8.298  0.0614  0.5202 -0.5805
   91SAPS  H19R 8889   5.896   2.637   8.301  0.5638 -0.3758  2.2650
   91SAPS  H19S 8890   5.973   2.801   8.294  0.8025  0.7005  0.2978
   91SAPS  C220 8891   6.061   2.640   8.425  0.1951 -0.7859  0.0915
   91SAPS  H20R 8892   6.171   2.651   8.416  0.1444  0.9566  1.1533
   91SAPS  H20S 8893   6.038   2.532   8.442  0.7086 -0.8959  0.1299
   91SAPS  H20T 8894   6.013   2.693   8.510  0.2311  0.6108 -0.7392
   91SAPS   C33 8895   6.731   2.274   6.417 -0.5841  0.1918  0.7661
   91SAPS   H3X 8896   6.751   2.375   6.374 -0.4006  0.7055  2.0382
   91SAPS   H3Y 8897   6.777   2.195   6.353 -2.9200  0.6100 -1.6033
   91SAPS   C34 8898   6.786   2.272   6.561 -0.3425  0.2690  0.4328
   91SAPS   H4X 8899   6.892   2.305   6.554 -0.1028  0.5020  3.4869
   91SAPS   H4Y 8900   6.768   2.172   6.608  0.4054  0.3991  1.0134
   91SAPS   C35 8901   6.722   2.373   6.658  0.5713 -0.1300 -0.1808
   91SAPS   H5X 8902   6.620   2.341   6.690 -0.8828  3.0402 -1.2191
   91SAPS   H5Y 8903   6.710   2.467   6.601  0.8602  0.4962  0.7630
   91SAPS   C36 8904   6.824   2.387   6.771 -0.6709  0.9931 -0.1037
   91SAPS   H6X 8905   6.925   2.425   6.748 -0.9682  1.1464 -1.2141
   91SAPS   H6Y 8906   6.839   2.293   6.827 -2.2206  0.2726 -0.8421
   91SAPS   C37 8907   6.776   2.483   6.886  0.2256  0.1605  0.5843
   91SAPS   H7X 8908   6.678   2.439   6.918 -0.1296  2.2731  2.6271
   91SAPS   H7Y 8909   6.750   2.584   6.848  0.6787  0.4634  1.0749
   91SAPS   C38 8910   6.868   2.506   7.009 -0.3246 -0.3551 -0.0579
   91SAPS   H8X 8911   6.975   2.524   6.985 -0.3345 -0.1118  0.0755
   91SAPS   H8Y 8912   6.866   2.409   7.063 -2.8624  0.1863  0.9967
   91SAPS   C39 8913   6.817   2.612   7.109 -0.0643  0.1754 -0.7708
   91SAPS   H9X 8914   6.707   2.616   7.126 -0.0868  2.2352 -1.1994
   91SAPS   H9Y 8915   6.837   2.714   7.070 -0.1289  0.6430  0.3843
   91SAPS  C310 8916   6.887   2.602   7.247 -0.0326  0.1669  0.3810
   91SAPS  H10X 8917   6.991   2.631   7.222 -0.4331  1.3478 -0.0149
   91SAPS  H10Y 8918   6.874   2.495   7.272 -0.3239 -0.0897 -0.8025
   91SAPS  C311 8919   6.826   2.688   7.355 -0.2191 -0.1202 -0.1023
   91SAPS  H11X 8920   6.717   2.670   7.362 -0.3380  0.8645  0.7678
   91SAPS  H11Y 8921   6.841   2.796   7.331  0.4865 -0.0864  0.4595
   91SAPS  C312 8922   6.901   2.663   7.483  0.0599  0.5787 -0.4942
   91SAPS  H12X 8923   7.011   2.652   7.470 -0.1771 -1.7784 -1.0019
   91SAPS  H12Y 8924   6.865   2.561   7.510 -0.2032  0.0963 -2.5093
   91SAPS  C313 8925   6.868   2.766   7.587 -0.6291 -0.5516 -0.8229
   91SAPS  H13X 8926   6.758   2.780   7.583 -0.3567  2.0222 -1.3885
   91SAPS  H13Y 8927   6.918   2.857   7.547  0.6019 -0.7450  0.2211
   91SAPS  C314 8928   6.933   2.735   7.722  0.3207 -0.5799  0.0217
   91SAPS  H14X 8929   7.042   2.718   7.706  0.6270  1.5344 -0.3448
   91SAPS  H14Y 8930   6.907   2.635   7.764 -2.5182 -1.9125 -4.2681
   91SAPS  C315 8931   6.927   2.837   7.836  0.6151 -0.1515 -0.4205
   91SAPS  H15X 8932   6.822   2.846   7.872  0.2875  0.4347 -1.4564
   91SAPS  H15Y 8933   6.939   2.940   7.795  1.0502  0.2174  0.6082
   91SAPS  C316 8934   7.022   2.806   7.955  0.0497 -0.7282 -0.0626
   91SAPS  H16X 8935   7.044   2.895   8.016 -2.3671 -0.1494  0.0544
   91SAPS  H16Y 8936   7.125   2.779   7.923  0.6137 -0.4523  1.4902
   91SAPS  C317 8937   6.981   2.691   8.048  0.8836 -0.4187  0.2069
   91SAPS  H17X 8938   6.969   2.600   7.986  2.4183 -0.5252  0.0356
   91SAPS  H17Y 8939   6.883   2.707   8.097 -1.1321 -0.9685 -3.2666
   91SAPS  C318 8940   7.096   2.657   8.142 -0.1543  0.2806 -0.3939
   91SAPS  H18X 8941   7.090   2.557   8.190  0.3662 -0.7821 -2.4245
   91SAPS  H18Y 8942   7.101   2.731   8.225 -0.2418 -0.0797 -0.0632
   91SAPS  H18Z 8943   7.193   2.658   8.088 -0.4121 -0.5474 -0.8890
   92SAPS     N 8944   0.280   6.303   6.053  0.5687  0.3333 -0.2836
   92SAPS   HN1 8945   0.237   6.211   6.029 -0.4006  1.3255 -2.6721
   92SAPS   HN2 8946   0.228   6.358   6.124 -0.3096 -0.2445 -0.4542
   92SAPS   HN3 8947   0.294   6.361   5.967 -1.1752  0.5179 -0.4911
   92SAPS   C12 8948   0.419   6.281   6.105 -0.4899 -0.2666 -0.2053
   92SAPS  H12A 8949   0.410   6.239   6.204 -0.5744  1.2408  0.4574
   92SAPS   C13 8950   0.492   6.171   6.020 -0.1546  0.4509 -0.4676
   92SAPS  O13A 8951   0.423   6.102   5.942 -0.0102  0.2231  0.3759
   92SAPS  O13B 8952   0.609   6.144   6.048 -0.6992  0.5258 -0.5553
   92SAPS   C11 8953   0.499   6.413   6.108  0.2311  0.3928 -0.2447
   92SAPS  H11A 8954   0.516   6.438   6.001  0.5780  1.2140 -0.0064
   92SAPS  H11B 8955   0.594   6.393   6.162 -0.2338 -1.7078 -0.1219
   92SAPS     P 8956   0.495   6.656   6.202  0.2133  0.4845 -0.2251
   92SAPS   O13 8957   0.532   6.700   6.066 -0.1198 -0.3350 -0.0663
   92SAPS   O14 8958   0.413   6.746   6.286  0.1897  0.1080  0.4383
   92SAPS   O12 8959   0.427   6.513   6.180 -0.5944  0.8507  0.2398
   92SAPS   O11 8960   0.623   6.624   6.290 -0.0216 -0.0632 -0.1942
   92SAPS    C1 8961   0.617   6.539   6.403  0.0271  0.8083  0.4653
   92SAPS    HA 8962   0.559   6.445   6.394  2.0842 -0.3558 -1.7860
   92SAPS    HB 8963   0.723   6.519   6.432 -0.8480 -1.3593  2.5175
   92SAPS    C2 8964   0.567   6.609   6.527  0.1246  0.2547  0.1153
   92SAPS    HS 8965   0.459   6.622   6.508 -0.1662 -0.9395  0.8276
   92SAPS   O21 8966   0.626   6.734   6.551 -0.2844  0.5132  0.4548
   92SAPS   C21 8967   0.552   6.823   6.625 -1.1247 -0.2525 -0.5415
   92SAPS   O22 8968   0.438   6.811   6.654 -0.4108  0.5384 -0.0092
   92SAPS   C22 8969   0.640   6.952   6.631 -0.0039 -0.3327  0.8417
   92SAPS   H2R 8970   0.741   6.932   6.590  0.0413 -2.1320  1.7334
   92SAPS   H2S 8971   0.590   7.016   6.555  0.5025 -0.9348 -0.0093
   92SAPS    C3 8972   0.580   6.518   6.656 -0.8631  0.4545 -0.9263
   92SAPS    HX 8973   0.686   6.485   6.661 -0.5407  1.5307  3.8660
   92SAPS    HY 8974   0.525   6.421   6.659  1.0355 -0.6532  0.6496
   92SAPS   O31 8975   0.557   6.592   6.782 -0.4055 -0.2885 -0.5894
   92SAPS   C31 8976   0.438   6.578   6.829 -0.8652 -0.1977 -0.7074
   92SAPS   O32 8977   0.351   6.510   6.790  0.7895 -0.3157 -0.0485
   92SAPS   C32 8978   0.440   6.668   6.954  0.5036  0.0804  0.0485
   92SAPS   H2X 8979   0.457   6.775   6.929 -3.1838  0.5951 -0.8145
   92SAPS   H2Y 8980   0.521   6.625   7.017  0.4141 -1.4907 -0.8429
   92SAPS   C23 8981   0.647   7.008   6.772  1.0784 -0.4545 -0.5700
   92SAPS   H3R 8982   0.547   7.032   6.814  1.5815  1.2473 -0.2677
   92SAPS   H3S 8983   0.702   7.105   6.771 -0.0684  0.2585  0.6456
   92SAPS   C24 8984   0.723   6.919   6.871 -0.1758 -0.2811  0.8880
   92SAPS   H4R 8985   0.669   6.822   6.874 -0.0056 -0.3847  4.6200
   92SAPS   H4S 8986   0.732   6.974   6.967  3.2423  2.1352 -0.6316
   92SAPS   C25 8987   0.858   6.873   6.830 -0.8677 -0.5495  0.2824
   92SAPS   H5R 8988   0.907   6.925   6.746 -1.4210 -0.0152  0.2852
   92SAPS   C26 8989   0.926   6.781   6.899 -1.0483 -0.1666  0.4477
   92SAPS   H6R 8990   1.019   6.747   6.850 -0.1188 -1.6319  3.0419
   92SAPS   C27 8991   0.883   6.701   7.024 -0.0445 -0.4358  0.9963
   92SAPS   H7R 8992   0.777   6.674   7.002 -0.3044  1.3698 -0.2408
   92SAPS   H7S 8993   0.863   6.769   7.110  1.5231  1.4638 -0.0642
   92SAPS   C28 8994   0.957   6.571   7.049 -0.5485 -0.2691 -0.6782
   92SAPS   H8R 8995   0.971   6.509   6.960 -0.6541  0.2447 -1.0559
   92SAPS   C29 8996   0.992   6.511   7.168  0.2338  0.5044 -0.3621
   92SAPS   H9R 8997   1.053   6.420   7.157 -1.7938 -0.8993 -0.3321
   92SAPS  C210 8998   0.964   6.575   7.307  0.3273  0.0708  0.0199
   92SAPS  H10R 8999   0.942   6.491   7.376 -3.4801  0.7968 -0.0794
   92SAPS  H10S 9000   0.866   6.627   7.301  0.4537  0.4654  1.2609
   92SAPS  C211 9001   1.070   6.671   7.361  0.4698 -0.7372 -0.4561
   92SAPS  H11R 9002   1.105   6.752   7.296 -1.3136  0.2048 -0.3310
   92SAPS  C212 9003   1.121   6.673   7.487  0.3615  0.2144 -0.0779
   92SAPS  H12R 9004   1.186   6.754   7.524  0.3155 -1.0877  3.2145
   92SAPS  C213 9005   1.075   6.586   7.599 -0.4774 -0.4216  0.5026
   92SAPS  H13R 9006   1.015   6.501   7.562 -3.0647  1.2776  0.5018
   92SAPS  H13S 9007   1.020   6.658   7.663 -1.9720  0.2578 -1.4630
   92SAPS  C214 9008   1.193   6.532   7.684  0.5763  0.8620  0.4676
   92SAPS  H14R 9009   1.285   6.515   7.627 -0.3371  0.5136 -0.9629
   92SAPS  C215 9010   1.187   6.497   7.818  0.1562 -0.4611  0.1545
   92SAPS  H15R 9011   1.279   6.467   7.871 -0.0609 -0.0362  0.7810
   92SAPS  C216 9012   1.068   6.512   7.910  0.2400  0.6692  0.0388
   92SAPS  H16R 9013   1.011   6.420   7.937 -1.6760  2.6307  3.3597
   92SAPS  H16S 9014   0.993   6.574   7.857 -1.5100 -2.3311 -1.2403
   92SAPS  C217 9015   1.109   6.594   8.038 -0.3500 -0.2471 -0.2962
   92SAPS  H17R 9016   1.016   6.635   8.085  0.3998  1.3623 -0.1345
   92SAPS  H17S 9017   1.167   6.687   8.017  1.6970 -1.1679  1.0305
   92SAPS  C218 9018   1.181   6.511   8.147 -0.1854  0.1785 -0.9442
   92SAPS  H18R 9019   1.232   6.578   8.220 -0.3200  0.4372 -1.0855
   92SAPS  H18S 9020   1.254   6.448   8.092 -0.9252  0.8054 -2.7108
   92SAPS  C219 9021   1.080   6.415   8.222 -0.2299  0.0250  0.4668
   92SAPS  H19R 9022   1.028   6.347   8.151  1.7391 -0.1150 -0.9523
   92SAPS  H19S 9023   1.001   6.480   8.266 -1.3650 -0.0330 -1.3840
   92SAPS  C220 9024   1.138   6.333   8.336 -0.5713 -0.0268 -0.1104
   92SAPS  H20R 9025   1.200   6.403   8.397  0.3908 -0.5710 -0.4410
   92SAPS  H20S 9026   1.208   6.260   8.291  1.7280  1.3727  1.0115
   92SAPS  H20T 9027   1.063   6.277   8.396 -2.7695  1.2390 -1.5234
   92SAPS   C33 9028   0.302   6.664   7.028 -0.2424  0.6013 -0.2814
   92SAPS   H3X 9029   0.270   6.560   7.006  1.0458  0.2490 -0.6048
   92SAPS   H3Y 9030   0.227   6.739   6.997  0.9862  2.3393  0.8086
   92SAPS   C34 9031   0.326   6.673   7.175  0.3210  0.0470 -0.2346
   92SAPS   H4X 9032   0.371   6.579   7.214  1.3066  0.4292 -0.4168
   92SAPS   H4Y 9033   0.238   6.708   7.233  2.4872  2.0060  2.1538
   92SAPS   C35 9034   0.420   6.789   7.218  0.1211 -0.3694  0.3388
   92SAPS   H5X 9035   0.386   6.883   7.170 -2.2169 -3.1218 -4.0763
   92SAPS   H5Y 9036   0.526   6.763   7.197 -0.2466 -3.8538  1.9939
   92SAPS   C36 9037   0.416   6.813   7.371  0.3318 -0.0829 -0.4147
   92SAPS   H6X 9038   0.500   6.873   7.412  0.2762 -0.3994  0.1885
   92SAPS   H6Y 9039   0.416   6.717   7.426 -3.2413 -0.6696 -1.1890
   92SAPS   C37 9040   0.289   6.891   7.405 -0.5347 -0.3137  0.3251
   92SAPS   H7X 9041   0.206   6.818   7.396  0.8903 -1.7379 -2.9237
   92SAPS   H7Y 9042   0.262   6.966   7.327  0.3259  0.9126  1.1617
   92SAPS   C38 9043   0.291   6.976   7.534 -0.1365 -0.5729 -0.2124
   92SAPS   H8X 9044   0.202   7.041   7.549  0.8273  0.6582  0.4530
   92SAPS   H8Y 9045   0.386   7.034   7.536 -0.0186 -0.7881  1.1536
   92SAPS   C39 9046   0.287   6.897   7.667 -0.3690  0.1396 -0.4840
   92SAPS   H9X 9047   0.341   6.800   7.656  0.6147  0.3053  2.1496
   92SAPS   H9Y 9048   0.183   6.871   7.696 -1.0019  2.1900 -0.7497
   92SAPS  C310 9049   0.359   6.977   7.785 -0.2042  0.1424 -0.8675
   92SAPS  H10X 9050   0.301   7.064   7.821  1.3471 -0.1357  2.7292
   92SAPS  H10Y 9051   0.455   7.023   7.751  0.0546  1.7910  1.8437
   92SAPS  C311 9052   0.399   6.897   7.911  0.1241  0.2360 -0.3421
   92SAPS  H11X 9053   0.502   6.902   7.953 -0.4149 -1.6631  1.3864
   92SAPS  H11Y 9054   0.371   6.791   7.895 -1.9398  1.1295 -3.6429
   92SAPS  C312 9055   0.310   6.941   8.038  0.2973 -0.5358 -0.1093
   92SAPS  H12X 9056   0.319   6.870   8.123 -1.2037 -2.6213 -1.5839
   92SAPS  H12Y 9057   0.202   6.940   8.012  0.1540 -0.2602  0.4547
   92SAPS  C313 9058   0.347   7.088   8.083  0.0949  0.2736 -0.4919
   92SAPS  H13X 9059   0.341   7.172   8.011  0.2236  1.2526  0.5942
   92SAPS  H13Y 9060   0.452   7.077   8.117 -0.0060 -0.9034 -0.5076
   92SAPS  C314 9061   0.270   7.147   8.201  0.0372 -0.1058 -0.0199
   92SAPS  H14X 9062   0.282   7.078   8.287  3.0660 -2.3303 -2.0148
   92SAPS  H14Y 9063   0.163   7.146   8.171  0.1936  1.1521 -0.6808
   92SAPS  C315 9064   0.305   7.289   8.231  0.3513 -0.7804  0.6418
   92SAPS  H15X 9065   0.246   7.348   8.157  1.1942 -1.3020 -0.4848
   92SAPS  H15Y 9066   0.414   7.304   8.217  0.2512 -1.1334 -0.7477
   92SAPS  C316 9067   0.271   7.342   8.369 -0.1520 -0.4211  0.0001
   92SAPS  H16X 9068   0.282   7.452   8.362 -0.1733 -0.4794 -1.1928
   92SAPS  H16Y 9069   0.350   7.308   8.440  2.0857  1.2169 -1.5576
   92SAPS  C317 9070   0.130   7.314   8.421 -0.0493  0.1940 -0.5500
   92SAPS  H17X 9071   0.120   7.204   8.435  2.2126 -0.1536 -1.1650
   92SAPS  H17Y 9072   0.061   7.341   8.338 -1.1239 -0.4651  0.1146
   92SAPS  C318 9073   0.084   7.390   8.546 -0.1718 -0.6556 -0.3289
   92SAPS  H18X 9074   0.082   7.500   8.533 -1.0782 -0.3609  1.8887
   92SAPS  H18Y 9075   0.150   7.357   8.629  0.1396  0.4516 -0.1156
   92SAPS  H18Z 9076  -0.013   7.350   8.584  0.3863  1.4428  3.9544
   93SAPS     N 9077   6.800   0.636   6.433  0.4157 -0.8060 -0.1075
   93SAPS   HN1 9078   6.765   0.727   6.397  1.1490 -0.5714 -0.2559
   93SAPS   HN2 9079   6.713   0.579   6.434 -0.5323  0.5984 -0.2174
   93SAPS   HN3 9080   6.823   0.651   6.533 -0.9373 -1.4527  0.3245
   93SAPS   C12 9081   6.895   0.575   6.343 -0.0811  0.6977 -0.2221
   93SAPS  H12A 9082   6.911   0.472   6.370  0.3581  0.0648 -2.7075
   93SAPS   C13 9083   6.855   0.579   6.195  0.5308 -0.3181  0.5039
   93SAPS  O13A 9084   6.746   0.628   6.155  0.2532 -0.0029 -0.1378
   93SAPS  O13B 9085   6.932   0.524   6.118  0.0785 -0.1303  0.1165
   93SAPS   C11 9086   7.039   0.643   6.366  0.1706  0.0216  0.4218
   93SAPS  H11A 9087   7.048   0.669   6.473 -2.7019 -0.0651  0.7600
   93SAPS  H11B 9088   7.038   0.735   6.303 -4.7913  1.6117  2.2929
   93SAPS     P 9089   7.290   0.534   6.384 -0.0581  0.1783  0.4013
   93SAPS   O13 9090   7.330   0.399   6.338 -0.2281  0.0168  0.7599
   93SAPS   O14 9091   7.366   0.652   6.337  0.5315  0.0631 -0.2367
   93SAPS   O12 9092   7.142   0.548   6.329  0.0849 -0.1625  0.2593
   93SAPS   O11 9093   7.264   0.539   6.538  0.4625 -0.1927  0.2296
   93SAPS    C1 9094   7.173   0.439   6.591 -0.4652  0.1925  0.3618
   93SAPS    HA 9095   7.078   0.435   6.534  1.2292  0.2309 -2.6760
   93SAPS    HB 9096   7.220   0.338   6.584 -0.7622 -0.0428  1.5051
   93SAPS    C2 9097   7.148   0.460   6.741  0.2931  0.3537  0.0186
   93SAPS    HS 9098   7.086   0.551   6.740 -1.9370 -1.0917 -0.1092
   93SAPS   O21 9099   7.273   0.472   6.815  0.7305 -0.0963 -0.2086
   93SAPS   C21 9100   7.252   0.551   6.929  0.1013  0.4173  0.3208
   93SAPS   O22 9101   7.158   0.620   6.951  0.3682  0.6996  0.0313
   93SAPS   C22 9102   7.375   0.557   7.010  0.2855  0.2355 -0.3053
   93SAPS   H2R 9103   7.464   0.513   6.960  0.7507  0.1343  0.5958
   93SAPS   H2S 9104   7.395   0.664   7.035  1.2287 -0.6068  3.0258
   93SAPS    C3 9105   7.079   0.334   6.799 -0.2813 -0.7793 -0.0052
   93SAPS    HX 9106   7.154   0.252   6.801 -0.7674 -1.2137  0.8412
   93SAPS    HY 9107   6.995   0.288   6.742  0.4694 -2.8959  0.5115
   93SAPS   O31 9108   7.034   0.353   6.935  0.1457  0.0440 -0.7724
   93SAPS   C31 9109   6.931   0.434   6.959  0.1567  0.1456 -0.7743
   93SAPS   O32 9110   6.860   0.480   6.869  0.8624 -0.1613 -0.4825
   93SAPS   C32 9111   6.907   0.438   7.107 -0.2199  0.5367  0.9406
   93SAPS   H2X 9112   7.000   0.467   7.160  0.0543 -1.5360  1.6846
   93SAPS   H2Y 9113   6.869   0.339   7.138 -0.1768  0.1331 -0.2248
   93SAPS   C23 9114   7.363   0.475   7.140  0.1521  0.4262 -0.3563
   93SAPS   H3R 9115   7.344   0.371   7.104  1.8942 -0.2845  0.6438
   93SAPS   H3S 9116   7.272   0.507   7.194 -0.5786 -0.3080 -1.1150
   93SAPS   C24 9117   7.492   0.497   7.228  0.1377  0.2150  0.0912
   93SAPS   H4R 9118   7.476   0.479   7.336 -0.2765  0.4236  0.0634
   93SAPS   H4S 9119   7.529   0.599   7.204  1.0511 -0.3191 -0.8803
   93SAPS   C25 9120   7.609   0.410   7.179  0.2032  0.2230 -0.5306
   93SAPS   H5R 9121   7.676   0.447   7.100  1.0011  0.5163  0.2606
   93SAPS   C26 9122   7.649   0.297   7.231  0.5682  0.0239  0.4383
   93SAPS   H6R 9123   7.729   0.240   7.180 -0.7497 -0.6954 -0.8829
   93SAPS   C27 9124   7.592   0.231   7.355  0.5494  0.4177 -0.1388
   93SAPS   H7R 9125   7.482   0.234   7.344  0.5510  0.4698 -0.1439
   93SAPS   H7S 9126   7.606   0.302   7.439 -1.0302  1.2981 -0.5776
   93SAPS   C28 9127   7.635   0.091   7.392  0.0081 -0.5613  0.8642
   93SAPS   H8R 9128   7.679   0.032   7.310 -1.1578  2.2595 -1.9627
   93SAPS   C29 9129   7.643   0.040   7.520  0.0926 -0.1405  0.0687
   93SAPS   H9R 9130   7.652  -0.070   7.529  2.3020  0.1521  2.6820
   93SAPS  C210 9131   7.610   0.103   7.653 -0.0998 -0.5646  0.1044
   93SAPS  H10R 9132   7.541   0.038   7.711  1.8599  1.3947  5.2131
   93SAPS  H10S 9133   7.565   0.204   7.644  2.2921  0.4356 -1.7608
   93SAPS  C211 9134   7.739   0.119   7.733  0.3680 -0.0617  0.1597
   93SAPS  H11R 9135   7.837   0.108   7.685  0.5961  0.4248  0.5084
   93SAPS  C212 9136   7.740   0.135   7.867 -0.3198 -0.2477  0.0738
   93SAPS  H12R 9137   7.837   0.126   7.917 -0.4317 -0.1886  0.3028
   93SAPS  C213 9138   7.634   0.156   7.980 -0.0872  0.3064  0.3610
   93SAPS  H13R 9139   7.582   0.058   7.980 -0.1723  0.3497 -0.0447
   93SAPS  H13S 9140   7.563   0.230   7.937  0.1728  0.7608  0.7074
   93SAPS  C214 9141   7.687   0.188   8.117 -0.0739  0.0378  0.1395
   93SAPS  H14R 9142   7.756   0.111   8.154 -0.6689  0.7540  3.0300
   93SAPS  C215 9143   7.659   0.299   8.193 -0.4015  0.0992  0.1335
   93SAPS  H15R 9144   7.708   0.302   8.291 -1.4682  0.6120  0.6582
   93SAPS  C216 9145   7.554   0.403   8.159  0.5032 -0.1520 -0.1899
   93SAPS  H16R 9146   7.500   0.437   8.250 -1.0470 -0.8983 -0.8047
   93SAPS  H16S 9147   7.476   0.370   8.087 -1.7411  1.2658  1.4390
   93SAPS  C217 9148   7.613   0.524   8.089  0.2960 -0.1027 -0.8515
   93SAPS  H17R 9149   7.528   0.595   8.082 -0.6661 -1.0340  0.8118
   93SAPS  H17S 9150   7.668   0.489   7.999  0.6949 -1.1863 -0.1966
   93SAPS  C218 9151   7.729   0.600   8.169  0.0888  0.3616  0.5267
   93SAPS  H18R 9152   7.747   0.697   8.117  1.8626  0.1338  0.6682
   93SAPS  H18S 9153   7.829   0.553   8.165  0.8247  1.5480  2.9087
   93SAPS  C219 9154   7.709   0.642   8.318 -0.0418 -0.7399 -0.2211
   93SAPS  H19R 9155   7.792   0.710   8.345 -3.0500  3.3421 -0.2084
   93SAPS  H19S 9156   7.713   0.554   8.386  1.8084 -0.5117  0.0093
   93SAPS  C220 9157   7.579   0.721   8.350  0.2686 -0.4039 -0.1321
   93SAPS  H20R 9158   7.583   0.765   8.452  0.9682  1.4834 -0.9135
   93SAPS  H20S 9159   7.494   0.650   8.348 -1.0657  1.0985  0.8230
   93SAPS  H20T 9160   7.556   0.803   8.278  0.4156  1.7579  2.1456
   93SAPS   C33 9161   6.793   0.539   7.147  0.1304  0.6207 -0.0697
   93SAPS   H3X 9162   6.707   0.543   7.077  1.1106  0.9386 -1.3009
   93SAPS   H3Y 9163   6.836   0.641   7.155  1.2294  0.2107 -0.4356
   93SAPS   C34 9164   6.739   0.510   7.285  0.2058 -0.1252  0.7357
   93SAPS   H4X 9165   6.705   0.404   7.284  0.3252 -0.2605 -2.7789
   93SAPS   H4Y 9166   6.649   0.571   7.309 -0.1159 -0.8339  1.4012
   93SAPS   C35 9167   6.848   0.514   7.385 -0.7305  0.4968  0.6509
   93SAPS   H5X 9168   6.889   0.614   7.360 -0.6040  0.1975 -0.4257
   93SAPS   H5Y 9169   6.931   0.441   7.373 -0.3979  0.9129  0.3615
   93SAPS   C36 9170   6.796   0.502   7.530  0.0368 -0.5839  0.1460
   93SAPS   H6X 9171   6.732   0.412   7.543 -2.6095  0.7782 -2.1762
   93SAPS   H6Y 9172   6.719   0.582   7.537 -0.9033 -1.1490 -2.4734
   93SAPS   C37 9173   6.900   0.516   7.638  0.4844 -0.5163 -0.2662
   93SAPS   H7X 9174   6.935   0.618   7.663  0.5422 -0.3648 -0.9611
   93SAPS   H7Y 9175   6.988   0.456   7.607 -0.1432 -0.9164 -1.3021
   93SAPS   C38 9176   6.854   0.462   7.784 -0.2813 -0.1653  0.2206
   93SAPS   H8X 9177   6.952   0.440   7.832  2.0081 -1.5994 -4.4838
   93SAPS   H8Y 9178   6.795   0.368   7.782 -3.0019  1.4411  0.7070
   93SAPS   C39 9179   6.788   0.562   7.872 -0.3320  0.6991 -0.1440
   93SAPS   H9X 9180   6.698   0.594   7.816 -0.6514 -1.1779 -0.7716
   93SAPS   H9Y 9181   6.844   0.655   7.896 -0.2945  0.4644  0.6954
   93SAPS  C310 9182   6.752   0.490   8.005 -0.0841 -0.2848  1.0017
   93SAPS  H10X 9183   6.844   0.504   8.064 -1.7875  3.2738  3.1194
   93SAPS  H10Y 9184   6.741   0.383   7.976  1.0713 -0.0023 -0.6211
   93SAPS  C311 9185   6.629   0.537   8.082  0.3335 -0.4595 -0.9251
   93SAPS  H11X 9186   6.610   0.465   8.164 -1.0085 -0.2255 -0.9918
   93SAPS  H11Y 9187   6.536   0.531   8.021  0.1621  0.2672 -0.7447
   93SAPS  C312 9188   6.652   0.676   8.150  0.3727 -0.0053  0.2614
   93SAPS  H12X 9189   6.631   0.759   8.079  0.3835 -1.2710 -1.2652
   93SAPS  H12Y 9190   6.761   0.689   8.169  0.1186  0.4475  1.4894
   93SAPS  C313 9191   6.577   0.701   8.274  1.3244 -0.4225  0.2995
   93SAPS  H13X 9192   6.608   0.629   8.353 -1.8727  0.0555  2.1322
   93SAPS  H13Y 9193   6.472   0.676   8.248  0.8995  0.4126  1.1549
   93SAPS  C314 9194   6.591   0.845   8.336  0.2637  0.0669 -0.2858
   93SAPS  H14X 9195   6.571   0.917   8.254 -1.2305  0.3824  0.3174
   93SAPS  H14Y 9196   6.698   0.866   8.359  0.2139  0.4436 -0.3793
   93SAPS  C315 9197   6.506   0.874   8.454  0.3105  0.2058 -0.3497
   93SAPS  H15X 9198   6.398   0.868   8.427 -0.1217 -2.3583  1.5938
   93SAPS  H15Y 9199   6.521   0.980   8.484  0.9055  0.5006 -1.6250
   93SAPS  C316 9200   6.535   0.783   8.576  0.5027  0.2114  0.1061
   93SAPS  H16X 9201   6.642   0.777   8.603  0.6530  0.6177 -0.3922
   93SAPS  H16Y 9202   6.513   0.676   8.552  2.5828 -0.1090 -0.5921
   93SAPS  C317 9203   6.475   0.839   8.705 -0.2960 -0.0252 -0.0815
   93SAPS  H17X 9204   6.365   0.822   8.702 -0.5151  1.3797 -1.1494
   93SAPS  H17Y 9205   6.493   0.947   8.723  2.5204 -0.5747  0.9751
   93SAPS  C318 9206   6.526   0.769   8.833 -0.0470 -0.0535 -0.2566
   93SAPS  H18X 9207   6.635   0.780   8.853 -0.3391  1.2977  0.7408
   93SAPS  H18Y 9208   6.505   0.661   8.819  0.9114 -0.2130 -0.5049
   93SAPS  H18Z 9209   6.469   0.803   8.922 -0.3968 -1.3941  0.0444
   94SAPS     N 9210   6.431   3.249   5.781 -0.1878  0.3324  0.6769
   94SAPS   HN1 9211   6.379   3.207   5.701  0.6757 -0.2676  0.4212
   94SAPS   HN2 9212   6.524   3.282   5.750 -0.4225 -0.0631 -0.5277
   94SAPS   HN3 9213   6.440   3.182   5.860  0.0393 -1.0528 -0.4754
   94SAPS   C12 9214   6.349   3.361   5.836  0.7015 -0.0249  0.6230
   94SAPS  H12A 9215   6.331   3.426   5.752 -1.1909  1.3619  2.0256
   94SAPS   C13 9216   6.211   3.316   5.879  1.0889 -0.4296 -0.1277
   94SAPS  O13A 9217   6.163   3.204   5.829  0.0852  0.5000  0.0534
   94SAPS  O13B 9218   6.128   3.393   5.931 -0.3683  0.0501  0.6904
   94SAPS   C11 9219   6.431   3.427   5.948 -0.4304 -0.3246 -0.2999
   94SAPS  H11A 9220   6.458   3.349   6.023 -1.1555 -0.4576 -0.1701
   94SAPS  H11B 9221   6.369   3.500   6.004  0.5192  0.4865 -0.2896
   94SAPS     P 9222   6.608   3.613   5.966  0.2910  0.5468  0.0233
   94SAPS   O13 9223   6.733   3.655   5.898  0.3194  0.4384  0.6460
   94SAPS   O14 9224   6.505   3.717   5.973  0.0341 -0.4948 -0.5274
   94SAPS   O12 9225   6.556   3.476   5.898  0.4258  0.0652 -0.4743
   94SAPS   O11 9226   6.658   3.572   6.112  0.0379  0.0573 -0.3576
   94SAPS    C1 9227   6.741   3.452   6.144 -0.1860 -0.3888  0.2352
   94SAPS    HA 9228   6.764   3.388   6.056  1.1021  0.7455 -0.2829
   94SAPS    HB 9229   6.837   3.484   6.189 -1.4276  1.2303  1.9134
   94SAPS    C2 9230   6.661   3.363   6.243  0.7313  0.0020  0.9271
   94SAPS    HS 9231   6.552   3.364   6.219 -0.0843 -0.5877  4.1290
   94SAPS   O21 9232   6.670   3.410   6.373  0.2109 -0.9725 -0.3892
   94SAPS   C21 9233   6.567   3.500   6.407 -0.7080 -0.4063 -0.2166
   94SAPS   O22 9234   6.474   3.533   6.333  0.0676  0.0545 -0.0319
   94SAPS   C22 9235   6.598   3.574   6.544 -0.3800  0.0221  0.3333
   94SAPS   H2R 9236   6.564   3.514   6.631 -0.8310  0.4630  0.4715
   94SAPS   H2S 9237   6.707   3.590   6.554 -0.3702  1.8738 -1.8719
   94SAPS    C3 9238   6.711   3.215   6.247  0.1118  0.1768  0.2968
   94SAPS    HX 9239   6.822   3.214   6.254  0.3937 -0.6814 -2.9361
   94SAPS    HY 9240   6.683   3.171   6.149 -2.6688 -0.1621  1.1519
   94SAPS   O31 9241   6.658   3.145   6.356 -0.3430 -0.2134  0.7832
   94SAPS   C31 9242   6.527   3.123   6.359  0.0536 -0.2492  0.2309
   94SAPS   O32 9243   6.460   3.143   6.261  0.5346 -0.7722 -0.0427
   94SAPS   C32 9244   6.470   3.075   6.497  0.1440 -0.2073 -0.6662
   94SAPS   H2X 9245   6.485   2.965   6.498 -0.7001 -0.3281 -0.7735
   94SAPS   H2Y 9246   6.363   3.093   6.519  0.8287  1.4791  1.6884
   94SAPS   C23 9247   6.527   3.713   6.538 -0.7969  0.6532 -0.0854
   94SAPS   H3R 9248   6.420   3.711   6.507 -0.5601 -0.8067 -0.8876
   94SAPS   H3S 9249   6.574   3.779   6.463 -0.4352  1.8893  1.1843
   94SAPS   C24 9250   6.536   3.780   6.682  0.4397 -0.3087  0.6065
   94SAPS   H4R 9251   6.466   3.722   6.745  0.0357  0.9088  1.3046
   94SAPS   H4S 9252   6.500   3.885   6.681  0.8747 -0.1576  0.1640
   94SAPS   C25 9253   6.680   3.784   6.733  0.1270  0.0317 -0.1692
   94SAPS   H5R 9254   6.751   3.805   6.651  0.0066  1.8042  0.1251
   94SAPS   C26 9255   6.716   3.752   6.861 -0.4775 -0.4181  0.6230
   94SAPS   H6R 9256   6.825   3.747   6.878 -0.6216 -2.5636  1.1707
   94SAPS   C27 9257   6.623   3.739   6.977  0.4216  0.0247 -0.0204
   94SAPS   H7R 9258   6.533   3.803   6.961 -0.7149 -1.5049  0.0318
   94SAPS   H7S 9259   6.674   3.768   7.071  0.2568 -1.5115  0.5639
   94SAPS   C28 9260   6.562   3.601   6.979  0.3433  1.0232  0.0405
   94SAPS   H8R 9261   6.528   3.567   6.881  3.2105  0.2547 -0.7942
   94SAPS   C29 9262   6.564   3.520   7.090  0.5334  0.3198 -0.3099
   94SAPS   H9R 9263   6.523   3.418   7.083 -2.9910  1.5325  0.5970
   94SAPS  C210 9264   6.609   3.556   7.226  0.0811  0.8388  0.1316
   94SAPS  H10R 9265   6.701   3.618   7.220  0.3951  0.2707 -2.0290
   94SAPS  H10S 9266   6.655   3.467   7.274 -1.1641  0.8260  1.3563
   94SAPS  C211 9267   6.503   3.613   7.323 -0.7121  0.1284  0.5745
   94SAPS  H11R 9268   6.396   3.603   7.298  0.1534 -6.2900 -2.4475
   94SAPS  C212 9269   6.536   3.670   7.443 -0.5599  0.3923  0.5773
   94SAPS  H12R 9270   6.450   3.705   7.501 -2.3108  1.8417 -2.6264
   94SAPS  C213 9271   6.684   3.678   7.495  0.5824 -0.4389 -0.8066
   94SAPS  H13R 9272   6.745   3.755   7.443 -1.4247 -0.1386 -2.9074
   94SAPS  H13S 9273   6.739   3.586   7.466  2.6417  0.9272 -1.4937
   94SAPS  C214 9274   6.696   3.676   7.641 -0.2256  0.8115 -0.2462
   94SAPS  H14R 9275   6.672   3.581   7.691 -1.8685  1.8972  1.1351
   94SAPS  C215 9276   6.738   3.777   7.725  0.2076 -0.3704  0.4764
   94SAPS  H15R 9277   6.753   3.753   7.831 -1.0008  1.4375  1.1061
   94SAPS  C216 9278   6.771   3.916   7.689  0.4311 -0.0326 -0.5803
   94SAPS  H16R 9279   6.781   3.913   7.579 -1.9887 -2.2720 -0.8201
   94SAPS  H16S 9280   6.870   3.952   7.724  0.2289  2.1412 -2.0323
   94SAPS  C217 9281   6.656   4.028   7.719  0.3468  0.3001 -0.2437
   94SAPS  H17R 9282   6.562   4.005   7.665 -0.7970  0.7726  1.4619
   94SAPS  H17S 9283   6.696   4.120   7.671  1.1113  0.1500  0.0882
   94SAPS  C218 9284   6.629   4.057   7.872 -0.4263 -0.3549 -0.3201
   94SAPS  H18R 9285   6.725   4.069   7.928  0.5050 -2.7430 -1.2490
   94SAPS  H18S 9286   6.581   3.974   7.927  0.2606 -0.9176 -0.5452
   94SAPS  C219 9287   6.549   4.188   7.900 -0.0463  0.4766  0.0037
   94SAPS  H19R 9288   6.461   4.185   7.832  0.3644  0.6802 -0.5519
   94SAPS  H19S 9289   6.618   4.267   7.862 -0.3917 -0.1022 -1.9436
   94SAPS  C220 9290   6.498   4.214   8.045 -0.6667  0.0163  0.1178
   94SAPS  H20R 9291   6.577   4.228   8.122  0.7544  0.8380 -1.4266
   94SAPS  H20S 9292   6.464   4.118   8.089 -2.6497  2.0333  3.4750
   94SAPS  H20T 9293   6.415   4.287   8.060 -0.1382  0.4810  0.8584
   94SAPS   C33 9294   6.537   3.136   6.624 -0.0418  0.3149 -0.0236
   94SAPS   H3X 9295   6.507   3.241   6.645 -0.2337  0.3712 -0.5470
   94SAPS   H3Y 9296   6.646   3.141   6.606 -0.2268  3.1428 -0.8049
   94SAPS   C34 9297   6.508   3.062   6.754  0.1586 -0.6638 -0.2778
   94SAPS   H4X 9298   6.482   2.955   6.736 -1.9508  0.0873 -2.1339
   94SAPS   H4Y 9299   6.416   3.107   6.796  0.8534  0.8075 -0.2832
   94SAPS   C35 9300   6.603   3.089   6.869 -0.9994  0.8904  0.1691
   94SAPS   H5X 9301   6.617   3.198   6.886 -0.1423  1.0035 -1.0911
   94SAPS   H5Y 9302   6.705   3.055   6.843 -1.5405 -1.3956  0.8159
   94SAPS   C36 9303   6.571   3.000   6.986 -0.4621 -0.1708  0.1246
   94SAPS   H6X 9304   6.576   2.892   6.959  1.3064  0.5602 -2.9313
   94SAPS   H6Y 9305   6.472   3.038   7.019  1.1084  2.1638  2.6380
   94SAPS   C37 9306   6.675   3.016   7.097  0.5885  0.6391 -0.0391
   94SAPS   H7X 9307   6.776   3.031   7.054  2.2568 -1.2754  2.8974
   94SAPS   H7Y 9308   6.685   2.918   7.148  0.1984 -0.2099 -1.5063
   94SAPS   C38 9309   6.643   3.125   7.199 -0.4696  0.1973 -0.0554
   94SAPS   H8X 9310   6.535   3.147   7.185 -0.9654 -0.2215  2.5278
   94SAPS   H8Y 9311   6.694   3.218   7.166  1.6553 -0.9431 -0.1829
   94SAPS   C39 9312   6.674   3.074   7.346  0.6631  0.3917  0.5581
   94SAPS   H9X 9313   6.782   3.054   7.355  0.7823  1.2525  1.1202
   94SAPS   H9Y 9314   6.624   2.975   7.352 -0.4319  0.6658 -2.0998
   94SAPS  C310 9315   6.635   3.169   7.460 -0.1717  0.1079 -0.8227
   94SAPS  H10X 9316   6.524   3.169   7.461 -0.2150  2.2351 -1.6196
   94SAPS  H10Y 9317   6.668   3.265   7.416 -0.1207 -0.0336 -1.1006
   94SAPS  C311 9318   6.711   3.148   7.596  0.5189 -0.3551 -0.2360
   94SAPS  H11X 9319   6.818   3.132   7.570  0.7854  0.4096  0.3617
   94SAPS  H11Y 9320   6.675   3.059   7.652 -1.2742  1.2209  1.2524
   94SAPS  C312 9321   6.696   3.277   7.684  0.4909  0.2504  0.0595
   94SAPS  H12X 9322   6.590   3.307   7.668  0.6117 -0.0270 -1.3995
   94SAPS  H12Y 9323   6.758   3.361   7.644 -1.4533  1.5501 -0.4004
   94SAPS  C313 9324   6.724   3.254   7.829 -0.5173 -0.2440 -0.2340
   94SAPS  H13X 9325   6.735   3.354   7.875 -0.9043 -0.9408  1.4410
   94SAPS  H13Y 9326   6.816   3.194   7.846 -0.7710 -0.0903  1.9083
   94SAPS  C314 9327   6.606   3.186   7.898 -0.4629  0.4609  0.6178
   94SAPS  H14X 9328   6.581   3.100   7.833 -1.1593  0.8098  0.4253
   94SAPS  H14Y 9329   6.524   3.259   7.907 -0.1198  0.6992  2.1902
   94SAPS  C315 9330   6.638   3.137   8.040  0.5161 -0.3407  0.4697
   94SAPS  H15X 9331   6.657   3.219   8.113  3.4309  0.6754 -1.2742
   94SAPS  H15Y 9332   6.734   3.082   8.033  1.1076  0.8655 -3.8549
   94SAPS  C316 9333   6.526   3.052   8.108 -0.5956  0.3943 -0.2216
   94SAPS  H16X 9334   6.562   3.040   8.212 -0.6891 -0.0968 -0.2448
   94SAPS  H16Y 9335   6.525   2.952   8.059  1.7604  0.7315 -1.0650
   94SAPS  C317 9336   6.384   3.114   8.120  0.2912  0.6429 -0.2189
   94SAPS  H17X 9337   6.343   3.117   8.017  1.8016  0.4922 -0.8520
   94SAPS  H17Y 9338   6.380   3.218   8.160  1.9047  1.2234 -1.4572
   94SAPS  C318 9339   6.303   3.025   8.217  0.0544 -0.2980 -0.2562
   94SAPS  H18X 9340   6.331   2.918   8.205  0.9731 -0.2020  0.9303
   94SAPS  H18Y 9341   6.196   3.036   8.187  0.6152 -1.0543 -2.7742
   94SAPS  H18Z 9342   6.319   3.051   8.324  1.5897 -0.7721 -0.3444
   95SAPS     N 9343   3.391   1.311   6.343  0.1933 -0.7005  0.4980
   95SAPS   HN1 9344   3.430   1.381   6.278 -1.6304  0.3217  0.4319
   95SAPS   HN2 9345   3.296   1.340   6.374  0.8691 -0.3713  2.3830
   95SAPS   HN3 9346   3.446   1.314   6.430 -0.2816  0.5109  0.7662
   95SAPS   C12 9347   3.396   1.183   6.265  0.1957 -0.9815  0.6202
   95SAPS  H12A 9348   3.409   1.106   6.339  3.1041 -1.6996 -0.5136
   95SAPS   C13 9349   3.263   1.155   6.184  0.2028 -0.4877 -0.1376
   95SAPS  O13A 9350   3.152   1.205   6.221 -0.5232 -0.0275 -0.2707
   95SAPS  O13B 9351   3.262   1.047   6.117 -0.2580 -0.0327  0.2063
   95SAPS   C11 9352   3.516   1.183   6.161 -0.2566 -0.5754  0.1171
   95SAPS  H11A 9353   3.493   1.258   6.082  0.7878  0.1543  0.4875
   95SAPS  H11B 9354   3.517   1.085   6.110  1.6706 -0.1731 -0.7212
   95SAPS     P 9355   3.732   1.114   6.275 -0.0982  0.2025 -0.3085
   95SAPS   O13 9356   3.716   0.984   6.205  0.0910  0.3780  0.2330
   95SAPS   O14 9357   3.868   1.174   6.274 -0.6016 -0.3827 -0.0809
   95SAPS   O12 9358   3.640   1.223   6.214  0.6122  0.2413 -0.1659
   95SAPS   O11 9359   3.690   1.103   6.432 -0.4408 -0.6616  0.5437
   95SAPS    C1 9360   3.699   0.977   6.483  0.6185 -0.3176 -0.0776
   95SAPS    HA 9361   3.638   0.908   6.420  1.1378 -0.8716  0.0094
   95SAPS    HB 9362   3.806   0.948   6.491  0.2108 -2.0988 -0.4753
   95SAPS    C2 9363   3.636   0.969   6.626  0.0639  0.4141 -0.2332
   95SAPS    HS 9364   3.549   1.038   6.632 -0.6232 -0.4909  0.6359
   95SAPS   O21 9365   3.746   1.006   6.708  0.6084  0.3353  0.2343
   95SAPS   C21 9366   3.723   1.099   6.795  0.0627 -0.0793  0.0469
   95SAPS   O22 9367   3.621   1.168   6.808  0.5292  0.4153  1.2978
   95SAPS   C22 9368   3.844   1.112   6.878 -0.0555  1.0531  0.0641
   95SAPS   H2R 9369   3.873   1.008   6.904 -0.2730  0.8393 -0.5128
   95SAPS   H2S 9370   3.926   1.145   6.810  0.2224 -2.4676 -1.5371
   95SAPS    C3 9371   3.579   0.840   6.680 -0.2097  0.2376 -0.5076
   95SAPS    HX 9372   3.659   0.762   6.679 -0.1314  0.1314  2.6788
   95SAPS    HY 9373   3.500   0.799   6.614 -0.1088 -0.8729  0.0319
   95SAPS   O31 9374   3.515   0.853   6.815 -0.2254 -0.1828 -0.2146
   95SAPS   C31 9375   3.390   0.895   6.818 -0.4946 -0.0496  0.0528
   95SAPS   O32 9376   3.332   0.940   6.720  0.4161  0.2843  0.4336
   95SAPS   C32 9377   3.349   0.862   6.959  0.6224 -0.1840  0.4027
   95SAPS   H2X 9378   3.427   0.907   7.024  1.8145 -1.0780 -0.3692
   95SAPS   H2Y 9379   3.355   0.754   6.983  1.5014 -0.0654  0.7671
   95SAPS   C23 9380   3.825   1.207   6.989  0.1105 -0.3451  0.1176
   95SAPS   H3R 9381   3.754   1.181   7.070  0.1588  0.7295  0.5203
   95SAPS   H3S 9382   3.781   1.303   6.953 -1.9095 -0.5976  1.7050
   95SAPS   C24 9383   3.962   1.246   7.046  0.9328  0.5166  0.5464
   95SAPS   H4R 9384   3.948   1.350   7.083  0.6589  0.2410  1.2397
   95SAPS   H4S 9385   4.038   1.260   6.967  1.4436  2.5627  1.3374
   95SAPS   C25 9386   4.011   1.145   7.151 -0.1385 -0.2830 -0.4263
   95SAPS   H5R 9387   4.063   1.056   7.111  3.9070  0.6200  2.1962
   95SAPS   C26 9388   3.998   1.159   7.282  0.3472  0.0266  0.0161
   95SAPS   H6R 9389   4.046   1.089   7.352  2.4515  0.0686 -1.2796
   95SAPS   C27 9390   3.925   1.280   7.341 -0.4323 -0.3120 -1.0060
   95SAPS   H7R 9391   3.816   1.263   7.331 -0.6518  1.1486 -1.2826
   95SAPS   H7S 9392   3.954   1.374   7.289 -0.6121 -0.1457 -0.8057
   95SAPS   C28 9393   3.961   1.306   7.488 -0.6872 -0.3292  0.6058
   95SAPS   H8R 9394   4.027   1.393   7.499 -0.0308 -0.8036  0.4986
   95SAPS   C29 9395   3.928   1.231   7.602 -0.9388  0.1061  0.0792
   95SAPS   H9R 9396   3.947   1.290   7.693 -1.7716  0.6451 -0.0771
   95SAPS  C210 9397   3.835   1.113   7.599 -0.5031 -0.1711 -0.2495
   95SAPS  H10R 9398   3.808   1.092   7.493  0.1311 -0.1497 -0.4248
   95SAPS  H10S 9399   3.747   1.144   7.658 -1.3408 -1.0729 -0.9767
   95SAPS  C211 9400   3.886   0.996   7.681  0.5899 -0.1307 -0.6726
   95SAPS  H11R 9401   3.985   1.010   7.726 -0.3884  0.3914  1.4638
   95SAPS  C212 9402   3.807   0.893   7.710 -0.4228 -0.0986  0.5184
   95SAPS  H12R 9403   3.850   0.813   7.771 -0.0595 -1.2362 -1.1614
   95SAPS  C213 9404   3.662   0.881   7.667  0.1642  0.5914  0.1455
   95SAPS  H13R 9405   3.631   0.966   7.603  1.5258  1.1475  0.1720
   95SAPS  H13S 9406   3.595   0.894   7.755 -0.2297 -1.6715  0.2407
   95SAPS  C214 9407   3.625   0.748   7.610  0.1821  0.5988  0.4402
   95SAPS  H14R 9408   3.672   0.669   7.670  1.0458  0.4230 -0.4508
   95SAPS  C215 9409   3.541   0.719   7.514  0.6689 -0.4484  0.4702
   95SAPS  H15R 9410   3.499   0.618   7.498 -0.9163  0.0809  1.0285
   95SAPS  C216 9411   3.475   0.825   7.427  0.5302  0.5158 -0.8707
   95SAPS  H16R 9412   3.475   0.930   7.464  0.9030 -0.2479  1.4647
   95SAPS  H16S 9413   3.366   0.802   7.430  0.4592  0.6827 -1.7787
   95SAPS  C217 9414   3.519   0.809   7.275  0.7269 -0.0553 -0.4862
   95SAPS  H17R 9415   3.444   0.862   7.212  3.5996  2.4051 -2.0641
   95SAPS  H17S 9416   3.503   0.704   7.240 -1.2548 -0.2073  0.6883
   95SAPS  C218 9417   3.655   0.864   7.245  0.2297 -0.3885 -0.0084
   95SAPS  H18R 9418   3.730   0.816   7.312 -0.8636  0.5589  1.9849
   95SAPS  H18S 9419   3.662   0.973   7.266  2.8674 -0.3015 -0.9667
   95SAPS  C219 9420   3.705   0.847   7.101  0.3335 -0.0995  0.0109
   95SAPS  H19R 9421   3.803   0.900   7.096  0.6576 -0.8353 -2.0171
   95SAPS  H19S 9422   3.641   0.898   7.026  0.8003 -1.2950 -1.2384
   95SAPS  C220 9423   3.720   0.698   7.062  0.0346  0.1723  0.2278
   95SAPS  H20R 9424   3.770   0.691   6.963 -0.4740 -0.8823  0.0357
   95SAPS  H20S 9425   3.622   0.647   7.051 -0.9779  2.1261 -0.4066
   95SAPS  H20T 9426   3.783   0.643   7.135  0.2459  0.8837  0.5891
   95SAPS   C33 9427   3.208   0.916   6.985  0.4193 -0.1701 -0.1664
   95SAPS   H3X 9428   3.125   0.868   6.929  0.1062  1.0413 -0.7671
   95SAPS   H3Y 9429   3.195   1.021   6.951  2.7959  0.5562  0.9857
   95SAPS   C34 9430   3.179   0.914   7.131 -0.4006 -0.3037 -0.1204
   95SAPS   H4X 9431   3.245   0.987   7.182  0.2068 -0.3039 -0.8952
   95SAPS   H4Y 9432   3.203   0.814   7.176 -0.0863  0.4929  1.5859
   95SAPS   C35 9433   3.027   0.940   7.161 -0.0082  0.2417 -0.6217
   95SAPS   H5X 9434   2.975   0.848   7.126  1.7337 -0.6013 -1.1342
   95SAPS   H5Y 9435   2.989   1.030   7.109 -0.4141 -0.6203 -1.8648
   95SAPS   C36 9436   3.000   0.949   7.306  0.4708  0.0213 -0.4847
   95SAPS   H6X 9437   2.892   0.960   7.326  0.4553 -1.1482  0.1634
   95SAPS   H6Y 9438   3.052   1.039   7.346 -0.8081 -0.1665  1.7364
   95SAPS   C37 9439   3.042   0.830   7.398 -1.0557  0.2101 -0.6547
   95SAPS   H7X 9440   3.142   0.793   7.369 -0.8907 -0.9921  1.2563
   95SAPS   H7Y 9441   2.968   0.747   7.389  1.0750 -1.8232 -0.2573
   95SAPS   C38 9442   3.057   0.851   7.550 -0.4289 -0.7130  0.0666
   95SAPS   H8X 9443   3.057   0.747   7.589  2.6448 -1.6788 -2.0936
   95SAPS   H8Y 9444   2.969   0.900   7.596  1.4145  0.9639  2.0675
   95SAPS   C39 9445   3.168   0.944   7.602 -0.6879 -0.1132  0.4071
   95SAPS   H9X 9446   3.152   1.051   7.575  0.7578  0.3036  1.1386
   95SAPS   H9Y 9447   3.266   0.932   7.551 -0.8551  2.2281 -0.5971
   95SAPS  C310 9448   3.189   0.932   7.756  0.6807 -0.0587  0.6346
   95SAPS  H10X 9449   3.293   0.966   7.779  0.5878  0.1456  0.7493
   95SAPS  H10Y 9450   3.188   0.825   7.785 -0.6503  0.3011  2.0674
   95SAPS  C311 9451   3.081   1.008   7.829 -0.4289 -0.1688  0.8035
   95SAPS  H11X 9452   2.982   0.962   7.811  0.3709 -1.6881  0.1502
   95SAPS  H11Y 9453   3.057   1.114   7.805  1.0212  0.0091  0.0316
   95SAPS  C312 9454   3.114   1.009   7.983  1.0606 -0.1144 -0.3989
   95SAPS  H12X 9455   3.046   1.069   8.047  1.3392 -1.9821  1.7702
   95SAPS  H12Y 9456   3.215   1.052   7.998  0.7258  0.1862  1.2043
   95SAPS  C313 9457   3.107   0.872   8.042  0.7934 -0.6577 -0.1293
   95SAPS  H13X 9458   3.179   0.805   7.990  0.3398  1.4926 -3.9267
   95SAPS  H13Y 9459   3.009   0.828   8.013  0.5002 -0.2685  0.2677
   95SAPS  C314 9460   3.120   0.870   8.190  0.6405  0.4247  0.0394
   95SAPS  H14X 9461   3.052   0.952   8.223  1.3462  1.9417 -2.0267
   95SAPS  H14Y 9462   3.227   0.888   8.218  0.4137  0.9769  0.5843
   95SAPS  C315 9463   3.087   0.732   8.242 -0.0386 -0.0428  0.2702
   95SAPS  H15X 9464   3.153   0.663   8.186 -0.8994 -0.1381 -0.6690
   95SAPS  H15Y 9465   2.985   0.699   8.212 -0.5981  1.0092  0.9742
   95SAPS  C316 9466   3.098   0.705   8.387 -0.6935 -0.6958 -0.2756
   95SAPS  H16X 9467   3.116   0.809   8.421  0.8252 -0.8821 -0.4292
   95SAPS  H16Y 9468   3.200   0.664   8.402  0.5189  2.2735  0.1556
   95SAPS  C317 9469   2.975   0.639   8.464 -0.4309 -0.4085  0.3308
   95SAPS  H17X 9470   2.957   0.532   8.443  0.1993 -1.0417  2.7161
   95SAPS  H17Y 9471   2.881   0.696   8.446 -0.2570 -0.0131  0.6396
   95SAPS  C318 9472   2.998   0.644   8.621 -0.5124 -0.5997 -0.0091
   95SAPS  H18X 9473   3.091   0.584   8.634 -0.0608 -0.1792 -1.1518
   95SAPS  H18Y 9474   2.913   0.611   8.684 -0.5675  1.4451  1.0860
   95SAPS  H18Z 9475   3.008   0.754   8.634  1.3071 -0.5187 -1.6710
   96SAPS     N 9476   4.416   0.955   6.211  0.1398 -0.7072  0.3450
   96SAPS   HN1 9477   4.450   0.894   6.288 -0.8039  0.2270  1.5403
   96SAPS   HN2 9478   4.345   1.021   6.248 -0.4863 -0.0623 -1.8869
   96SAPS   HN3 9479   4.355   0.893   6.155 -1.6768 -1.6848  3.1797
   96SAPS   C12 9480   4.529   1.012   6.130  0.7563  0.4428  0.1816
   96SAPS  H12A 9481   4.584   1.063   6.208 -0.7723  1.5150  0.5990
   96SAPS   C13 9482   4.623   0.913   6.051  0.0333 -0.9015 -0.9840
   96SAPS  O13A 9483   4.618   0.795   6.077 -0.4555  1.1364  0.2072
   96SAPS  O13B 9484   4.717   0.972   5.998 -0.4385 -0.1041  0.3106
   96SAPS   C11 9485   4.476   1.119   6.033 -0.8439 -0.2167  0.4926
   96SAPS  H11A 9486   4.414   1.072   5.954  0.2218 -0.7301 -0.0654
   96SAPS  H11B 9487   4.568   1.168   5.994 -0.0585 -2.1914 -0.2282
   96SAPS     P 9488   4.403   1.365   6.075  0.1835 -0.4820  0.0616
   96SAPS   O13 9489   4.455   1.384   5.936 -0.0881 -0.8092  0.4360
   96SAPS   O14 9490   4.280   1.431   6.115  0.4798 -0.0764  0.1429
   96SAPS   O12 9491   4.384   1.206   6.096 -0.2845 -0.5117 -0.3289
   96SAPS   O11 9492   4.515   1.406   6.173  0.0111 -0.0280 -0.2475
   96SAPS    C1 9493   4.492   1.386   6.313  0.5575 -0.1780 -0.2838
   96SAPS    HA 9494   4.445   1.290   6.344 -0.8538  0.4842 -0.2750
   96SAPS    HB 9495   4.587   1.392   6.370  0.7294  0.4569 -0.6246
   96SAPS    C2 9496   4.419   1.515   6.374  0.3828 -0.7043 -0.5986
   96SAPS    HS 9497   4.327   1.529   6.314 -0.2183  1.3047  0.6844
   96SAPS   O21 9498   4.510   1.626   6.361  0.0612 -0.0332 -0.1129
   96SAPS   C21 9499   4.455   1.754   6.365  0.4719 -0.2707 -0.0253
   96SAPS   O22 9500   4.337   1.773   6.345  0.9554  0.0429  0.0230
   96SAPS   C22 9501   4.549   1.868   6.386  0.0218 -0.4144  0.5768
   96SAPS   H2R 9502   4.651   1.823   6.393 -0.0369 -0.4426  1.3272
   96SAPS   H2S 9503   4.540   1.942   6.303 -1.6491 -1.5219 -0.2845
   96SAPS    C3 9504   4.378   1.492   6.526 -1.1650  0.9511  0.4866
   96SAPS    HX 9505   4.298   1.415   6.521  0.0792 -0.3435 -0.2283
   96SAPS    HY 9506   4.345   1.589   6.569  1.1010  1.9186  0.1731
   96SAPS   O31 9507   4.494   1.435   6.595 -0.4166 -0.3274 -0.0610
   96SAPS   C31 9508   4.462   1.377   6.714  0.8629  0.0459 -0.3276
   96SAPS   O32 9509   4.356   1.384   6.767  0.1035 -0.8627  0.1363
   96SAPS   C32 9510   4.595   1.328   6.785  0.2352  0.3320 -0.0892
   96SAPS   H2X 9511   4.675   1.326   6.708  0.2260 -0.0060 -0.0924
   96SAPS   H2Y 9512   4.586   1.223   6.820  0.4829  0.1929 -0.4382
   96SAPS   C23 9513   4.517   1.943   6.518  0.4159  0.1384  0.8901
   96SAPS   H3R 9514   4.408   1.960   6.530  0.4561  1.1448 -0.1401
   96SAPS   H3S 9515   4.570   2.040   6.514  0.3055  0.2521  1.7807
   96SAPS   C24 9516   4.563   1.866   6.644 -1.0129  0.2172  0.1431
   96SAPS   H4R 9517   4.674   1.867   6.654 -1.0958 -0.5770  1.3102
   96SAPS   H4S 9518   4.544   1.759   6.621  1.8591 -0.5857  1.0503
   96SAPS   C25 9519   4.511   1.910   6.779  0.3560 -0.1665 -0.2864
   96SAPS   H5R 9520   4.439   1.993   6.766  0.8765  0.0473 -1.9613
   96SAPS   C26 9521   4.551   1.870   6.901  0.0776  0.0803  0.1197
   96SAPS   H6R 9522   4.499   1.907   6.991  1.0163 -2.8585  2.0005
   96SAPS   C27 9523   4.655   1.770   6.924  1.0276 -0.9924 -0.6276
   96SAPS   H7R 9524   4.705   1.751   6.827  0.6947 -0.4971 -0.9043
   96SAPS   H7S 9525   4.615   1.674   6.964  3.2412 -1.5330  0.4046
   96SAPS   C28 9526   4.764   1.806   7.020  0.2981  0.4298  0.7908
   96SAPS   H8R 9527   4.865   1.826   6.983  0.5621  1.9374  2.2100
   96SAPS   C29 9528   4.757   1.806   7.155  0.1494  0.5821 -0.3626
   96SAPS   H9R 9529   4.841   1.837   7.220 -0.3131  0.1220  0.4669
   96SAPS  C210 9530   4.629   1.778   7.237 -0.4719 -0.0476  0.1935
   96SAPS  H10R 9531   4.637   1.683   7.293  1.9049 -1.7828 -2.8118
   96SAPS  H10S 9532   4.540   1.782   7.171 -0.3771 -1.0464 -0.0018
   96SAPS  C211 9533   4.612   1.897   7.328  0.7700  0.0072 -0.3233
   96SAPS  H11R 9534   4.575   1.994   7.292  0.7066  0.6079  1.2905
   96SAPS  C212 9535   4.610   1.888   7.464 -0.0856 -0.6745 -1.3568
   96SAPS  H12R 9536   4.603   1.986   7.513  3.6766 -0.8293 -0.1882
   96SAPS  C213 9537   4.647   1.776   7.557 -1.0649 -0.2885  0.4261
   96SAPS  H13R 9538   4.679   1.684   7.504  1.6578 -0.5258  2.2500
   96SAPS  H13S 9539   4.558   1.748   7.618 -0.3544  0.6205  1.9600
   96SAPS  C214 9540   4.772   1.803   7.632  0.7710 -0.3476  0.3763
   96SAPS  H14R 9541   4.856   1.810   7.561  0.6689 -0.8477  0.1964
   96SAPS  C215 9542   4.792   1.833   7.765  0.6189 -1.0162 -0.5188
   96SAPS  H15R 9543   4.896   1.854   7.794  0.1144  1.4073 -0.3068
   96SAPS  C216 9544   4.683   1.838   7.868  0.1099  0.5813  0.8239
   96SAPS  H16R 9545   4.711   1.775   7.954  1.0605 -0.5612 -0.2824
   96SAPS  H16S 9546   4.601   1.777   7.825  1.6058 -0.0522 -1.3126
   96SAPS  C217 9547   4.659   1.980   7.916 -0.5955  0.2425 -0.5605
   96SAPS  H17R 9548   4.757   2.027   7.941 -1.1046  2.0788 -1.7576
   96SAPS  H17S 9549   4.603   1.959   8.010 -0.5484 -0.6125 -0.7210
   96SAPS  C218 9550   4.586   2.063   7.819  0.8361  0.2594  0.2719
   96SAPS  H18R 9551   4.489   2.009   7.811  0.4657  0.7609  1.2412
   96SAPS  H18S 9552   4.634   2.065   7.719  2.0609 -1.7876  0.7291
   96SAPS  C219 9553   4.559   2.205   7.868  0.3241 -0.1205 -0.7516
   96SAPS  H19R 9554   4.527   2.195   7.974 -3.4672 -1.5572 -1.8775
   96SAPS  H19S 9555   4.471   2.250   7.817 -0.8725  0.3810  1.5780
   96SAPS  C220 9556   4.668   2.319   7.851 -0.1199  0.1776 -0.0889
   96SAPS  H20R 9557   4.661   2.407   7.918  0.7780 -0.7840  1.3282
   96SAPS  H20S 9558   4.662   2.356   7.747  0.4926  1.5531  0.3428
   96SAPS  H20T 9559   4.769   2.280   7.874 -0.6052 -0.5255  0.9020
   96SAPS   C33 9560   4.655   1.414   6.895  0.6033  0.1859  0.2132
   96SAPS   H3X 9561   4.593   1.449   6.980  1.4293  0.8638  0.5560
   96SAPS   H3Y 9562   4.682   1.512   6.850  3.1397 -1.7661 -2.9959
   96SAPS   C34 9563   4.772   1.338   6.959  0.4983  0.0956 -0.1499
   96SAPS   H4X 9564   4.852   1.326   6.883  0.1132 -2.1197 -0.2583
   96SAPS   H4Y 9565   4.737   1.237   6.988  1.4526 -0.9224 -2.3528
   96SAPS   C35 9566   4.834   1.411   7.079 -0.6386  0.1026 -0.1729
   96SAPS   H5X 9567   4.852   1.517   7.055  0.0833 -0.5034 -2.5189
   96SAPS   H5Y 9568   4.934   1.365   7.096 -0.7606  0.1756  0.8503
   96SAPS   C36 9569   4.765   1.387   7.212 -0.1836  0.0887 -0.0828
   96SAPS   H6X 9570   4.750   1.284   7.251 -0.1825  0.5029  1.0515
   96SAPS   H6Y 9571   4.659   1.420   7.209 -0.4949 -0.6465  1.5951
   96SAPS   C37 9572   4.839   1.471   7.314  0.4260 -0.7667  0.9539
   96SAPS   H7X 9573   4.832   1.580   7.289  1.0251 -1.4438 -2.8639
   96SAPS   H7Y 9574   4.947   1.446   7.315  0.5718 -0.5711 -1.7155
   96SAPS   C38 9575   4.789   1.456   7.459 -0.4729 -0.4718  0.0431
   96SAPS   H8X 9576   4.681   1.483   7.467 -0.0868  2.7192 -2.8132
   96SAPS   H8Y 9577   4.846   1.531   7.517 -0.3888  1.7842 -2.7150
   96SAPS   C39 9578   4.819   1.323   7.529  0.1055  0.1231  0.0993
   96SAPS   H9X 9579   4.927   1.300   7.517 -0.2810 -2.3717  0.8145
   96SAPS   H9Y 9580   4.758   1.245   7.479 -0.9443  0.9600  0.0586
   96SAPS  C310 9581   4.793   1.317   7.683  0.4128 -0.3273  0.1510
   96SAPS  H10X 9582   4.805   1.214   7.724 -0.1479 -0.5689 -0.2843
   96SAPS  H10Y 9583   4.688   1.352   7.678  0.6310  0.4091  0.6036
   96SAPS  C311 9584   4.887   1.408   7.761  0.3120  0.6749 -0.3824
   96SAPS  H11X 9585   4.885   1.517   7.739  0.9967  0.3954 -1.9842
   96SAPS  H11Y 9586   4.985   1.368   7.728 -0.1590  0.6057 -1.7672
   96SAPS  C312 9587   4.867   1.371   7.912  0.1017 -0.8541  0.3126
   96SAPS  H12X 9588   4.940   1.435   7.966 -1.1290 -0.5183  1.6570
   96SAPS  H12Y 9589   4.897   1.266   7.935 -0.0239 -0.8007  0.7407
   96SAPS  C313 9590   4.728   1.406   7.970 -0.4865  0.3588 -0.5700
   96SAPS  H13X 9591   4.648   1.369   7.902  0.0463 -1.3389 -0.3187
   96SAPS  H13Y 9592   4.720   1.516   7.977  0.7629  0.3832  1.0310
   96SAPS  C314 9593   4.712   1.345   8.113  0.1123 -0.7909 -0.4794
   96SAPS  H14X 9594   4.798   1.377   8.175  0.2459 -1.7997 -0.1194
   96SAPS  H14Y 9595   4.710   1.235   8.099 -0.0715 -1.3297  3.0589
   96SAPS  C315 9596   4.575   1.391   8.179  0.2042 -0.0980 -0.1684
   96SAPS  H15X 9597   4.527   1.464   8.110  0.6377 -0.9490 -1.4010
   96SAPS  H15Y 9598   4.593   1.452   8.270 -2.3494  1.4418 -0.5954
   96SAPS  C316 9599   4.468   1.272   8.198  0.0238 -0.4410 -0.4887
   96SAPS  H16X 9600   4.533   1.193   8.241 -0.1254  1.4831  3.7343
   96SAPS  H16Y 9601   4.452   1.242   8.092  2.2039 -0.2728 -0.9124
   96SAPS  C317 9602   4.342   1.294   8.268  0.2859 -0.3737 -0.5808
   96SAPS  H17X 9603   4.275   1.357   8.205 -2.1974 -0.0167  2.1912
   96SAPS  H17Y 9604   4.354   1.341   8.368 -2.3910 -0.3410 -0.1836
   96SAPS  C318 9605   4.275   1.158   8.290  0.8573  0.7497  0.0633
   96SAPS  H18X 9606   4.348   1.094   8.345 -0.1863 -0.1634  0.4198
   96SAPS  H18Y 9607   4.247   1.105   8.196  1.3419  0.0750  0.2847
   96SAPS  H18Z 9608   4.184   1.173   8.352  1.3970  2.7857  0.4194
   97SAPS     N 9609   5.443   6.268   6.258 -0.2976  0.3759 -0.2040
   97SAPS   HN1 9610   5.514   6.313   6.320 -0.4583 -1.5584  1.5110
   97SAPS   HN2 9611   5.446   6.317   6.167  1.4099  1.2017  0.2426
   97SAPS   HN3 9612   5.346   6.279   6.292 -0.9201  0.5368 -1.9443
   97SAPS   C12 9613   5.470   6.116   6.244 -0.6764 -0.7317 -0.3067
   97SAPS  H12A 9614   5.412   6.082   6.159  1.0770 -2.1123 -1.0167
   97SAPS   C13 9615   5.609   6.062   6.218  0.5640 -0.3958  0.7580
   97SAPS  O13A 9616   5.716   6.134   6.224  0.4762 -0.1054 -0.3667
   97SAPS  O13B 9617   5.618   5.939   6.204  0.4148  0.1969  0.7706
   97SAPS   C11 9618   5.408   6.044   6.363 -0.5090  0.6635  0.7221
   97SAPS  H11A 9619   5.477   6.063   6.448  1.6438  0.2999 -0.8799
   97SAPS  H11B 9620   5.414   5.934   6.348 -1.0955  0.6215  0.7744
   97SAPS     P 9621   5.160   5.991   6.415 -0.4587 -0.1194 -0.1886
   97SAPS   O13 9622   5.035   6.062   6.442 -0.0257 -0.2386 -0.1059
   97SAPS   O14 9623   5.161   5.891   6.310 -0.0361 -0.0460 -0.4672
   97SAPS   O12 9624   5.279   6.091   6.400  0.6010  0.2360  0.6271
   97SAPS   O11 9625   5.201   5.919   6.550 -0.6049  0.0808 -0.7920
   97SAPS    C1 9626   5.146   5.944   6.677 -0.0557 -0.2431 -0.0772
   97SAPS    HA 9627   5.042   5.906   6.683 -0.6056  1.0747 -0.8532
   97SAPS    HB 9628   5.209   5.886   6.747  3.4377 -0.0096 -2.7704
   97SAPS    C2 9629   5.133   6.093   6.725 -0.1424 -0.3773 -0.1683
   97SAPS    HS 9630   5.054   6.143   6.665 -2.3358  0.6467  3.2426
   97SAPS   O21 9631   5.267   6.156   6.719  0.1955  0.4299 -0.5174
   97SAPS   C21 9632   5.257   6.287   6.719  0.1108 -0.3549  0.2588
   97SAPS   O22 9633   5.148   6.347   6.706 -0.8452  0.4909  0.1231
   97SAPS   C22 9634   5.389   6.352   6.742 -0.3142  0.2673  0.5851
   97SAPS   H2R 9635   5.453   6.316   6.659  0.1422  2.7434 -0.1930
   97SAPS   H2S 9636   5.373   6.460   6.723  0.8860  0.4606  0.6074
   97SAPS    C3 9637   5.073   6.106   6.869 -0.3830 -0.3895  0.0095
   97SAPS    HX 9638   5.066   6.216   6.882 -1.2234 -0.2722 -1.2291
   97SAPS    HY 9639   5.137   6.054   6.943  0.6218  1.5010  0.5375
   97SAPS   O31 9640   4.943   6.038   6.877 -0.2323 -0.3162  0.2272
   97SAPS   C31 9641   4.862   6.094   6.949  0.4776 -0.5988  0.5142
   97SAPS   O32 9642   4.872   6.198   7.009  0.5682  0.6727 -0.1123
   97SAPS   C32 9643   4.739   6.005   6.963 -0.0128  0.4604  0.1016
   97SAPS   H2X 9644   4.686   6.016   6.866 -0.5830 -0.3398  0.3104
   97SAPS   H2Y 9645   4.671   6.046   7.041  0.2481 -0.0840  0.6209
   97SAPS   C23 9646   5.448   6.319   6.885 -0.1198 -0.3507  0.3563
   97SAPS   H3R 9647   5.436   6.214   6.917 -0.0927  0.7550  4.5641
   97SAPS   H3S 9648   5.382   6.375   6.955 -1.4918  0.9266 -1.8182
   97SAPS   C24 9649   5.600   6.350   6.901 -0.8247  0.2036 -0.4033
   97SAPS   H4R 9650   5.659   6.296   6.823 -0.1910 -0.3007  0.4033
   97SAPS   H4S 9651   5.631   6.308   6.999  0.5001  0.3062 -0.7521
   97SAPS   C25 9652   5.619   6.502   6.891  0.0064 -0.1752 -0.4222
   97SAPS   H5R 9653   5.610   6.548   6.792  0.9552 -1.9213 -1.3546
   97SAPS   C26 9654   5.631   6.579   7.003 -0.3114  0.1094 -0.1046
   97SAPS   H6R 9655   5.652   6.684   6.980 -0.9421  0.2315 -0.1485
   97SAPS   C27 9656   5.628   6.536   7.153  0.2760  0.1438  0.4060
   97SAPS   H7R 9657   5.560   6.450   7.168 -0.8719  0.7079 -1.3428
   97SAPS   H7S 9658   5.584   6.613   7.220  0.4380  0.8093 -0.2403
   97SAPS   C28 9659   5.773   6.501   7.195 -0.4335 -0.0310  0.0504
   97SAPS   H8R 9660   5.838   6.451   7.121  0.3373  1.9538 -0.6792
   97SAPS   C29 9661   5.827   6.527   7.313 -0.2009 -0.3697 -0.3236
   97SAPS   H9R 9662   5.925   6.479   7.326 -1.3698 -3.4107 -1.8857
   97SAPS  C210 9663   5.779   6.594   7.441  0.1347 -0.5579 -0.8716
   97SAPS  H10R 9664   5.720   6.686   7.420  1.7975  0.7035 -0.2534
   97SAPS  H10S 9665   5.862   6.635   7.502 -1.7013  1.6177  0.3359
   97SAPS  C211 9666   5.691   6.494   7.528 -0.4455 -0.7081  0.0737
   97SAPS  H11R 9667   5.613   6.435   7.477 -2.2002  2.1318 -0.7831
   97SAPS  C212 9668   5.684   6.465   7.659  0.0522 -0.2581  0.0198
   97SAPS  H12R 9669   5.624   6.380   7.696 -0.8512  0.0567 -0.7036
   97SAPS  C213 9670   5.776   6.539   7.756 -0.2033 -0.3221 -0.1467
   97SAPS  H13R 9671   5.821   6.637   7.726  0.1667  0.0298  1.4390
   97SAPS  H13S 9672   5.868   6.481   7.779  0.9003  0.9674 -1.1531
   97SAPS  C214 9673   5.706   6.563   7.885 -0.6121 -0.5406 -0.5920
   97SAPS  H14R 9674   5.654   6.658   7.902  0.3585 -0.1365  0.2654
   97SAPS  C215 9675   5.694   6.489   8.000 -0.1465 -0.2111  0.4863
   97SAPS  H15R 9676   5.632   6.529   8.082 -0.8892  1.5519 -0.8735
   97SAPS  C216 9677   5.754   6.352   8.018  0.5312 -0.2551  0.0957
   97SAPS  H16R 9678   5.809   6.313   7.930  1.3402  1.2512 -0.1015
   97SAPS  H16S 9679   5.656   6.299   8.010 -1.1835  2.6046  0.7414
   97SAPS  C217 9680   5.835   6.335   8.149 -0.4407  0.1240  0.7513
   97SAPS  H17R 9681   5.861   6.227   8.140 -1.1833  0.0313 -0.5274
   97SAPS  H17S 9682   5.783   6.357   8.244 -1.2219  0.4567  0.2514
   97SAPS  C218 9683   5.959   6.426   8.152  0.1651  0.3457 -0.5455
   97SAPS  H18R 9684   6.022   6.395   8.238  2.4610  0.1901 -2.1964
   97SAPS  H18S 9685   5.914   6.528   8.157 -1.0876 -0.2449  1.3330
   97SAPS  C219 9686   6.049   6.410   8.031  0.4611 -0.8217 -0.5600
   97SAPS  H19R 9687   6.004   6.453   7.939 -1.7889  0.7659  1.1960
   97SAPS  H19S 9688   6.053   6.300   8.018  0.0390 -0.7917 -0.9813
   97SAPS  C220 9689   6.188   6.484   8.045 -0.1853  0.8315 -0.1750
   97SAPS  H20R 9690   6.232   6.450   8.141  0.0760  0.8787 -0.2796
   97SAPS  H20S 9691   6.170   6.593   8.059  1.6291  1.1654 -0.2378
   97SAPS  H20T 9692   6.264   6.462   7.968 -1.1017  0.0232 -0.8698
   97SAPS   C33 9693   4.754   5.854   6.988 -0.4902 -0.0492 -0.4709
   97SAPS   H3X 9694   4.837   5.821   6.922  1.4015  2.4434  0.4963
   97SAPS   H3Y 9695   4.667   5.788   6.966  1.4742 -2.3623 -1.9632
   97SAPS   C34 9696   4.805   5.830   7.134  0.4475  0.4005  0.2237
   97SAPS   H4X 9697   4.901   5.880   7.156 -0.7135  2.3798  1.1024
   97SAPS   H4Y 9698   4.822   5.721   7.137  2.4842  0.4587 -3.3949
   97SAPS   C35 9699   4.700   5.863   7.238 -0.2055  0.3145 -0.8178
   97SAPS   H5X 9700   4.608   5.805   7.219  0.1253 -0.2689 -0.6744
   97SAPS   H5Y 9701   4.669   5.970   7.237 -0.3298  0.3770  1.9318
   97SAPS   C36 9702   4.755   5.834   7.384  0.1320  0.2768  0.0018
   97SAPS   H6X 9703   4.688   5.877   7.461 -1.8472 -0.3510 -1.3003
   97SAPS   H6Y 9704   4.854   5.883   7.397 -0.3013  1.0792  0.2846
   97SAPS   C37 9705   4.745   5.680   7.417 -0.1038 -0.3039 -0.3416
   97SAPS   H7X 9706   4.804   5.609   7.356  1.4198 -2.4196  3.2760
   97SAPS   H7Y 9707   4.646   5.652   7.375  0.7462 -0.1921 -2.5387
   97SAPS   C38 9708   4.755   5.643   7.571 -0.3822 -0.5913  0.6049
   97SAPS   H8X 9709   4.781   5.735   7.629 -0.1919  1.2736 -2.2377
   97SAPS   H8Y 9710   4.844   5.579   7.591 -0.5774 -0.9725  0.2543
   97SAPS   C39 9711   4.622   5.595   7.639 -0.1061 -0.5821 -0.0607
   97SAPS   H9X 9712   4.600   5.502   7.581  0.9665 -0.9016  0.0251
   97SAPS   H9Y 9713   4.549   5.679   7.629 -0.1520 -0.5869  0.2407
   97SAPS  C310 9714   4.636   5.561   7.785 -0.3786  0.3357 -1.1889
   97SAPS  H10X 9715   4.695   5.470   7.808 -0.9957  0.0807 -0.5716
   97SAPS  H10Y 9716   4.533   5.538   7.819  0.5740  0.9752  2.6268
   97SAPS  C311 9717   4.675   5.674   7.880  0.1504  0.8141  0.5840
   97SAPS  H11X 9718   4.646   5.775   7.842 -0.8169  1.7821  3.5959
   97SAPS  H11Y 9719   4.786   5.681   7.875  0.1850  0.1723  0.4311
   97SAPS  C312 9720   4.618   5.675   8.024 -0.0588 -0.2788 -0.2879
   97SAPS  H12X 9721   4.507   5.669   8.026 -0.3158  2.7807  0.2499
   97SAPS  H12Y 9722   4.646   5.771   8.072 -0.9927  0.1444 -0.5680
   97SAPS  C313 9723   4.675   5.566   8.113  0.5485 -0.4575 -0.5003
   97SAPS  H13X 9724   4.785   5.557   8.122  0.6054 -0.2694 -0.9944
   97SAPS  H13Y 9725   4.636   5.468   8.080  1.6676 -0.7393 -1.0055
   97SAPS  C314 9726   4.620   5.578   8.261 -0.3834  0.5931 -0.2094
   97SAPS  H14X 9727   4.510   5.597   8.257 -0.7136 -1.1795 -2.9601
   97SAPS  H14Y 9728   4.665   5.677   8.281 -0.0297  0.2272  0.8800
   97SAPS  C315 9729   4.662   5.476   8.368 -0.3809  0.4320  0.0931
   97SAPS  H15X 9730   4.773   5.478   8.373 -0.1006  0.4900 -3.4739
   97SAPS  H15Y 9731   4.616   5.380   8.333  2.4233 -0.4139 -1.6409
   97SAPS  C316 9732   4.607   5.510   8.506 -0.3370  0.2763  0.8056
   97SAPS  H16X 9733   4.497   5.502   8.496 -0.1124 -1.1445 -1.0221
   97SAPS  H16Y 9734   4.628   5.614   8.539  2.1817  0.6546 -1.6236
   97SAPS  C317 9735   4.677   5.425   8.613 -0.1850 -0.1659 -0.0057
   97SAPS  H17X 9736   4.649   5.460   8.715 -0.1934 -2.1953  0.7391
   97SAPS  H17Y 9737   4.784   5.448   8.590 -0.5642  1.2696 -0.4526
   97SAPS  C318 9738   4.640   5.277   8.591  0.0283 -0.0351 -0.1799
   97SAPS  H18X 9739   4.531   5.257   8.596 -0.4632  2.0391 -1.2045
   97SAPS  H18Y 9740   4.697   5.224   8.670 -0.4863  0.2967  0.4166
   97SAPS  H18Z 9741   4.666   5.234   8.492  1.7573 -0.2091  0.3215
   98SAPS     N 9742   2.710   0.335   5.671  0.2056  0.2778 -0.4789
   98SAPS   HN1 9743   2.714   0.231   5.676 -1.0765  0.2083 -0.6482
   98SAPS   HN2 9744   2.633   0.351   5.603 -2.7937 -2.0998  2.0778
   98SAPS   HN3 9745   2.807   0.357   5.640  1.0858  0.6709  2.2972
   98SAPS   C12 9746   2.671   0.397   5.801 -0.0443 -0.4763  0.2205
   98SAPS  H12A 9747   2.759   0.449   5.834 -0.9276  1.7873 -0.7767
   98SAPS   C13 9748   2.577   0.520   5.785  0.2907 -0.0730  0.1794
   98SAPS  O13A 9749   2.536   0.544   5.668  0.2011  0.9666 -0.1619
   98SAPS  O13B 9750   2.559   0.603   5.878 -0.2448  0.1869  0.2094
   98SAPS   C11 9751   2.625   0.291   5.905 -0.2784 -0.0423  0.5936
   98SAPS  H11A 9752   2.537   0.242   5.858  0.6755 -0.2614 -1.0695
   98SAPS  H11B 9753   2.603   0.353   5.995 -1.8914  2.1342 -1.1815
   98SAPS     P 9754   2.741   0.080   6.018 -0.0851  0.1490 -0.0785
   98SAPS   O13 9755   2.620  -0.009   6.010 -0.3897 -0.3410  0.3512
   98SAPS   O14 9756   2.874   0.023   6.016  0.4793  0.3750 -0.2260
   98SAPS   O12 9757   2.732   0.198   5.912  0.3757 -0.1671  0.0557
   98SAPS   O11 9758   2.726   0.164   6.154  0.2341 -0.2353  0.0478
   98SAPS    C1 9759   2.834   0.260   6.192  0.5484  0.8220 -0.5747
   98SAPS    HA 9760   2.909   0.273   6.111  1.1794 -0.4008 -0.2068
   98SAPS    HB 9761   2.779   0.355   6.214 -0.0032  0.4161 -0.1862
   98SAPS    C2 9762   2.924   0.212   6.315  0.5756  0.0821 -0.4948
   98SAPS    HS 9763   3.000   0.141   6.277  2.7267 -0.0151  3.5002
   98SAPS   O21 9764   2.840   0.154   6.424 -0.2727  0.6732  0.3297
   98SAPS   C21 9765   2.887   0.047   6.478  0.1048  0.9074  0.3823
   98SAPS   O22 9766   2.980  -0.020   6.437  0.4395  0.1156  0.3779
   98SAPS   C22 9767   2.814   0.016   6.609  0.7570 -0.4016  0.3456
   98SAPS   H2R 9768   2.806   0.113   6.662  2.4393  0.2659 -0.5320
   98SAPS   H2S 9769   2.710  -0.016   6.584  0.3842  0.5636  0.6208
   98SAPS    C3 9770   3.014   0.326   6.375  0.4973 -0.2231  0.1220
   98SAPS    HX 9771   2.943   0.408   6.395  0.9866  0.3034 -0.2675
   98SAPS    HY 9772   3.081   0.362   6.294  0.2952  0.3491  0.2066
   98SAPS   O31 9773   3.087   0.299   6.495  0.2737  0.6801 -0.1682
   98SAPS   C31 9774   3.190   0.226   6.487  0.3651 -0.2295  0.3608
   98SAPS   O32 9775   3.245   0.187   6.387 -0.5281 -0.1339 -0.6614
   98SAPS   C32 9776   3.235   0.179   6.626  0.4726  0.0599  1.1307
   98SAPS   H2X 9777   3.148   0.193   6.693 -0.7420  0.5940 -0.4929
   98SAPS   H2Y 9778   3.312   0.250   6.664 -0.1407  1.2841  0.1531
   98SAPS   C23 9779   2.878  -0.090   6.705 -0.0630 -0.3361 -0.1772
   98SAPS   H3R 9780   2.988  -0.079   6.701 -0.1221  0.4140  0.0776
   98SAPS   H3S 9781   2.864  -0.187   6.653  1.5901 -0.4809 -0.3953
   98SAPS   C24 9782   2.820  -0.083   6.850 -0.0609 -0.3719 -0.2013
   98SAPS   H4R 9783   2.869  -0.165   6.908  1.0704 -1.1705 -2.1801
   98SAPS   H4S 9784   2.709  -0.091   6.849 -0.3375  2.5080 -0.4983
   98SAPS   C25 9785   2.866   0.047   6.909 -0.7015  0.4659 -0.5980
   98SAPS   H5R 9786   2.965   0.079   6.875 -0.6679  1.0844  0.0625
   98SAPS   C26 9787   2.798   0.126   6.991  0.2676 -0.1508 -0.1087
   98SAPS   H6R 9788   2.838   0.227   7.012 -0.5372 -0.0194  0.8665
   98SAPS   C27 9789   2.657   0.099   7.046  0.3621 -0.6071 -0.3210
   98SAPS   H7R 9790   2.624   0.001   7.007  1.9344 -0.5737 -1.8486
   98SAPS   H7S 9791   2.580   0.169   7.007  0.7505  0.8830  1.3977
   98SAPS   C28 9792   2.676   0.085   7.199  0.5009 -0.7194  0.2847
   98SAPS   H8R 9793   2.749   0.011   7.235 -0.9075 -1.2583  2.1340
   98SAPS   C29 9794   2.625   0.176   7.287 -0.0925 -0.3186  0.4650
   98SAPS   H9R 9795   2.652   0.163   7.393  1.8640  1.1371  0.2005
   98SAPS  C210 9796   2.552   0.299   7.244 -0.3885  0.2214 -0.1599
   98SAPS  H10R 9797   2.601   0.336   7.151  2.0234 -0.1764  0.8941
   98SAPS  H10S 9798   2.565   0.385   7.314  0.2993 -0.0143  0.0099
   98SAPS  C211 9799   2.408   0.287   7.208  0.0234 -0.3250  0.0877
   98SAPS  H11R 9800   2.378   0.289   7.102  0.5932  0.0952 -0.0663
   98SAPS  C212 9801   2.310   0.278   7.303 -0.3492 -0.4125 -0.5536
   98SAPS  H12R 9802   2.205   0.270   7.274 -1.1610  1.4061  1.6246
   98SAPS  C213 9803   2.333   0.274   7.452 -0.0693 -0.4744  0.4750
   98SAPS  H13R 9804   2.284   0.361   7.501 -0.9768 -0.4855 -0.3737
   98SAPS  H13S 9805   2.439   0.288   7.483 -0.3914 -1.5904  2.2198
   98SAPS  C214 9806   2.286   0.143   7.510  0.1449 -0.4709 -0.0629
   98SAPS  H14R 9807   2.360   0.061   7.511 -0.8542 -1.3974  1.2336
   98SAPS  C215 9808   2.160   0.124   7.552 -0.2909  0.2222 -0.6841
   98SAPS  H15R 9809   2.127   0.022   7.575 -1.3449  0.7142  0.0578
   98SAPS  C216 9810   2.044   0.220   7.555  0.2184 -0.3594 -0.4142
   98SAPS  H16R 9811   2.077   0.326   7.545 -0.8704 -0.1429 -2.3616
   98SAPS  H16S 9812   1.986   0.203   7.648  0.5203  0.2720 -0.1087
   98SAPS  C217 9813   1.946   0.195   7.433 -0.3846  0.5495 -0.5367
   98SAPS  H17R 9814   2.003   0.206   7.338  1.5973 -2.2905  0.1861
   98SAPS  H17S 9815   1.875   0.280   7.428  0.5449  1.3062 -1.3959
   98SAPS  C218 9816   1.857   0.063   7.432 -0.4000  0.0798 -0.4133
   98SAPS  H18R 9817   1.772   0.076   7.501 -0.5998 -0.6414 -0.5098
   98SAPS  H18S 9818   1.921  -0.025   7.454 -0.4529 -0.2298 -1.4307
   98SAPS  C219 9819   1.800   0.029   7.296  0.1576  0.4701  0.4059
   98SAPS  H19R 9820   1.885  -0.009   7.236 -1.1182 -2.3500  0.2323
   98SAPS  H19S 9821   1.742   0.113   7.251 -0.3777 -0.3781 -0.5323
   98SAPS  C220 9822   1.709  -0.092   7.295  0.0550 -0.3174 -0.0942
   98SAPS  H20R 9823   1.657  -0.096   7.197  2.7828 -0.8438 -1.6136
   98SAPS  H20S 9824   1.642  -0.096   7.384  1.0620  1.3541  0.7831
   98SAPS  H20T 9825   1.770  -0.183   7.312 -0.7071 -0.3514  3.2657
   98SAPS   C33 9826   3.271   0.027   6.618 -0.5369  0.1823 -0.2118
   98SAPS   H3X 9827   3.359   0.004   6.553 -0.0393  0.0912  0.4848
   98SAPS   H3Y 9828   3.191  -0.035   6.572 -0.1115 -0.2405 -0.4015
   98SAPS   C34 9829   3.294  -0.029   6.754  0.0077  0.2389 -0.9316
   98SAPS   H4X 9830   3.298  -0.140   6.761 -0.4571  0.3540  2.2181
   98SAPS   H4Y 9831   3.225   0.012   6.830  2.2272  3.1327 -0.2879
   98SAPS   C35 9832   3.435   0.009   6.804 -0.1691 -0.4388  0.0010
   98SAPS   H5X 9833   3.455   0.118   6.793 -0.5346 -0.2860  0.7668
   98SAPS   H5Y 9834   3.514  -0.046   6.750  0.5425  0.6157 -0.0585
   98SAPS   C36 9835   3.459  -0.031   6.953  0.1200 -0.3790  0.7187
   98SAPS   H6X 9836   3.379   0.024   7.006 -3.0680 -1.4356 -2.6167
   98SAPS   H6Y 9837   3.557   0.003   6.994 -0.4249 -0.0947  1.8314
   98SAPS   C37 9838   3.440  -0.189   6.973  0.6972 -0.6932  0.4073
   98SAPS   H7X 9839   3.512  -0.241   6.906  1.0168  2.2940 -1.7720
   98SAPS   H7Y 9840   3.343  -0.230   6.941  0.7680  0.7435 -1.8770
   98SAPS   C38 9841   3.492  -0.246   7.111  0.5176 -0.5762  0.7866
   98SAPS   H8X 9842   3.480  -0.355   7.129 -1.4082 -0.1408  2.5821
   98SAPS   H8Y 9843   3.425  -0.196   7.185  1.8108  1.8564  0.4145
   98SAPS   C39 9844   3.637  -0.217   7.139  0.3232  0.0585 -0.4823
   98SAPS   H9X 9845   3.645  -0.110   7.167 -0.7151  0.2666 -0.9400
   98SAPS   H9Y 9846   3.700  -0.234   7.049  0.7585 -0.2163 -0.1344
   98SAPS  C310 9847   3.695  -0.294   7.256  0.8943  0.3581  0.1715
   98SAPS  H10X 9848   3.737  -0.394   7.232 -0.0587 -0.3624  1.4004
   98SAPS  H10Y 9849   3.609  -0.296   7.326  0.5293  1.6364 -0.2062
   98SAPS  C311 9850   3.815  -0.228   7.317 -1.0905  0.3973 -0.2257
   98SAPS  H11X 9851   3.794  -0.124   7.349 -0.9535 -0.6339  3.7770
   98SAPS  H11Y 9852   3.902  -0.231   7.248 -1.3237  0.9168 -0.5476
   98SAPS  C312 9853   3.849  -0.303   7.449 -0.2344  0.8446  0.3718
   98SAPS  H12X 9854   3.887  -0.403   7.421 -0.9057  0.0661  2.1042
   98SAPS  H12Y 9855   3.756  -0.303   7.510  1.0070  1.2305  2.3231
   98SAPS  C313 9856   3.959  -0.241   7.535  0.8026 -0.1099 -0.2418
   98SAPS  H13X 9857   3.929  -0.139   7.565 -1.5823 -0.5197 -0.9671
   98SAPS  H13Y 9858   4.052  -0.235   7.475 -1.3357  1.2415 -3.6885
   98SAPS  C314 9859   3.972  -0.321   7.668  0.2022 -0.1655 -0.0833
   98SAPS  H14X 9860   4.050  -0.256   7.712 -1.0987 -0.3481  2.6823
   98SAPS  H14Y 9861   4.014  -0.422   7.647  0.5792 -0.7532  3.0642
   98SAPS  C315 9862   3.854  -0.321   7.765 -0.1078  0.0275  0.2752
   98SAPS  H15X 9863   3.894  -0.351   7.865  2.1446 -2.4242 -1.2441
   98SAPS  H15Y 9864   3.789  -0.409   7.745 -0.8744  0.9243 -1.3723
   98SAPS  C316 9865   3.780  -0.189   7.772  0.0523 -0.0207  0.2725
   98SAPS  H16X 9866   3.705  -0.201   7.853  0.0258 -1.0329  0.1155
   98SAPS  H16Y 9867   3.738  -0.169   7.671  2.5985 -2.3002 -1.3960
   98SAPS  C317 9868   3.867  -0.065   7.813  0.1936  0.7083 -0.6535
   98SAPS  H17X 9869   3.934  -0.021   7.736  4.1264  1.9274  3.0435
   98SAPS  H17Y 9870   3.943  -0.087   7.891 -0.4243  0.1129 -0.2059
   98SAPS  C318 9871   3.782   0.052   7.859 -0.5120  0.1631  0.1835
   98SAPS  H18X 9872   3.742   0.026   7.960  1.4529  1.1989  1.2874
   98SAPS  H18Y 9873   3.706   0.082   7.784 -1.0243  0.9483  0.9966
   98SAPS  H18Z 9874   3.850   0.139   7.870  0.9289 -1.1231  2.1641
   99SAPS     N 9875   2.680   4.101   6.224  0.4025 -0.1732  0.0335
   99SAPS   HN1 9876   2.689   4.019   6.288  1.0597  1.6416  2.4066
   99SAPS   HN2 9877   2.698   4.179   6.290  0.3211 -0.7738  0.7766
   99SAPS   HN3 9878   2.580   4.115   6.198  0.3176  0.4188  0.6552
   99SAPS   C12 9879   2.770   4.109   6.104 -0.4719  0.3111  0.2633
   99SAPS  H12A 9880   2.875   4.123   6.127 -0.4518  1.1194 -0.2672
   99SAPS   C13 9881   2.759   3.983   6.014 -0.5377 -0.4984 -0.5396
   99SAPS  O13A 9882   2.699   3.877   6.050  0.1367 -0.0566 -0.4344
   99SAPS  O13B 9883   2.834   3.972   5.917  0.2899  0.0331  0.3587
   99SAPS   C11 9884   2.740   4.235   6.015 -0.1146 -0.7984 -0.6472
   99SAPS  H11A 9885   2.651   4.213   5.951 -1.4226  0.4933  0.6356
   99SAPS  H11B 9886   2.826   4.252   5.947 -0.2787 -0.8694 -0.8772
   99SAPS     P 9887   2.829   4.446   6.148  0.5088  0.1535 -0.1385
   99SAPS   O13 9888   2.936   4.357   6.211  0.3655 -0.9105 -0.1926
   99SAPS   O14 9889   2.867   4.541   6.041 -0.7333 -1.0385 -0.1815
   99SAPS   O12 9890   2.716   4.348   6.104 -0.0799 -0.0271  0.1953
   99SAPS   O11 9891   2.763   4.534   6.266 -0.0487 -0.6872  0.1479
   99SAPS    C1 9892   2.833   4.564   6.387  0.1978 -0.2970  0.3794
   99SAPS    HA 9893   2.943   4.569   6.374  0.2519  0.7631  1.1081
   99SAPS    HB 9894   2.803   4.666   6.418 -0.2973 -0.1841 -0.4331
   99SAPS    C2 9895   2.798   4.466   6.501  0.0668 -0.7754  0.0903
   99SAPS    HS 9896   2.820   4.362   6.466  0.9629  0.2229 -2.5426
   99SAPS   O21 9897   2.660   4.475   6.540 -0.0847 -0.1312  0.4068
   99SAPS   C21 9898   2.574   4.399   6.470  0.0839  0.0108 -0.6717
   99SAPS   O22 9899   2.606   4.314   6.387 -0.3280 -0.4595 -0.1332
   99SAPS   C22 9900   2.428   4.439   6.504  0.9680  0.1177 -0.0655
   99SAPS   H2R 9901   2.422   4.470   6.610 -1.4374  0.3954 -0.2195
   99SAPS   H2S 9902   2.397   4.526   6.441  1.2936  0.0051 -0.3812
   99SAPS    C3 9903   2.896   4.498   6.623  0.1477 -0.5127  0.3575
   99SAPS    HX 9904   2.887   4.604   6.654  0.4717 -1.1177  2.6523
   99SAPS    HY 9905   3.000   4.500   6.584  0.3383  0.2113  0.8871
   99SAPS   O31 9906   2.873   4.408   6.734 -0.0521  0.2986 -0.1069
   99SAPS   C31 9907   2.919   4.281   6.719 -0.0854 -0.1263  0.5405
   99SAPS   O32 9908   2.988   4.242   6.627 -0.5742 -0.0655 -0.1322
   99SAPS   C32 9909   2.885   4.182   6.832  0.4723 -0.4066 -0.3515
   99SAPS   H2X 9910   2.891   4.077   6.796 -1.3754  0.1895 -2.7101
   99SAPS   H2Y 9911   2.778   4.189   6.858 -0.4776 -1.5814 -3.4271
   99SAPS   C23 9912   2.327   4.324   6.475 -0.4362  0.0684 -0.0483
   99SAPS   H3R 9913   2.363   4.251   6.399 -0.2287 -0.5261  0.6001
   99SAPS   H3S 9914   2.234   4.376   6.444 -1.0374 -0.2672  1.1106
   99SAPS   C24 9915   2.283   4.256   6.601 -0.1866  0.4491  0.1714
   99SAPS   H4R 9916   2.198   4.186   6.586  2.1967 -2.5325 -0.5305
   99SAPS   H4S 9917   2.244   4.344   6.655 -2.0028 -0.9988  1.3149
   99SAPS   C25 9918   2.393   4.181   6.675 -0.0265  0.1713  0.0775
   99SAPS   H5R 9919   2.440   4.102   6.615  0.8556 -0.8872  2.0768
   99SAPS   C26 9920   2.457   4.222   6.785 -0.1343 -0.9793  0.4883
   99SAPS   H6R 9921   2.543   4.163   6.821  0.2313 -1.1888 -0.6988
   99SAPS   C27 9922   2.427   4.344   6.859  0.0481 -0.0550 -0.8210
   99SAPS   H7R 9923   2.350   4.333   6.940  2.2146 -1.3081  1.2027
   99SAPS   H7S 9924   2.378   4.427   6.804 -2.2084  1.0190  2.4638
   99SAPS   C28 9925   2.534   4.418   6.922  0.3536 -0.3066  0.4074
   99SAPS   H8R 9926   2.568   4.501   6.858  0.1690  0.4626  1.2818
   99SAPS   C29 9927   2.587   4.403   7.042 -0.6587  0.8593 -0.1288
   99SAPS   H9R 9928   2.658   4.478   7.079 -1.5617  0.3793  2.8066
   99SAPS  C210 9929   2.568   4.298   7.150  0.4500 -0.6774  0.5623
   99SAPS  H10R 9930   2.656   4.316   7.216  0.2865  0.6332  0.4532
   99SAPS  H10S 9931   2.597   4.199   7.110  0.2048 -0.0256 -1.2984
   99SAPS  C211 9932   2.437   4.292   7.227 -0.7805  0.6102  0.5427
   99SAPS  H11R 9933   2.359   4.238   7.172 -0.1544  1.2572 -1.0261
   99SAPS  C212 9934   2.413   4.337   7.351 -0.5292 -0.0203 -0.3764
   99SAPS  H12R 9935   2.318   4.340   7.406  0.3960 -1.9764  1.5159
   99SAPS  C213 9936   2.505   4.418   7.442  0.4365  0.5503  0.0952
   99SAPS  H13R 9937   2.440   4.485   7.502 -0.8099  1.6578 -2.3399
   99SAPS  H13S 9938   2.576   4.476   7.380  0.3464 -0.4726 -1.0107
   99SAPS  C214 9939   2.596   4.339   7.529  0.5685  0.0443  0.0358
   99SAPS  H14R 9940   2.697   4.337   7.485 -0.0375 -0.9222 -1.3894
   99SAPS  C215 9941   2.567   4.255   7.633  0.2082  0.1681 -0.2280
   99SAPS  H15R 9942   2.652   4.198   7.672  1.3646 -0.2033 -3.0405
   99SAPS  C216 9943   2.436   4.227   7.683  0.5041  0.3623 -0.2387
   99SAPS  H16R 9944   2.345   4.249   7.622 -0.6639 -1.5216  0.7399
   99SAPS  H16S 9945   2.427   4.294   7.771 -0.6517 -0.5788  0.3857
   99SAPS  C217 9946   2.423   4.084   7.717  0.2558 -0.4141  0.2500
   99SAPS  H17R 9947   2.512   4.050   7.774  0.2204  0.6262  0.9566
   99SAPS  H17S 9948   2.411   4.016   7.630  5.1085 -0.6082 -0.5340
   99SAPS  C218 9949   2.303   4.065   7.812 -0.6558 -0.1275 -1.1277
   99SAPS  H18R 9950   2.327   4.124   7.903 -0.0373  0.3531 -1.5966
   99SAPS  H18S 9951   2.282   3.959   7.839  0.0558 -0.1384 -0.5904
   99SAPS  C219 9952   2.168   4.106   7.762 -0.8134 -0.0671 -0.0141
   99SAPS  H19R 9953   2.148   4.049   7.669 -1.6674 -0.1715  0.2325
   99SAPS  H19S 9954   2.175   4.215   7.737 -0.0443  0.8738  3.7207
   99SAPS  C220 9955   2.057   4.088   7.858  0.0913  0.1397 -0.9977
   99SAPS  H20R 9956   1.959   4.107   7.809 -0.4425  1.2832  0.4204
   99SAPS  H20S 9957   2.074   4.163   7.939  1.2618  0.5794 -1.6324
   99SAPS  H20T 9958   2.055   3.983   7.894  2.3271  0.4050  0.0896
   99SAPS   C33 9959   2.973   4.192   6.952 -0.0268 -0.2124  0.0652
   99SAPS   H3X 9960   3.076   4.163   6.921  0.3066 -0.2397  1.1658
   99SAPS   H3Y 9961   2.947   4.119   7.031  1.9327 -3.2186 -1.8650
   99SAPS   C34 9962   2.980   4.336   7.006  0.6327  0.7905 -0.0967
   99SAPS   H4X 9963   2.885   4.394   7.002  0.3736  0.3367 -0.6990
   99SAPS   H4Y 9964   3.054   4.387   6.939  2.2914 -2.3192 -0.8454
   99SAPS   C35 9965   3.015   4.331   7.159 -0.4782 -1.3618 -0.1558
   99SAPS   H5X 9966   3.120   4.296   7.176 -0.4901 -1.4051 -0.1726
   99SAPS   H5Y 9967   2.945   4.262   7.211 -0.8407  0.0903  1.3698
   99SAPS   C36 9968   3.005   4.473   7.219  0.3133  0.3986  0.3385
   99SAPS   H6X 9969   2.906   4.518   7.194  0.5439  1.8343  1.8719
   99SAPS   H6Y 9970   3.093   4.533   7.188  0.8492 -1.3796 -1.9097
   99SAPS   C37 9971   3.000   4.464   7.371 -0.3359 -0.1774  0.1239
   99SAPS   H7X 9972   3.085   4.404   7.410  1.2359  1.1312 -1.1522
   99SAPS   H7Y 9973   2.905   4.415   7.400  0.7196 -0.8238  2.7896
   99SAPS   C38 9974   2.989   4.597   7.434  0.2730  0.1005  1.2729
   99SAPS   H8X 9975   2.938   4.665   7.363  0.5221 -0.4321  0.5847
   99SAPS   H8Y 9976   3.093   4.637   7.442  0.5415 -0.4500  0.5934
   99SAPS   C39 9977   2.911   4.621   7.563 -0.7146 -1.3889 -0.0896
   99SAPS   H9X 9978   2.811   4.571   7.562 -0.7414 -1.3344 -0.6378
   99SAPS   H9Y 9979   2.896   4.731   7.574  1.1454 -1.2161  1.2207
   99SAPS  C310 9980   2.988   4.578   7.691 -0.1912 -0.2758  0.0083
   99SAPS  H10X 9981   3.073   4.647   7.711  0.3913 -1.0051  0.0930
   99SAPS  H10Y 9982   3.042   4.483   7.668  1.3517  1.0956 -2.4493
   99SAPS  C311 9983   2.911   4.564   7.817  0.3626 -0.1263 -0.7311
   99SAPS  H11X 9984   2.853   4.655   7.845 -0.7622 -0.7713 -0.9335
   99SAPS  H11Y 9985   2.983   4.549   7.900  0.8656 -1.4201 -1.3806
   99SAPS  C312 9986   2.824   4.436   7.825 -0.2473  0.0521  0.0398
   99SAPS  H12X 9987   2.870   4.347   7.776  1.7526  1.3427 -0.5378
   99SAPS  H12Y 9988   2.726   4.449   7.773 -0.0779 -0.2510 -0.3611
   99SAPS  C313 9989   2.800   4.395   7.974 -0.5186 -0.0204 -0.0175
   99SAPS  H13X 9990   2.763   4.488   8.022  2.0401  0.3722  1.3681
   99SAPS  H13Y 9991   2.895   4.366   8.024  1.3402  2.2214 -1.9977
   99SAPS  C314 9992   2.694   4.292   7.993 -0.0234 -0.5162 -0.0693
   99SAPS  H14X 9993   2.736   4.198   7.950  0.4127 -0.2733 -0.1816
   99SAPS  H14Y 9994   2.596   4.318   7.947 -0.0430 -0.0015  0.2630
   99SAPS  C315 9995   2.674   4.255   8.143  0.2606  1.1754  0.6935
   99SAPS  H15X 9996   2.679   4.346   8.206 -3.6171  3.5475 -1.9742
   99SAPS  H15Y 9997   2.761   4.191   8.168 -0.6499  0.1213  1.2769
   99SAPS  C316 9998   2.546   4.172   8.187 -0.0177  0.6816  0.1070
   99SAPS  H16X 9999   2.522   4.100   8.106 -0.1522  0.8029  0.0388
   99SAPS  H16Y10000   2.453   4.232   8.189 -0.8174 -0.5356  1.3087
   99SAPS  C31710001   2.572   4.089   8.312 -0.2443  0.9810 -0.2007
   99SAPS  H17X10002   2.572   4.162   8.396 -1.7338 -0.1310  0.8284
   99SAPS  H17Y10003   2.671   4.039   8.312 -1.5093 -1.7280 -0.5338
   99SAPS  C31810004   2.472   3.972   8.321  0.6617  0.9945 -0.5012
   99SAPS  H18X10005   2.483   3.928   8.422 -0.4884  2.3997  0.2741
   99SAPS  H18Y10006   2.478   3.887   8.249 -2.8495 -0.1408  0.3837
   99SAPS  H18Z10007   2.369   4.013   8.316 -0.2989 -1.1224  0.8693
  100SAPS     N10008   5.970   0.222   6.185  0.4080  0.4692 -0.2121
  100SAPS   HN110009   5.958   0.169   6.274 -0.2600 -1.1263 -1.1945
  100SAPS   HN210010   6.072   0.235   6.173  0.6203 -0.1665  0.7797
  100SAPS   HN310011   5.924   0.315   6.195  0.4927  0.2848  2.4100
  100SAPS   C1210012   5.910   0.147   6.072 -0.0142 -0.1096 -0.8494
  100SAPS  H12A10013   5.802   0.153   6.083  0.0530 -0.7003  0.2643
  100SAPS   C1310014   5.948   0.202   5.928  0.9351  0.5363  0.1645
  100SAPS  O13A10015   6.043   0.275   5.916 -0.3764 -0.9230  0.2088
  100SAPS  O13B10016   5.869   0.170   5.836 -1.1026 -0.7338 -0.5290
  100SAPS   C1110017   5.949   0.002   6.059  0.0698  0.9222 -0.0629
  100SAPS  H11A10018   6.055  -0.024   6.035 -0.3474 -1.5520  0.5105
  100SAPS  H11B10019   5.878  -0.037   5.983 -0.3210  2.5860 -0.5879
  100SAPS     P10020   5.907  -0.219   6.190  0.4361 -0.1082  0.2496
  100SAPS   O1310021   5.837  -0.265   6.068 -0.1775  0.1015 -0.3590
  100SAPS   O1410022   6.034  -0.285   6.221 -0.3314  0.1976 -0.0013
  100SAPS   O1210023   5.932  -0.059   6.189  0.1071 -0.0180  0.0502
  100SAPS   O1110024   5.807  -0.245   6.305  0.0785 -0.0134  0.3571
  100SAPS    C110025   5.788  -0.156   6.413 -0.1781 -0.2095 -0.1322
  100SAPS    HA10026   5.798  -0.046   6.399 -0.9884  0.0881  1.4248
  100SAPS    HB10027   5.682  -0.167   6.446  0.3071  1.8896  2.4621
  100SAPS    C210028   5.887  -0.187   6.535  0.0124  0.6738 -0.2160
  100SAPS    HS10029   5.985  -0.148   6.499 -0.4684  0.4651 -1.8000
  100SAPS   O2110030   5.898  -0.332   6.567  0.2308 -0.1002  0.2465
  100SAPS   C2110031   6.001  -0.360   6.641 -0.2919  0.0553  0.1110
  100SAPS   O2210032   6.106  -0.300   6.656  0.2005  0.1379  0.1823
  100SAPS   C2210033   5.986  -0.507   6.689 -0.1315 -0.2262 -0.4296
  100SAPS   H2R10034   5.875  -0.514   6.693 -0.2082  1.2367  1.7341
  100SAPS   H2S10035   6.030  -0.571   6.609 -1.5720 -0.4642 -1.0740
  100SAPS    C310036   5.840  -0.096   6.651  0.7048  0.3291 -1.0756
  100SAPS    HX10037   5.732  -0.112   6.672  0.9249 -0.8740 -0.8262
  100SAPS    HY10038   5.836   0.012   6.625 -1.3698  0.8285  0.9578
  100SAPS   O3110039   5.911  -0.114   6.779  0.6279  0.2373 -0.3138
  100SAPS   C3110040   6.028  -0.052   6.780  0.5003  0.0243  0.9016
  100SAPS   O3210041   6.054   0.040   6.703  0.1865 -0.3260 -0.9046
  100SAPS   C3210042   6.110  -0.092   6.900 -0.3574 -0.4979 -0.0824
  100SAPS   H2X10043   6.191  -0.161   6.869  1.5180  0.4042  2.4344
  100SAPS   H2Y10044   6.052  -0.143   6.979  0.4307 -1.3412 -0.0327
  100SAPS   C2310045   6.046  -0.522   6.830 -0.4863  0.2875 -0.2328
  100SAPS   H3R10046   6.021  -0.437   6.898 -2.5843 -0.4009 -0.0721
  100SAPS   H3S10047   6.156  -0.531   6.818 -0.4719 -1.4095  0.8319
  100SAPS   C2410048   5.985  -0.644   6.903  0.4367  0.0460 -0.0429
  100SAPS   H4R10049   6.001  -0.744   6.856 -0.9796 -0.2022 -0.0469
  100SAPS   H4S10050   5.878  -0.615   6.898  0.5846  0.3787 -2.8969
  100SAPS   C2510051   6.029  -0.643   7.045  0.6664 -0.1476 -0.2455
  100SAPS   H5R10052   6.003  -0.551   7.100  0.5317 -1.4028  1.8988
  100SAPS   C2610053   6.103  -0.736   7.112  0.1731  0.1205  0.6183
  100SAPS   H6R10054   6.128  -0.728   7.219 -0.0459  1.1192  0.6077
  100SAPS   C2710055   6.149  -0.873   7.056 -0.3213 -0.6108  0.4226
  100SAPS   H7R10056   6.063  -0.932   7.019  0.2446 -0.4590 -1.2373
  100SAPS   H7S10057   6.182  -0.929   7.146  2.1594  0.2498  0.1281
  100SAPS   C2810058   6.253  -0.870   6.946  0.0219  0.2107  0.3492
  100SAPS   H8R10059   6.219  -0.828   6.850 -0.9128 -2.2353 -0.4769
  100SAPS   C2910060   6.379  -0.919   6.965 -0.1816  0.4599 -1.0407
  100SAPS   H9R10061   6.449  -0.920   6.880  1.8737 -0.0465  0.5577
  100SAPS  C21010062   6.421  -0.971   7.104  0.1236  0.2642 -0.3837
  100SAPS  H10R10063   6.391  -1.078   7.109 -0.8829  0.5558  0.3865
  100SAPS  H10S10064   6.375  -0.915   7.188  3.1275  0.8629  0.9926
  100SAPS  C21110065   6.571  -0.975   7.128 -1.3671 -0.0422 -0.4722
  100SAPS  H11R10066   6.635  -0.958   7.040 -0.2470  1.1788  0.5378
  100SAPS  C21210067   6.628  -0.991   7.251  0.1196  0.1776  0.6592
  100SAPS  H12R10068   6.737  -0.990   7.262  0.5070  0.7742 -2.4062
  100SAPS  C21310069   6.546  -1.013   7.376  0.3132 -0.3697 -0.5444
  100SAPS  H13R10070   6.571  -1.116   7.411  0.5887  0.0443  0.4894
  100SAPS  H13S10071   6.436  -1.014   7.361  0.1400  0.9687  0.5468
  100SAPS  C21410072   6.590  -0.922   7.491  0.6322 -0.3580 -0.1990
  100SAPS  H14R10073   6.695  -0.948   7.513  0.3270 -1.7624 -0.2677
  100SAPS  C21510074   6.507  -0.857   7.577 -0.3286  0.8501 -0.6055
  100SAPS  H15R10075   6.540  -0.808   7.669  2.2298 -0.3676 -0.8016
  100SAPS  C21610076   6.360  -0.863   7.573 -0.4616 -0.2887  0.1386
  100SAPS  H16R10077   6.330  -0.862   7.680  3.8808  0.7971  1.5193
  100SAPS  H16S10078   6.318  -0.951   7.519 -0.9694 -0.2255  0.4166
  100SAPS  C21710079   6.289  -0.735   7.504 -0.5018  0.5295 -0.2689
  100SAPS  H17R10080   6.178  -0.747   7.504 -0.5009  0.4920 -0.6106
  100SAPS  H17S10081   6.329  -0.745   7.401  2.3936 -4.4225  1.0036
  100SAPS  C21810082   6.323  -0.595   7.562  0.0467  0.0871 -0.0596
  100SAPS  H18R10083   6.421  -0.561   7.523  0.9150 -0.6553  1.3737
  100SAPS  H18S10084   6.320  -0.588   7.673  0.3962 -1.9509  0.1120
  100SAPS  C21910085   6.223  -0.489   7.513 -0.3686  0.3615  0.2197
  100SAPS  H19R10086   6.227  -0.470   7.404  2.3976 -0.1668  0.1688
  100SAPS  H19S10087   6.269  -0.398   7.556  0.0214  0.9659 -1.4213
  100SAPS  C22010088   6.077  -0.510   7.563 -0.0479  0.3187 -0.8730
  100SAPS  H20R10089   6.081  -0.544   7.669 -1.5492  1.1986 -0.5126
  100SAPS  H20S10090   6.031  -0.589   7.501  0.6297 -0.1522 -0.7901
  100SAPS  H20T10091   6.010  -0.422   7.559  1.0217  1.1628 -0.8627
  100SAPS   C3310092   6.162   0.036   6.973 -0.9585  0.2786 -0.6699
  100SAPS   H3X10093   6.078   0.107   6.992  0.0079  1.3404 -0.2575
  100SAPS   H3Y10094   6.234   0.093   6.912 -1.7876  0.7498 -1.2330
  100SAPS   C3410095   6.234   0.000   7.110  0.1785 -0.2999  0.7733
  100SAPS   H4X10096   6.288   0.095   7.133  1.5504 -0.3261 -1.8893
  100SAPS   H4Y10097   6.297  -0.087   7.083  1.5730  1.0819 -0.6981
  100SAPS   C3510098   6.140  -0.032   7.225  0.5286  0.1012 -0.9605
  100SAPS   H5X10099   6.073  -0.120   7.221 -0.8250  0.9675  1.0978
  100SAPS   H5Y10100   6.078   0.056   7.251 -0.1043 -0.8903  1.0597
  100SAPS   C3610101   6.217  -0.062   7.353 -0.9457  0.4015 -0.3220
  100SAPS   H6X10102   6.298   0.012   7.371 -0.4821 -0.2316  0.2656
  100SAPS   H6Y10103   6.274  -0.155   7.331  0.0289  0.8967  0.0438
  100SAPS   C3710104   6.141  -0.092   7.482 -0.0476 -0.3590  0.8286
  100SAPS   H7X10105   6.072  -0.179   7.470 -1.0048  0.7102 -2.3054
  100SAPS   H7Y10106   6.068  -0.011   7.500 -0.6522 -0.3996 -1.1705
  100SAPS   C3810107   6.226  -0.097   7.607 -0.6273 -0.1560 -0.7799
  100SAPS   H8X10108   6.272   0.000   7.633 -1.8065  0.6016 -1.4332
  100SAPS   H8Y10109   6.300  -0.180   7.600 -1.8773 -1.1798 -3.9697
  100SAPS   C3910110   6.144  -0.147   7.734  0.3711 -0.8527 -0.5586
  100SAPS   H9X10111   6.215  -0.168   7.817 -0.1183  1.0359  0.3986
  100SAPS   H9Y10112   6.086  -0.238   7.706 -0.1176 -1.1290  1.2238
  100SAPS  C31010113   6.055  -0.029   7.779 -0.2875  0.0748 -0.3993
  100SAPS  H10X10114   5.970  -0.035   7.708 -0.9573 -0.6883  0.4397
  100SAPS  H10Y10115   6.107   0.067   7.758 -0.9518  0.5843  0.2307
  100SAPS  C31110116   6.011  -0.037   7.923 -0.0228  0.4408  0.1725
  100SAPS  H11X10117   6.082  -0.017   8.007 -0.1495  2.7314 -0.2019
  100SAPS  H11Y10118   5.969  -0.139   7.940  0.3788  0.3806  0.8675
  100SAPS  C31210119   5.886   0.060   7.953 -0.0388  0.5312  0.3020
  100SAPS  H12X10120   5.812   0.033   7.875 -0.2929 -0.3884  0.8468
  100SAPS  H12Y10121   5.924   0.164   7.942  3.3339 -0.3752  1.9143
  100SAPS  C31310122   5.831   0.042   8.094 -0.1963 -0.2766  0.7601
  100SAPS  H13X10123   5.847  -0.065   8.117  1.9459 -0.5823 -1.6911
  100SAPS  H13Y10124   5.726   0.079   8.096 -0.4683 -1.0714  1.5620
  100SAPS  C31410125   5.922   0.123   8.194  0.0766 -0.1967 -0.2723
  100SAPS  H14X10126   5.936   0.229   8.165  2.6364 -0.3955  0.0037
  100SAPS  H14Y10127   6.028   0.090   8.199  0.6851  1.7664  0.5780
  100SAPS  C31510128   5.860   0.138   8.337  0.4181  0.4899 -0.5668
  100SAPS  H15X10129   5.847   0.044   8.395 -1.1385  2.0937  1.8287
  100SAPS  H15Y10130   5.756   0.176   8.329  0.3510  0.6371  0.7597
  100SAPS  C31610131   5.936   0.234   8.423  0.2350 -0.0244  0.0605
  100SAPS  H16X10132   5.918   0.337   8.384 -1.4084  0.1262  1.1131
  100SAPS  H16Y10133   6.045   0.215   8.417  0.2686 -0.7924  2.4129
  100SAPS  C31710134   5.916   0.238   8.580 -0.3185  0.1699 -0.1180
  100SAPS  H17X10135   5.806   0.239   8.591 -0.3188  2.1903  0.1110
  100SAPS  H17Y10136   5.953   0.333   8.625  1.8216 -0.7043  0.1152
  100SAPS  C31810137   5.971   0.111   8.645 -0.6958 -0.4802 -0.5059
  100SAPS  H18X10138   5.954   0.119   8.755 -3.3931  1.2771 -0.9550
  100SAPS  H18Y10139   6.078   0.093   8.622  0.3278  2.4453  1.4423
  100SAPS  H18Z10140   5.912   0.024   8.610  0.8026 -1.1770 -1.3663
  101OSM      N10141   4.019   6.214  10.681 -0.2917 -0.4828 -0.0006
  101OSM    C1510142   4.155   6.216  10.636 -0.5986 -1.2014  0.4249
  101OSM   H15A10143   4.229   6.212  10.715 -0.7347  1.7917  0.8043
  101OSM   H15B10144   4.176   6.311  10.589 -1.8121 -0.2268  1.7845
  101OSM   H15C10145   4.175   6.136  10.565 -0.7540  0.0742 -1.1151
  101OSM    C1410146   3.928   6.233  10.568 -0.5454 -0.6364 -0.1863
  101OSM   H14A10147   3.966   6.191  10.475  1.8094 -0.1922  0.5147
  101OSM   H14B10148   3.906   6.337  10.552 -0.1453 -0.4285  0.5721
  101OSM   H14C10149   3.831   6.197  10.597 -0.0186 -1.0539  1.1474
  101OSM    C1310150   3.998   6.077  10.735 -0.6531  0.2425 -0.3816
  101OSM   H13A10151   4.025   6.005  10.660 -0.2421 -0.4075  0.3748
  101OSM   H13B10152   3.893   6.063  10.754 -0.7083  2.9350  2.0640
  101OSM   H13C10153   4.051   6.048  10.825 -1.2892 -0.1113 -0.1148
  101OSM    C1210154   3.992   6.321  10.790 -0.7345  0.4047  0.4263
  101OSM   H12A10155   4.059   6.310  10.874  0.7023  3.2417 -0.2418
  101OSM   H12B10156   3.890   6.303  10.819 -0.9737 -1.4367 -1.3469
  101OSM    C1110157   4.021   6.472  10.765  0.6613 -0.3156  0.0945
  101OSM   H11A10158   3.996   6.518  10.863 -1.6063 -2.4532  0.6516
  101OSM   H11B10159   3.951   6.503  10.684 -1.0484 -2.3615  0.6974
  101OSM      P10160   4.197   6.632  10.665  0.1322 -0.2313 -0.0744
  101OSM    O1310161   4.189   6.736  10.767 -0.3761  0.2153  0.1333
  101OSM    O1410162   4.330   6.608  10.607  0.4929  0.0995  0.4434
  101OSM    O1110163   4.098   6.654  10.549  0.1563  0.0074  0.3479
  101OSM    O1210164   4.153   6.494  10.724  0.3068 -0.2691 -0.1578
  101OSM    C1S10165   4.096   6.771  10.470 -0.0864 -0.9824  0.2003
  101OSM    H1S10166   4.142   6.858  10.520  2.3153 -1.4856 -1.0002
  101OSM    H1T10167   3.990   6.802  10.462 -0.1361 -0.6408  1.9604
  101OSM     NF10168   4.175   6.894  10.273  0.4013 -0.8261 -0.2163
  101OSM    HNF10169   4.090   6.918  10.228  0.0241  0.3589  1.0519
  101OSM    C2S10170   4.172   6.763  10.329  0.2118  0.1355  0.1856
  101OSM    H2S10171   4.277   6.734  10.351  0.6936  1.8565  0.3051
  101OSM    C3S10172   4.101   6.661  10.236 -0.4702 -0.0375  0.3334
  101OSM    H3S10173   4.000   6.708  10.225 -0.8525 -0.8689  0.2215
  101OSM     O310174   4.084   6.531  10.294  0.2832  0.8528 -0.1868
  101OSM    HO310175   4.100   6.541  10.388  1.2340 -0.7246 -0.1546
  101OSM    C4S10176   4.163   6.645  10.096  0.2530 -0.1986 -0.0710
  101OSM    H4S10177   4.258   6.590  10.101 -0.8219 -2.2163 -0.4348
  101OSM    C5S10178   4.117   6.663   9.973  0.6918 -0.8629  0.0052
  101OSM    H5S10179   4.017   6.706   9.960  1.1982  1.2662  2.3757
  101OSM    C6S10180   4.200   6.641   9.852 -0.0549  0.1233  0.1468
  101OSM    H6S10181   4.142   6.580   9.779 -0.6324  2.5203 -1.5274
  101OSM    H6T10182   4.286   6.575   9.877 -0.3746 -1.0886 -1.7563
  101OSM    C7S10183   4.235   6.766   9.766  0.1251  0.2513  0.2392
  101OSM    H7S10184   4.318   6.753   9.694 -0.1159  0.8515 -0.1511
  101OSM    H7T10185   4.273   6.842   9.837 -0.6725  0.1175  0.8284
  101OSM    C8S10186   4.109   6.825   9.698 -0.0843  0.5004  0.3507
  101OSM    H8S10187   4.148   6.920   9.656 -1.0216  1.3999  1.4452
  101OSM    H8T10188   4.028   6.840   9.772 -0.4228 -2.2775  0.6432
  101OSM    C9S10189   4.052   6.732   9.584  0.2270 -0.5645 -0.3126
  101OSM    H9S10190   3.967   6.776   9.528 -0.7859 -1.3026  0.6059
  101OSM    H9T10191   4.020   6.632   9.620  2.5143  0.1390  4.4232
  101OSM   C10S10192   4.164   6.699   9.484  0.1145 -0.0920 -0.8793
  101OSM   H10S10193   4.213   6.612   9.534 -0.2848  0.5699  0.7022
  101OSM   H10T10194   4.240   6.779   9.472 -0.0482 -0.1256 -2.3415
  101OSM   C11S10195   4.121   6.656   9.344 -0.0143 -0.3157 -1.2902
  101OSM   H11S10196   4.048   6.733   9.310 -0.8619 -0.5056  0.0287
  101OSM   H11T10197   4.074   6.557   9.364  0.8113 -0.9305 -2.2753
  101OSM   C12S10198   4.233   6.620   9.255  0.4216 -0.6643  0.5357
  101OSM   H12S10199   4.288   6.535   9.301  0.7422 -0.9828 -0.4133
  101OSM   H12T10200   4.307   6.699   9.229 -0.1129 -0.9689 -2.2434
  101OSM   C13S10201   4.193   6.581   9.112  0.0717  0.1944  0.2218
  101OSM   H13S10202   4.099   6.523   9.106  0.8319 -1.1045  0.6083
  101OSM   H13T10203   4.263   6.510   9.063 -1.3563 -1.6348  0.7457
  101OSM   C14S10204   4.185   6.699   9.008 -0.1810 -0.1618 -0.3517
  101OSM   H14S10205   4.287   6.741   8.996 -0.8932  1.7876  0.0460
  101OSM   H14T10206   4.114   6.773   9.052 -0.6325 -2.4058  3.0444
  101OSM   C15S10207   4.135   6.660   8.862  0.1610  0.0884 -0.7060
  101OSM   H15S10208   4.033   6.616   8.870  0.4699 -0.5015  0.2379
  101OSM   H15T10209   4.193   6.566   8.850  0.2326 -0.0083  0.2704
  101OSM   C16S10210   4.168   6.769   8.760  0.7626  0.0402  0.1942
  101OSM   H16S10211   4.186   6.723   8.660  1.3635 -0.1247  0.3712
  101OSM   H16T10212   4.265   6.817   8.786  0.1540  0.9634  0.8059
  101OSM   C17S10213   4.050   6.861   8.753  0.0700  0.3079 -0.6198
  101OSM   H17S10214   4.019   6.889   8.856  0.2195  0.1940 -0.5443
  101OSM   H17T10215   3.959   6.810   8.713 -0.1642  0.5892 -0.4507
  101OSM   C18S10216   4.080   6.984   8.655 -0.2225 -0.0919 -0.3666
  101OSM   H18S10217   3.983   7.036   8.639 -0.9461 -1.3716 -0.2877
  101OSM   H18T10218   4.116   6.948   8.556  0.1237  1.7734 -0.9533
  101OSM   H18U10219   4.157   7.051   8.698  0.4779 -1.4122  0.4896
  101OSM    C1F10220   4.259   6.988  10.328 -0.1782 -0.2818 -0.2236
  101OSM     OF10221   4.355   6.959  10.393 -0.3228 -0.3438 -0.1707
  101OSM    C2F10222   4.233   7.130  10.278 -0.0494  1.0154 -0.2335
  101OSM    H2F10223   4.240   7.206  10.359  0.7417 -0.8560  1.5466
  101OSM    H2G10224   4.129   7.141  10.242  0.0862 -0.9376 -1.3382
  101OSM    C3F10225   4.343   7.173  10.170 -0.4070  0.5262  0.5306
  101OSM    H3F10226   4.346   7.093  10.093 -2.7937  0.8426  0.0309
  101OSM    H3G10227   4.446   7.170  10.211  0.0760 -1.3106 -0.7049
  101OSM    C4F10228   4.309   7.306  10.101 -0.2794 -0.7146  0.6373
  101OSM    H4F10229   4.293   7.374  10.187  1.2183  0.1692  0.2499
  101OSM    H4G10230   4.216   7.292  10.041 -1.3346  2.2341  1.4226
  101OSM    C5F10231   4.428   7.361  10.018  0.6254 -0.4226  0.1123
  101OSM    H5F10232   4.453   7.278   9.949 -0.3095 -2.5216  2.1572
  101OSM    H5G10233   4.511   7.382  10.089 -1.4087 -1.3694  2.9572
  101OSM    C6F10234   4.396   7.488   9.941 -0.0669  0.2523  0.1485
  101OSM    H6F10235   4.385   7.572  10.013  2.1700  0.2725  0.5365
  101OSM    H6G10236   4.304   7.485   9.879  0.0156  0.7499 -0.0015
  101OSM    C7F10237   4.515   7.541   9.859 -0.3215  0.5616  0.0297
  101OSM    H7F10238   4.605   7.525   9.923  0.0406  2.6250  0.0967
  101OSM    H7G10239   4.504   7.651   9.854 -0.0155  0.6606  1.1445
  101OSM    C8F10240   4.534   7.484   9.725 -0.0302  0.1162 -0.6199
  101OSM    H8F10241   4.437   7.438   9.696  0.3575 -0.3914 -1.1406
  101OSM    H8G10242   4.611   7.405   9.739 -0.3682 -0.1139 -0.0132
  101OSM    C9F10243   4.586   7.576   9.627  0.0074 -0.5378  0.2198
  101OSM    H9F10244   4.683   7.620   9.652  0.1346 -0.3244 -0.6263
  101OSM   C10F10245   4.528   7.613   9.507 -0.3616  0.0487  0.5525
  101OSM   H10F10246   4.585   7.680   9.442 -0.3633 -0.4207  0.0586
  101OSM   C11F10247   4.401   7.562   9.445  0.6999  0.1883 -0.1505
  101OSM   H11F10248   4.370   7.635   9.367  0.2213 -0.8335 -0.9257
  101OSM   H11G10249   4.323   7.545   9.522 -0.6315 -0.2166 -1.5335
  101OSM   C12F10250   4.418   7.421   9.373 -0.6695 -0.1494 -0.6830
  101OSM   H12F10251   4.316   7.393   9.338 -0.5918 -0.5804 -0.5745
  101OSM   H12G10252   4.445   7.350   9.454 -1.8024 -2.1151 -1.9430
  101OSM   C13F10253   4.513   7.421   9.254  0.2483 -0.0128  0.2463
  101OSM   H13F10254   4.501   7.324   9.201  2.1801  0.1383 -0.5308
  101OSM   H13G10255   4.618   7.420   9.289  0.5024 -0.3281 -0.5072
  101OSM   C14F10256   4.503   7.523   9.132 -0.1216 -0.2232 -0.5002
  101OSM   H14F10257   4.600   7.514   9.080  0.6437  0.7062  0.7112
  101OSM   H14G10258   4.500   7.627   9.171 -1.4312 -0.7178  0.8378
  101OSM   C15F10259   4.388   7.513   9.033 -0.0421  0.3480  0.4299
  101OSM   H15F10260   4.288   7.501   9.081 -0.6568 -1.3201 -1.1616
  101OSM   H15G10261   4.394   7.417   8.978  1.4546  0.2048  0.8114
  101OSM   C16F10262   4.376   7.630   8.929 -0.0861  0.9980 -0.3218
  101OSM   H16F10263   4.319   7.716   8.969 -2.4884 -0.8448  0.4151
  101OSM   H16G10264   4.296   7.588   8.864 -0.5749 -0.8954  1.4160
  101OSM   C17F10265   4.497   7.675   8.850 -0.6448  0.0378  0.3057
  101OSM   H17F10266   4.556   7.588   8.813  0.1586  1.5103 -2.0434
  101OSM   H17G10267   4.559   7.732   8.923  1.9616 -1.9679 -0.1655
  101OSM   C18F10268   4.477   7.779   8.740  0.0399  0.4036  0.4085
  101OSM   H18F10269   4.451   7.876   8.788  2.9313  0.3757  2.2894
  101OSM   H18G10270   4.391   7.748   8.677  0.6161 -0.3813 -0.0057
  101OSM   H18H10271   4.563   7.800   8.673  0.7940 -0.3363  1.1314
  102OSM      N10272   3.840   0.108  10.848  0.0456 -0.3808  0.3311
  102OSM    C1510273   3.698   0.105  10.879  1.5838  0.5861  0.0790
  102OSM   H15A10274   3.671   0.139  10.978  0.2051 -2.2349  0.7943
  102OSM   H15B10275   3.647   0.010  10.884 -0.4052  1.4940 -1.7959
  102OSM   H15C10276   3.638   0.164  10.812 -0.3661 -0.9807  0.3615
  102OSM    C1410277   3.895   0.248  10.884  0.1844 -0.1466 -0.0288
  102OSM   H14A10278   3.861   0.322  10.814  2.3857 -0.5656 -1.6402
  102OSM   H14B10279   4.002   0.249  10.872  0.2283  1.1979  0.3703
  102OSM   H14C10280   3.874   0.271  10.988  0.1126 -1.6575  0.3242
  102OSM    C1310281   3.926   0.014  10.926  0.5007  0.0463 -0.1866
  102OSM   H13A10282   4.032   0.032  10.921  0.4210  0.8349  0.7601
  102OSM   H13B10283   3.890  -0.086  10.903  1.7872  0.2797 -3.9955
  102OSM   H13C10284   3.904   0.039  11.028  1.2596  0.2735 -0.0745
  102OSM    C1210285   3.855   0.080  10.695  0.3610  0.1915 -0.1767
  102OSM   H12A10286   3.834  -0.024  10.673  1.5269  0.5859 -3.6847
  102OSM   H12B10287   3.958   0.085  10.666 -0.0365  0.7983 -1.5863
  102OSM    C1110288   3.770   0.168  10.601  0.1868  0.2143 -0.3485
  102OSM   H11A10289   3.663   0.145  10.622  0.3973 -1.4479 -0.9361
  102OSM   H11B10290   3.792   0.132  10.498 -0.3130  0.5197 -0.5628
  102OSM      P10291   3.921   0.374  10.555  0.2496  0.4239  0.1123
  102OSM    O1310292   3.910   0.520  10.573  0.6852 -0.0533  0.0544
  102OSM    O1410293   4.048   0.326  10.612  0.1813  0.0414 -0.1370
  102OSM    O1110294   3.905   0.336  10.400 -0.0394  0.1068 -0.1061
  102OSM    O1210295   3.793   0.308  10.628 -0.6070 -0.3346 -0.5380
  102OSM    C1S10296   3.787   0.389  10.336  0.1653  0.5620  0.4940
  102OSM    H1S10297   3.754   0.482  10.387  0.1330  0.0696  1.4059
  102OSM    H1T10298   3.700   0.320  10.336  0.7332 -0.1845 -1.0975
  102OSM     NF10299   3.722   0.487  10.112  0.1936 -0.1014  0.7407
  102OSM    HNF10300   3.663   0.451  10.041  0.3620 -0.2637  0.6823
  102OSM    C2S10301   3.820   0.397  10.185 -0.5091 -0.4204 -0.2946
  102OSM    H2S10302   3.921   0.441  10.174 -1.0754  1.5375  1.5128
  102OSM    C3S10303   3.829   0.255  10.130 -0.1929 -0.0743  0.2777
  102OSM    H3S10304   3.730   0.207  10.140 -0.1191 -0.5961 -1.3038
  102OSM     O310305   3.931   0.173  10.188 -0.2098 -0.4688  0.4565
  102OSM    HO310306   3.956   0.219  10.269  0.4758  0.1146 -0.0692
  102OSM    C4S10307   3.859   0.257   9.980 -0.0676 -0.1080 -0.0796
  102OSM    H4S10308   3.964   0.286   9.966 -0.1143  0.3816  0.5302
  102OSM    C5S10309   3.778   0.242   9.873  0.0664  0.2060  0.0369
  102OSM    H5S10310   3.671   0.218   9.874 -0.1547  1.1705  0.2949
  102OSM    C6S10311   3.835   0.264   9.732  0.6790 -0.5772  0.2698
  102OSM    H6S10312   3.792   0.183   9.670 -1.1601  0.3607  0.2692
  102OSM    H6T10313   3.946   0.253   9.725  0.4487 -2.2209 -1.9102
  102OSM    C7S10314   3.804   0.405   9.672 -0.3417 -0.1875 -0.7990
  102OSM    H7S10315   3.863   0.483   9.726 -0.8148 -0.1024 -0.3949
  102OSM    H7T10316   3.697   0.425   9.689 -1.0208 -2.9011 -1.4132
  102OSM    C8S10317   3.837   0.419   9.527 -0.0130  1.1564  0.3409
  102OSM    H8S10318   3.759   0.355   9.482  0.8920  0.2336  0.0467
  102OSM    H8T10319   3.932   0.378   9.488  0.0122  1.9584 -0.4737
  102OSM    C9S10320   3.814   0.560   9.484  0.1432 -0.4995  0.3844
  102OSM    H9S10321   3.888   0.631   9.526 -1.6267  0.0509  2.7863
  102OSM    H9T10322   3.720   0.607   9.519  0.4364 -0.5668  1.2854
  102OSM   C10S10323   3.813   0.575   9.327 -0.4455  0.2654 -0.0677
  102OSM   H10S10324   3.899   0.522   9.282  1.4628  1.6883  1.6691
  102OSM   H10T10325   3.840   0.681   9.306  1.0871 -0.2131 -0.7006
  102OSM   C11S10326   3.680   0.535   9.252 -0.5313  0.3862 -0.6652
  102OSM   H11S10327   3.597   0.587   9.304  0.6574  0.6398  1.0792
  102OSM   H11T10328   3.661   0.427   9.265 -0.4711  0.5628  1.1900
  102OSM   C12S10329   3.688   0.595   9.113 -0.6183 -0.2601 -0.6530
  102OSM   H12S10330   3.779   0.558   9.061  0.0552 -2.0219  1.6457
  102OSM   H12T10331   3.696   0.704   9.136 -0.7435 -0.3843 -0.0178
  102OSM   C13S10332   3.563   0.572   9.024  0.1296 -0.4102  0.1676
  102OSM   H13S10333   3.476   0.620   9.074  1.6135  3.1482 -0.3771
  102OSM   H13T10334   3.538   0.466   9.004 -1.2195 -0.2431  0.8648
  102OSM   C14S10335   3.567   0.635   8.884 -0.2247  0.8005 -0.2712
  102OSM   H14S10336   3.641   0.582   8.819 -2.0934 -0.1974 -1.6774
  102OSM   H14T10337   3.584   0.745   8.885 -0.3926  0.8257 -0.1949
  102OSM   C15S10338   3.432   0.638   8.812  0.2470  0.5778 -0.2251
  102OSM   H15S10339   3.352   0.669   8.882 -0.6868  1.2954 -1.5758
  102OSM   H15T10340   3.411   0.532   8.784 -1.2982  0.7550  0.1697
  102OSM   C16S10341   3.419   0.718   8.681  0.1300  0.5791 -0.1280
  102OSM   H16S10342   3.429   0.823   8.717 -1.9248  0.1153  2.0935
  102OSM   H16T10343   3.319   0.698   8.638  0.6459 -1.3708 -0.5225
  102OSM   C17S10344   3.528   0.692   8.578 -0.4590  0.1759 -0.2508
  102OSM   H17S10345   3.529   0.590   8.536 -0.0715  0.2744 -0.4858
  102OSM   H17T10346   3.624   0.718   8.628 -1.0969 -0.2166  1.2253
  102OSM   C18S10347   3.500   0.774   8.451  0.0342 -0.4449 -0.7892
  102OSM   H18S10348   3.574   0.773   8.368 -0.0514 -2.2576 -0.8808
  102OSM   H18T10349   3.477   0.878   8.482  0.2080 -0.9303  1.0414
  102OSM   H18U10350   3.398   0.750   8.412 -0.5559  0.3205  0.2457
  102OSM    C1F10351   3.687   0.615  10.157 -0.5378 -0.4321 -0.4756
  102OSM     OF10352   3.765   0.685  10.225 -0.7081 -0.6892 -0.2017
  102OSM    C2F10353   3.569   0.674  10.099  0.4788  0.2862 -0.6349
  102OSM    H2F10354   3.537   0.765  10.154  3.3287  4.3847 -4.9796
  102OSM    H2G10355   3.476   0.613  10.105  0.1641  0.7909 -0.2410
  102OSM    C3F10356   3.594   0.722   9.960 -0.8780  0.5163  0.3732
  102OSM    H3F10357   3.653   0.650   9.899  0.8238  1.6532  0.5864
  102OSM    H3G10358   3.658   0.813   9.957  1.4783 -1.0701 -2.1427
  102OSM    C4F10359   3.464   0.753   9.885  0.2679 -0.4660  0.3513
  102OSM    H4F10360   3.413   0.825   9.953 -1.3504  0.3964 -1.6557
  102OSM    H4G10361   3.400   0.662   9.882 -1.5299  0.7464  0.3149
  102OSM    C5F10362   3.489   0.790   9.742  0.1477 -0.3851 -0.8159
  102OSM    H5F10363   3.565   0.724   9.694  0.9759 -0.6892  0.8488
  102OSM    H5G10364   3.536   0.890   9.743 -0.1901 -0.2107 -1.4406
  102OSM    C6F10365   3.355   0.810   9.666 -0.5588 -0.4436  0.2374
  102OSM    H6F10366   3.297   0.877   9.733  0.9868  0.6916  0.4897
  102OSM    H6G10367   3.294   0.719   9.646 -0.9531 -0.2432  0.4907
  102OSM    C7F10368   3.373   0.875   9.519  0.1223  0.2752 -0.2783
  102OSM    H7F10369   3.431   0.797   9.466 -0.5418 -1.7833  1.8352
  102OSM    H7G10370   3.429   0.969   9.540  2.3674 -0.9354 -0.5300
  102OSM    C8F10371   3.250   0.896   9.424 -1.6040  0.1473 -0.3685
  102OSM    H8F10372   3.203   0.796   9.423 -0.2886 -0.5047 -1.7748
  102OSM    H8G10373   3.272   0.914   9.317  0.2944 -1.5732 -0.3302
  102OSM    C9F10374   3.153   1.005   9.466 -0.6133 -0.6038 -0.5078
  102OSM    H9F10375   3.090   0.984   9.554 -0.3167  2.1778  0.4458
  102OSM   C10F10376   3.158   1.131   9.416  0.3379  0.0933  0.7578
  102OSM   H10F10377   3.095   1.210   9.460  0.9831  0.0540  1.7895
  102OSM   C11F10378   3.244   1.174   9.301  0.2725 -0.3282  0.4011
  102OSM   H11F10379   3.286   1.094   9.236  0.6118 -1.8556  2.4132
  102OSM   H11G10380   3.337   1.218   9.343  1.4604 -1.9453 -0.3932
  102OSM   C12F10381   3.177   1.269   9.203  0.0652 -0.0147 -0.7929
  102OSM   H12F10382   3.144   1.362   9.254 -1.0704 -0.7166 -0.2061
  102OSM   H12G10383   3.079   1.233   9.165 -0.5026  2.1771 -1.6085
  102OSM   C13F10384   3.254   1.298   9.082  0.0812 -0.0144  0.1754
  102OSM   H13F10385   3.257   1.206   9.019 -0.5251 -1.4458  2.1425
  102OSM   H13G10386   3.361   1.322   9.099  0.2095  0.1529 -0.7938
  102OSM   C14F10387   3.214   1.421   9.004  0.6117 -0.3362  0.5397
  102OSM   H14F10388   3.203   1.508   9.072  1.5844 -0.0843  0.3912
  102OSM   H14G10389   3.118   1.413   8.948  0.3907  3.9749  0.0045
  102OSM   C15F10390   3.319   1.464   8.898 -0.3300  0.0708 -0.7897
  102OSM   H15F10391   3.381   1.375   8.874  1.0057  0.8296 -0.2895
  102OSM   H15G10392   3.392   1.534   8.945 -0.1142 -0.0128 -0.9966
  102OSM   C16F10393   3.248   1.532   8.780 -0.1314 -0.0448  0.0092
  102OSM   H16F10394   3.194   1.622   8.816 -0.0648  0.0447 -0.1144
  102OSM   H16G10395   3.174   1.458   8.743 -0.4442  0.2625  0.0150
  102OSM   C17F10396   3.342   1.582   8.667 -0.2148  0.7937 -0.3431
  102OSM   H17F10397   3.395   1.494   8.624  2.2571  0.9273  2.1679
  102OSM   H17G10398   3.407   1.657   8.718 -0.6194  0.2469  1.0279
  102OSM   C18F10399   3.274   1.662   8.554 -0.3983  0.5244  0.2232
  102OSM   H18F10400   3.239   1.764   8.582  0.7885  0.7772  0.8185
  102OSM   H18G10401   3.182   1.604   8.531 -1.3780  1.0925  2.4382
  102OSM   H18H10402   3.323   1.661   8.454 -1.5791 -1.3040 -0.3934
  103OSM      N10403   2.873   3.590  11.003  0.3041 -0.6878  0.0835
  103OSM    C1510404   2.731   3.559  10.957  0.4598  0.1896  0.5041
  103OSM   H15A10405   2.659   3.588  11.032 -1.2007  1.3799 -1.4688
  103OSM   H15B10406   2.716   3.453  10.944  0.4807  0.4016 -1.4440
  103OSM   H15C10407   2.723   3.595  10.856 -0.0261  0.4864  0.6478
  103OSM    C1410408   2.905   3.724  10.947  0.0071  0.0320 -0.2735
  103OSM   H14A10409   3.009   3.748  10.962  0.2707 -0.3794 -1.3906
  103OSM   H14B10410   2.840   3.796  10.995 -0.6939 -1.4584  1.0951
  103OSM   H14C10411   2.899   3.717  10.839 -2.4609  0.1814 -0.2129
  103OSM    C1310412   2.884   3.587  11.151 -0.0997  0.0516 -0.1533
  103OSM   H13A10413   2.983   3.623  11.177  0.2011 -1.2974  0.6664
  103OSM   H13B10414   2.862   3.491  11.195  0.9675  1.0271  2.7500
  103OSM   H13C10415   2.817   3.660  11.194  1.7397  1.9934 -0.4196
  103OSM    C1210416   2.982   3.503  10.940 -0.1634  0.0580  0.5714
  103OSM   H12A10417   3.079   3.534  10.977  0.8094 -2.7695  0.6334
  103OSM   H12B10418   2.979   3.519  10.834 -0.7620  3.2207  0.9577
  103OSM    C1110419   2.966   3.351  10.959  0.2829 -0.2036  0.1465
  103OSM   H11A10420   2.942   3.340  11.067 -1.9259  0.4520 -0.2358
  103OSM   H11B10421   3.058   3.288  10.959 -0.5529 -1.4792 -1.3746
  103OSM      P10422   2.858   3.297  10.719 -0.0345 -0.1179 -0.0392
  103OSM    O1310423   2.732   3.240  10.673 -0.0194 -0.3626 -0.9203
  103OSM    O1410424   2.899   3.423  10.656  0.1008  0.4505 -0.2144
  103OSM    O1110425   2.974   3.188  10.702  0.7284  0.3384  0.3386
  103OSM    O1210426   2.856   3.306  10.881 -0.2259 -0.1888 -0.1376
  103OSM    C1S10427   2.975   3.128  10.569 -0.5116  0.5910  0.1504
  103OSM    H1S10428   2.989   3.206  10.492  2.7936  0.0491  0.0661
  103OSM    H1T10429   2.886   3.064  10.550 -0.0911 -0.4832  1.6220
  103OSM     NF10430   3.104   2.995  10.415 -0.3838 -0.3684  0.1524
  103OSM    HNF10431   3.080   2.901  10.392  0.3557 -1.1886  2.4226
  103OSM    C2S10432   3.101   3.042  10.555  0.5502 -0.1381  0.6948
  103OSM    H2S10433   3.180   3.120  10.563 -0.2156  0.5112  2.3377
  103OSM    C3S10434   3.124   2.930  10.652 -0.1600  0.2522 -0.8417
  103OSM    H3S10435   3.037   2.863  10.635  1.9806 -2.3979 -2.1519
  103OSM     O310436   3.117   2.966  10.793 -0.2059  0.2591 -0.0759
  103OSM    HO310437   3.074   3.051  10.798 -0.3672  0.1218  1.0989
  103OSM    C4S10438   3.242   2.846  10.617 -0.2521 -0.2305  0.3078
  103OSM    H4S10439   3.224   2.782  10.529  2.1180 -1.0174  0.3322
  103OSM    C5S10440   3.364   2.827  10.671 -0.5098  0.3929  0.4368
  103OSM    H5S10441   3.396   2.880  10.762 -0.9242  0.3212  0.6260
  103OSM    C6S10442   3.470   2.732  10.615  0.1850 -0.1300 -0.6568
  103OSM    H6S10443   3.490   2.661  10.698  0.6591  0.1228 -0.5504
  103OSM    H6T10444   3.565   2.788  10.628 -1.2738  1.9167  2.7120
  103OSM    C7S10445   3.466   2.671  10.477 -0.1624  0.1453 -0.2346
  103OSM    H7S10446   3.370   2.621  10.454 -1.0123  1.7524 -0.3508
  103OSM    H7T10447   3.544   2.592  10.472  1.4125  1.6902 -1.4049
  103OSM    C8S10448   3.497   2.776  10.372 -0.1491  0.3187 -0.1204
  103OSM    H8S10449   3.603   2.803  10.393 -0.3520 -0.4280  2.1574
  103OSM    H8T10450   3.444   2.872  10.386  2.3944  1.6135  1.4270
  103OSM    C9S10451   3.478   2.719  10.234  0.7885 -0.4447 -0.1853
  103OSM    H9S10452   3.378   2.674  10.215  0.3810  0.4345 -0.1696
  103OSM    H9T10453   3.563   2.647  10.228  1.3525  0.1997 -0.0136
  103OSM   C10S10454   3.507   2.819  10.121  0.3361  0.6513  0.5648
  103OSM   H10S10455   3.596   2.880  10.148 -0.2668  1.3258  1.0705
  103OSM   H10T10456   3.418   2.884  10.108 -0.1470  0.1915  1.4833
  103OSM   C11S10457   3.522   2.754   9.976  0.4326 -0.5151  0.3777
  103OSM   H11S10458   3.427   2.716   9.932  1.3741 -1.4334 -0.9524
  103OSM   H11T10459   3.603   2.678   9.968  0.4605 -0.8770  3.2003
  103OSM   C12S10460   3.566   2.870   9.895 -0.6602 -1.0134  0.2154
  103OSM   H12S10461   3.654   2.908   9.951 -1.4230  1.3620 -0.0911
  103OSM   H12T10462   3.488   2.949   9.901  0.0381 -0.1612 -1.2138
  103OSM   C13S10463   3.574   2.842   9.745  0.4976  0.1077 -0.6705
  103OSM   H13S10464   3.573   2.942   9.697  2.2344  0.1303 -0.7375
  103OSM   H13T10465   3.484   2.790   9.704  0.7415 -0.3878 -0.5889
  103OSM   C14S10466   3.697   2.765   9.694  0.7385 -0.2758 -0.3126
  103OSM   H14S10467   3.683   2.655   9.706 -0.3322  0.0412  1.7746
  103OSM   H14T10468   3.776   2.813   9.756  0.5873 -0.3638 -0.0539
  103OSM   C15S10469   3.728   2.791   9.552  0.3457 -0.7706  0.2942
  103OSM   H15S10470   3.780   2.888   9.535  0.0700 -0.2982  1.9087
  103OSM   H15T10471   3.629   2.794   9.503 -0.7742 -2.3462  2.2802
  103OSM   C16S10472   3.836   2.689   9.496  0.7611 -0.3017  0.0425
  103OSM   H16S10473   3.785   2.591   9.510 -0.5621  0.4822  0.8945
  103OSM   H16T10474   3.936   2.697   9.543  1.1612  1.5890 -1.0293
  103OSM   C17S10475   3.860   2.733   9.349 -0.6928 -0.1168  0.0238
  103OSM   H17S10476   3.881   2.841   9.359  2.2935 -0.8230  3.0604
  103OSM   H17T10477   3.768   2.734   9.287  0.7244  1.3783 -2.2272
  103OSM   C18S10478   3.974   2.664   9.269 -0.0707 -0.1883 -0.2850
  103OSM   H18S10479   3.972   2.706   9.167 -1.0999  4.4251  1.3826
  103OSM   H18T10480   3.961   2.554   9.262  0.4591 -0.2268 -0.7217
  103OSM   H18U10481   4.075   2.671   9.316 -0.3056 -1.2484  0.4124
  103OSM    C1F10482   3.137   3.072  10.304  0.4951  0.3105  0.2149
  103OSM     OF10483   3.171   3.191  10.315  0.4857  0.3054 -0.0976
  103OSM    C2F10484   3.129   3.008  10.167  0.2629  0.3004 -0.3404
  103OSM    H2F10485   3.024   2.979  10.150 -0.2956 -0.5071  3.5711
  103OSM    H2G10486   3.176   2.907  10.175 -0.2330  0.1263  0.4913
  103OSM    C3F10487   3.184   3.093  10.052  0.3198 -0.3293 -0.3588
  103OSM    H3F10488   3.290   3.117  10.075  0.3489  0.2022 -1.0328
  103OSM    H3G10489   3.124   3.184  10.034  0.8201 -0.3556 -2.3068
  103OSM    C4F10490   3.181   3.014   9.920  0.2397  0.6261  0.2624
  103OSM    H4F10491   3.074   2.987   9.909 -0.0470  1.9669 -0.4541
  103OSM    H4G10492   3.235   2.921   9.949 -0.2320 -0.3439 -1.8085
  103OSM    C5F10493   3.240   3.077   9.793  0.2171  0.5075 -0.2917
  103OSM    H5F10494   3.350   3.083   9.812  0.7600 -2.7345 -1.7067
  103OSM    H5G10495   3.206   3.182   9.785 -1.0180  0.3159  1.7437
  103OSM    C6F10496   3.214   3.006   9.659  0.7583 -0.2583 -0.1077
  103OSM    H6F10497   3.105   2.989   9.649  0.1839  3.2142 -1.2763
  103OSM    H6G10498   3.257   2.904   9.647 -0.2115 -0.7581  0.5458
  103OSM    C7F10499   3.263   3.079   9.533  0.2602 -0.0125  0.2339
  103OSM    H7F10500   3.367   3.109   9.557 -0.0358 -0.2401  1.9252
  103OSM    H7G10501   3.204   3.172   9.518 -1.2302 -1.1110 -1.1083
  103OSM    C8F10502   3.271   3.009   9.397 -0.8377 -0.9172 -0.9846
  103OSM    H8F10503   3.165   2.987   9.372 -0.4312 -2.8840 -1.0944
  103OSM    H8G10504   3.329   2.915   9.408  1.0533  0.1517 -1.4199
  103OSM    C9F10505   3.339   3.089   9.286 -0.1456  0.0073 -0.4951
  103OSM    H9F10506   3.285   3.184   9.278  0.7332  0.7521  1.7638
  103OSM   C10F10507   3.449   3.075   9.220 -0.5264  0.0132 -0.5065
  103OSM   H10F10508   3.477   3.160   9.157  1.5513 -1.2796 -1.4411
  103OSM   C11F10509   3.542   2.950   9.232  1.1088 -0.5732 -0.1142
  103OSM   H11F10510   3.499   2.879   9.305 -1.0897  0.0406 -0.7413
  103OSM   H11G10511   3.631   2.986   9.287 -0.7658 -0.9879  3.4293
  103OSM   C12F10512   3.575   2.868   9.106  0.3074 -0.4098  0.3123
  103OSM   H12F10513   3.483   2.812   9.076 -0.4044  0.0406  1.6022
  103OSM   H12G10514   3.654   2.797   9.138 -0.5819 -1.7232 -0.3172
  103OSM   C13F10515   3.634   2.944   8.980 -0.0262  0.0708  0.9126
  103OSM   H13F10516   3.564   3.025   8.951 -1.7992 -2.1078 -1.3387
  103OSM   H13G10517   3.728   2.991   9.018 -0.5360  2.8440 -0.9304
  103OSM   C14F10518   3.646   2.854   8.855  0.2181  0.2497  0.1161
  103OSM   H14F10519   3.610   2.915   8.770 -0.7940 -0.6023 -0.0804
  103OSM   H14G10520   3.578   2.769   8.881  0.3661  0.3020  0.6915
  103OSM   C15F10521   3.781   2.787   8.837  0.2196 -0.2953  0.2265
  103OSM   H15F10522   3.787   2.728   8.743  3.6773  1.9653 -1.1670
  103OSM   H15G10523   3.791   2.710   8.916 -0.8607  1.0721  1.7694
  103OSM   C16F10524   3.900   2.881   8.836 -0.8114  0.7425  0.8043
  103OSM   H16F10525   3.996   2.828   8.821 -1.4017 -0.3292  0.6702
  103OSM   H16G10526   3.909   2.906   8.944 -2.0798  0.6762  0.9483
  103OSM   C17F10527   3.881   3.017   8.760 -0.1273  0.2636  0.0940
  103OSM   H17F10528   3.786   3.071   8.782 -1.4795 -1.4627 -1.2317
  103OSM   H17G10529   3.886   2.995   8.651  2.4496 -0.2978  0.2691
  103OSM   C18F10530   3.994   3.109   8.800 -0.9615 -1.1689 -0.0615
  103OSM   H18F10531   3.977   3.162   8.897  1.2026  2.5168 -1.5005
  103OSM   H18G10532   4.011   3.198   8.736 -0.7355 -0.6144  0.7391
  103OSM   H18H10533   4.093   3.061   8.817 -0.1464  0.7841  1.2171
  104OSM      N10534   1.377   1.856  10.931  0.3905  0.5314  0.3813
  104OSM    C1510535   1.228   1.874  10.955  0.1961 -0.0064 -0.4933
  104OSM   H15A10536   1.176   1.792  10.908 -0.3980  0.8260 -1.3293
  104OSM   H15B10537   1.187   1.956  10.898 -0.5564 -0.1440 -0.1681
  104OSM   H15C10538   1.191   1.889  11.056  0.6376  2.0876 -0.5983
  104OSM    C1410539   1.407   1.878  10.784  0.0878  0.0564  0.1071
  104OSM   H14A10540   1.512   1.890  10.763 -0.5737  1.2536 -2.9597
  104OSM   H14B10541   1.350   1.957  10.738 -0.7847 -0.6991 -0.1431
  104OSM   H14C10542   1.370   1.794  10.727  1.4905 -1.4033  1.2284
  104OSM    C1310543   1.447   1.965  11.007 -0.4544 -0.7313  0.0072
  104OSM   H13A10544   1.554   1.966  10.995 -0.6350  2.4626 -2.8581
  104OSM   H13B10545   1.427   1.954  11.113  2.9099 -0.8201  0.7527
  104OSM   H13C10546   1.417   2.065  10.979  2.7061  0.1773 -0.5964
  104OSM    C1210547   1.429   1.720  10.968 -0.2231  0.2702 -0.3414
  104OSM   H12A10548   1.426   1.714  11.076 -3.4126  0.7775 -0.3194
  104OSM   H12B10549   1.530   1.704  10.933 -0.4125 -0.4413 -0.5742
  104OSM    C1110550   1.349   1.599  10.924 -0.3580  0.5929  0.1298
  104OSM   H11A10551   1.244   1.613  10.955 -0.5388 -0.4083  0.0094
  104OSM   H11B10552   1.372   1.510  10.986 -0.0215  1.4083  1.1982
  104OSM      P10553   1.480   1.516  10.714 -0.0499  0.1162  0.2573
  104OSM    O1310554   1.599   1.598  10.720  0.1840 -0.3922  0.0810
  104OSM    O1410555   1.495   1.380  10.765 -1.0061 -0.0685  0.3305
  104OSM    O1110556   1.436   1.497  10.564  0.2940 -0.2751  0.0438
  104OSM    O1210557   1.356   1.579  10.785  0.3107  0.2992  0.6776
  104OSM    C1S10558   1.404   1.617  10.491 -0.0907  0.2699 -0.2755
  104OSM    H1S10559   1.411   1.713  10.546 -0.7508  0.0690  0.1733
  104OSM    H1T10560   1.300   1.609  10.453  0.1401 -2.2011 -0.5291
  104OSM     NF10561   1.438   1.735  10.281  0.2059  0.1498  0.2377
  104OSM    HNF10562   1.382   1.713  10.201 -0.5613  0.2913  0.7245
  104OSM    C2S10563   1.488   1.626  10.358 -0.1563 -0.6962  0.3702
  104OSM    H2S10564   1.594   1.648  10.384 -0.2869  0.3415  0.0731
  104OSM    C3S10565   1.489   1.492  10.279  0.0829  0.6375  0.6161
  104OSM    H3S10566   1.383   1.462  10.265 -0.0314  1.3617 -0.1491
  104OSM     O310567   1.544   1.375  10.340 -0.2542 -0.5748 -0.0234
  104OSM    HO310568   1.530   1.387  10.435  2.2583 -2.5136  0.7131
  104OSM    C4S10569   1.553   1.520  10.143  0.1181  0.5674  0.0723
  104OSM    H4S10570   1.483   1.541  10.061  0.9052  1.3088 -0.4366
  104OSM    C5S10571   1.684   1.524  10.107  0.4122 -0.0074 -0.5645
  104OSM    H5S10572   1.759   1.500  10.184  0.2900 -0.9886 -0.7433
  104OSM    C6S10573   1.755   1.553   9.980  0.2392 -0.1884  0.5415
  104OSM    H6S10574   1.823   1.469   9.955 -0.1245 -0.8585  1.7323
  104OSM    H6T10575   1.816   1.643  10.000  1.0054  0.1553 -2.7082
  104OSM    C7S10576   1.666   1.583   9.857 -0.3621  0.5714  0.5208
  104OSM    H7S10577   1.589   1.661   9.877 -1.2410  0.0816 -0.8356
  104OSM    H7T10578   1.610   1.489   9.838  0.7950  0.5333 -3.5158
  104OSM    C8S10579   1.743   1.605   9.725  0.1961 -0.3398  0.2882
  104OSM    H8S10580   1.804   1.513   9.714 -1.1381 -1.4016  1.4833
  104OSM    H8T10581   1.817   1.687   9.739  0.7760 -0.6227 -0.9269
  104OSM    C9S10582   1.648   1.635   9.603  0.6339  0.6791 -0.1304
  104OSM    H9S10583   1.594   1.726   9.636  0.9303  0.5361  0.7826
  104OSM    H9T10584   1.573   1.556   9.586  0.6914  0.7624 -0.7679
  104OSM   C10S10585   1.713   1.659   9.469 -0.4963 -0.8340  0.0500
  104OSM   H10S10586   1.759   1.568   9.426 -0.3062  0.5800 -3.0207
  104OSM   H10T10587   1.801   1.724   9.482 -0.5417 -0.2204 -2.2813
  104OSM   C11S10588   1.617   1.717   9.359  0.2676 -0.0880  0.2611
  104OSM   H11S10589   1.672   1.755   9.270  1.1961 -1.2369  0.3307
  104OSM   H11T10590   1.562   1.803   9.404  0.2578  0.5594 -0.9438
  104OSM   C12S10591   1.523   1.615   9.305  0.8328  0.0596 -0.0578
  104OSM   H12S10592   1.438   1.596   9.373 -0.5198  1.0823 -1.3760
  104OSM   H12T10593   1.585   1.526   9.284  0.2839 -0.3070 -0.1377
  104OSM   C13S10594   1.462   1.633   9.166  0.3788 -0.1942 -0.3547
  104OSM   H13S10595   1.547   1.629   9.095  0.5925 -1.9223 -0.0428
  104OSM   H13T10596   1.421   1.737   9.163  1.2761  0.2285  1.1615
  104OSM   C14S10597   1.355   1.534   9.119  0.0587 -0.5567 -0.0527
  104OSM   H14S10598   1.263   1.554   9.179  1.4938  0.4908  1.9166
  104OSM   H14T10599   1.378   1.429   9.147  0.3166 -0.7891 -1.0893
  104OSM   C15S10600   1.332   1.556   8.974  0.9087  0.0974 -0.0945
  104OSM   H15S10601   1.400   1.512   8.898  0.4910  1.5896 -1.3763
  104OSM   H15T10602   1.301   1.659   8.949 -2.6831 -0.8763 -0.2748
  104OSM   C16S10603   1.191   1.494   8.949  0.3217 -0.2175  0.6177
  104OSM   H16S10604   1.112   1.542   9.011  0.3243 -2.6152  2.6648
  104OSM   H16T10605   1.186   1.391   8.989  0.6606 -0.0612  1.0751
  104OSM   C17S10606   1.163   1.482   8.800 -0.5458  0.3947 -0.0998
  104OSM   H17S10607   1.249   1.445   8.740  0.7164 -0.9505  2.3642
  104OSM   H17T10608   1.139   1.584   8.763 -3.2871  0.2561  1.0023
  104OSM   C18S10609   1.051   1.381   8.777  0.1102 -0.3505 -0.1741
  104OSM   H18S10610   1.018   1.392   8.671 -0.9662 -3.4006 -0.2416
  104OSM   H18T10611   0.966   1.403   8.845 -1.1360 -2.8033 -0.8562
  104OSM   H18U10612   1.084   1.278   8.802  2.3942  0.4223  0.2456
  104OSM    C1F10613   1.444   1.854  10.323  0.0400 -1.0743  0.8467
  104OSM     OF10614   1.524   1.888  10.408 -0.4782 -0.4798  0.0334
  104OSM    C2F10615   1.342   1.956  10.266 -0.3675 -0.2140  0.4861
  104OSM    H2F10616   1.318   2.034  10.342 -0.1607 -0.4418  0.7916
  104OSM    H2G10617   1.243   1.913  10.243 -1.1631  1.9910 -0.5441
  104OSM    C3F10618   1.395   2.038  10.141  0.4812 -0.1666  0.3003
  104OSM    H3F10619   1.431   1.977  10.056 -1.2686 -1.0321  0.1347
  104OSM    H3G10620   1.485   2.101  10.162  0.9490 -0.4339 -0.8704
  104OSM    C4F10621   1.280   2.134  10.104  0.1606  0.1007  0.3046
  104OSM    H4F10622   1.269   2.207  10.187 -0.0384  2.2966 -1.5495
  104OSM    H4G10623   1.191   2.068  10.100  0.5076 -0.3334 -0.6446
  104OSM    C5F10624   1.288   2.216   9.978 -0.8545  0.4232  0.5218
  104OSM    H5F10625   1.393   2.249   9.972  0.4422 -3.3291 -0.2261
  104OSM    H5G10626   1.205   2.289   9.990 -1.8909 -0.3506 -1.4337
  104OSM    C6F10627   1.267   2.136   9.854 -0.1117 -0.2080  0.7594
  104OSM    H6F10628   1.174   2.078   9.870  0.5494 -2.2678 -2.0381
  104OSM    H6G10629   1.360   2.077   9.844 -0.8172 -1.0198 -1.6064
  104OSM    C7F10630   1.265   2.225   9.731  0.0845  0.0052  0.2520
  104OSM    H7F10631   1.350   2.295   9.742  0.1548  0.0682 -0.5971
  104OSM    H7G10632   1.169   2.279   9.723  0.6293  0.8283 -1.1729
  104OSM    C8F10633   1.298   2.154   9.591  0.0418  0.1531  0.7560
  104OSM    H8F10634   1.223   2.073   9.580  3.1351 -2.9286  0.7085
  104OSM    H8G10635   1.396   2.104   9.601  1.9849  3.8312  2.4049
  104OSM    C9F10636   1.285   2.260   9.481 -0.0942 -0.1152  0.4588
  104OSM    H9F10637   1.198   2.327   9.489  0.1361  0.5919 -2.0490
  104OSM   C10F10638   1.372   2.280   9.380  0.5137 -0.0602 -0.8261
  104OSM   H10F10639   1.356   2.362   9.308  3.0754  0.3049 -1.0984
  104OSM   C11F10640   1.496   2.200   9.353  0.4255  0.0985 -0.1951
  104OSM   H11F10641   1.534   2.140   9.439 -0.5298 -0.3338 -0.0676
  104OSM   H11G10642   1.579   2.257   9.306 -1.4894  1.1025 -2.5367
  104OSM   C12F10643   1.458   2.099   9.240 -0.0330 -0.0048 -0.1087
  104OSM   H12F10644   1.362   2.043   9.251  0.8801 -1.9562 -1.4660
  104OSM   H12G10645   1.536   2.020   9.230 -1.2949 -1.2502 -0.5705
  104OSM   C13F10646   1.432   2.171   9.108  0.1154  0.9026  0.3575
  104OSM   H13F10647   1.524   2.223   9.072  1.6086 -1.9621 -0.2770
  104OSM   H13G10648   1.349   2.245   9.108 -0.7879 -0.0319 -1.6904
  104OSM   C14F10649   1.386   2.075   8.989 -0.2514  0.0803 -0.3213
  104OSM   H14F10650   1.341   2.133   8.905  0.1958  0.6593 -0.1693
  104OSM   H14G10651   1.306   2.011   9.031  0.2336  0.4272  1.1799
  104OSM   C15F10652   1.509   2.011   8.926  0.2893 -0.0119  0.1226
  104OSM   H15F10653   1.566   1.961   9.008 -1.5180  1.5901  2.5134
  104OSM   H15G10654   1.573   2.088   8.879 -0.0491 -0.5288 -1.2356
  104OSM   C16F10655   1.464   1.909   8.819  0.3029  0.5020 -0.0011
  104OSM   H16F10656   1.419   1.961   8.732  0.5864 -0.6035 -0.8535
  104OSM   H16G10657   1.384   1.851   8.868  1.5513  0.0885  1.6417
  104OSM   C17F10658   1.584   1.836   8.760 -0.1717  0.0351  0.1691
  104OSM   H17F10659   1.629   1.769   8.836 -1.1685  0.1993  0.9240
  104OSM   H17G10660   1.650   1.919   8.727  0.7596 -1.3190 -1.4919
  104OSM   C18F10661   1.545   1.750   8.640  0.0939 -0.0709  0.5142
  104OSM   H18F10662   1.468   1.804   8.582 -0.3778  1.7605  2.7140
  104OSM   H18G10663   1.515   1.652   8.683 -0.7113 -0.1619 -0.2309
  104OSM   H18H10664   1.632   1.736   8.572  0.3685  0.7451  0.6786
  105OSM      N10665   1.946   1.143  10.782 -0.3351  0.1865 -0.1638
  105OSM    C1510666   1.889   1.263  10.718  0.7659 -0.1946 -0.5234
  105OSM   H15A10667   1.797   1.244  10.665 -0.9606  2.0712  1.4374
  105OSM   H15B10668   1.959   1.316  10.655  0.6207  0.9783  0.2693
  105OSM   H15C10669   1.850   1.325  10.797 -0.1313 -0.7943 -0.4753
  105OSM    C1410670   1.964   1.033  10.677  0.4244 -0.6942 -0.3651
  105OSM   H14A10671   1.871   1.002  10.633 -0.9795  0.7462  1.4407
  105OSM   H14B10672   1.998   0.943  10.728  1.4961 -0.4773 -0.6805
  105OSM   H14C10673   2.039   1.051  10.602  0.9220 -1.2337 -0.0153
  105OSM    C1310674   2.084   1.172  10.831 -0.2149 -0.7632  0.3625
  105OSM   H13A10675   2.148   1.200  10.749 -1.4752 -0.0894 -0.4147
  105OSM   H13B10676   2.119   1.094  10.897 -1.1274 -0.8556  0.7485
  105OSM   H13C10677   2.081   1.257  10.898 -1.3345 -1.5932  1.4044
  105OSM    C1210678   1.859   1.102  10.899 -0.1672  0.4067  0.0662
  105OSM   H12A10679   1.879   1.175  10.976  1.4131  0.6485 -0.5219
  105OSM   H12B10680   1.903   1.016  10.949 -3.9205 -0.5684  2.0704
  105OSM    C1110681   1.712   1.069  10.863 -0.1590 -0.6229  0.3461
  105OSM   H11A10682   1.661   1.162  10.830  0.1822 -0.7261 -0.4863
  105OSM   H11B10683   1.662   1.030  10.954 -0.7661 -1.1292 -0.2003
  105OSM      P10684   1.587   0.890  10.706  0.6282 -0.4927 -0.8179
  105OSM    O1310685   1.627   0.771  10.630  0.0634 -0.4394 -0.4105
  105OSM    O1410686   1.494   0.879  10.820 -0.1691  0.2203 -0.1028
  105OSM    O1110687   1.507   0.982  10.606 -0.1454 -0.7690 -0.2779
  105OSM    O1210688   1.707   0.975  10.758 -0.7001  0.1366 -0.3294
  105OSM    C1S10689   1.576   1.060  10.503  0.2215  0.0664  0.1584
  105OSM    H1S10690   1.684   1.066  10.526  0.6154  1.6015 -1.7442
  105OSM    H1T10691   1.548   1.166  10.516  0.4928 -0.0187  1.6223
  105OSM     NF10692   1.632   1.079  10.269 -0.6967  0.2799 -0.1623
  105OSM    HNF10693   1.601   1.170  10.242  0.6339  0.4402 -1.2340
  105OSM    C2S10694   1.552   1.004  10.365  0.3405 -0.0336 -0.0788
  105OSM    H2S10695   1.582   0.897  10.359 -0.6292 -0.2906 -0.6148
  105OSM    C3S10696   1.399   1.009  10.327  0.2033 -0.4274  0.1775
  105OSM    H3S10697   1.375   1.116  10.311  0.6735 -0.3645 -0.1540
  105OSM     O310698   1.319   0.948  10.428 -0.2810 -0.5961  0.9514
  105OSM    HO310699   1.389   0.931  10.491  2.8591  0.9278 -1.8091
  105OSM    C4S10700   1.385   0.944  10.189  0.7574 -1.0636  0.1763
  105OSM    H4S10701   1.418   1.010  10.107  0.4269 -1.6954 -0.4786
  105OSM    C5S10702   1.330   0.826  10.162 -0.3543  0.2621  0.2510
  105OSM    H5S10703   1.318   0.759  10.249 -1.9774  2.3629  1.7345
  105OSM    C6S10704   1.305   0.768  10.030  0.1192  0.2896  0.0825
  105OSM    H6S10705   1.195   0.760  10.021 -0.0633 -1.4472  2.6737
  105OSM    H6T10706   1.347   0.665  10.038  0.2414  0.3551  0.3111
  105OSM    C7S10707   1.367   0.834   9.901  0.4163 -0.1694 -0.9890
  105OSM    H7S10708   1.476   0.853   9.916  0.5304  0.2635 -2.2598
  105OSM    H7T10709   1.322   0.935   9.903  0.8407  0.0431  1.5861
  105OSM    C8S10710   1.316   0.767   9.770  0.1257  0.0123 -0.7653
  105OSM    H8S10711   1.310   0.852   9.699  1.6310  0.4529 -0.4093
  105OSM    H8T10712   1.213   0.728   9.785 -0.7103  1.5349 -2.1757
  105OSM    C9S10713   1.394   0.646   9.716 -0.2414 -0.6831 -0.4735
  105OSM    H9S10714   1.326   0.588   9.650 -0.1180  0.0099 -1.2168
  105OSM    H9T10715   1.426   0.580   9.800 -0.9282 -0.7918 -0.2921
  105OSM   C10S10716   1.506   0.699   9.637 -0.5910  0.3039 -0.5871
  105OSM   H10S10717   1.577   0.749   9.705 -1.6661  2.2148 -0.8125
  105OSM   H10T10718   1.486   0.770   9.554  2.9725 -1.9095 -3.6319
  105OSM   C11S10719   1.582   0.585   9.571  0.1398  0.4620 -0.2064
  105OSM   H11S10720   1.508   0.543   9.500  0.5085 -1.3816  0.4407
  105OSM   H11T10721   1.596   0.502   9.643 -0.6320  0.1263 -0.4377
  105OSM   C12S10722   1.717   0.634   9.510  0.3941  0.8460  0.1803
  105OSM   H12S10723   1.786   0.671   9.588 -2.6752  0.7572  3.1816
  105OSM   H12T10724   1.691   0.707   9.431  1.0822 -1.0211 -1.8881
  105OSM   C13S10725   1.784   0.515   9.437  0.4211 -0.1815 -0.3299
  105OSM   H13S10726   1.723   0.453   9.368  0.8461 -1.0605  0.0583
  105OSM   H13T10727   1.826   0.454   9.520 -0.4424 -0.4357 -0.0653
  105OSM   C14S10728   1.909   0.558   9.358 -0.0233 -0.2567  0.6550
  105OSM   H14S10729   1.968   0.621   9.427  1.4270  1.0949 -1.7082
  105OSM   H14T10730   1.866   0.601   9.265  1.7016  0.2604  0.0598
  105OSM   C15S10731   1.990   0.432   9.308  0.2439  0.1757 -0.5068
  105OSM   H15S10732   1.919   0.369   9.251  0.1299 -0.1613  0.0017
  105OSM   H15T10733   2.020   0.372   9.396  2.3632  1.6831 -0.1233
  105OSM   C16S10734   2.126   0.460   9.238  0.0202 -0.5933 -0.0558
  105OSM   H16S10735   2.177   0.541   9.295 -1.9725  0.7237 -0.0805
  105OSM   H16T10736   2.119   0.494   9.133 -1.6214  3.1576  1.0780
  105OSM   C17S10737   2.219   0.337   9.236 -0.3203 -0.2955 -0.5153
  105OSM   H17S10738   2.173   0.266   9.164 -1.4684  0.2134 -0.3213
  105OSM   H17T10739   2.219   0.286   9.335  0.4612  1.1557  0.2688
  105OSM   C18S10740   2.366   0.354   9.188  0.3228 -0.7075  0.1276
  105OSM   H18S10741   2.400   0.252   9.160  0.0459 -0.7624 -0.0147
  105OSM   H18T10742   2.424   0.392   9.274  0.4618 -2.3870  0.8188
  105OSM   H18U10743   2.369   0.423   9.101 -2.6526 -1.0718 -0.3766
  105OSM    C1F10744   1.758   1.036  10.249  0.9077 -0.5375 -0.7049
  105OSM     OF10745   1.807   0.943  10.312 -0.3516 -0.9820 -0.2236
  105OSM    C2F10746   1.844   1.107  10.155 -0.1024  0.4379 -0.3897
  105OSM    H2F10747   1.951   1.107  10.185 -0.2201  2.1896  0.1559
  105OSM    H2G10748   1.818   1.215  10.162 -2.3121 -0.1251  1.3898
  105OSM    C3F10749   1.829   1.062  10.005 -0.2341 -0.2088  0.1303
  105OSM    H3F10750   1.840   0.953   9.984  0.4814 -0.4861  1.7845
  105OSM    H3G10751   1.913   1.118   9.958 -0.2495 -0.4389 -0.1749
  105OSM    C4F10752   1.699   1.104   9.923 -0.1585  0.3926  0.0199
  105OSM    H4F10753   1.685   1.214   9.917  0.6676  0.4605 -0.8518
  105OSM    H4G10754   1.612   1.050   9.967 -0.9814  2.6137  1.3547
  105OSM    C5F10755   1.697   1.042   9.783  0.8131 -0.3535 -0.7401
  105OSM    H5F10756   1.598   1.011   9.742  0.8689  0.7643 -1.7667
  105OSM    H5G10757   1.743   0.941   9.795  2.6245  0.6190  1.0808
  105OSM    C6F10758   1.787   1.123   9.686  0.4652  0.8959  0.0307
  105OSM    H6F10759   1.892   1.142   9.720  1.1425 -0.6165 -1.0797
  105OSM    H6G10760   1.742   1.224   9.678 -0.3119  0.6366  0.9715
  105OSM    C7F10761   1.793   1.052   9.548 -0.5921  0.6022 -0.1341
  105OSM    H7F10762   1.688   1.033   9.519 -1.8441  1.5008  3.2981
  105OSM    H7G10763   1.829   0.947   9.555 -1.1079  0.4653  0.5517
  105OSM    C8F10764   1.863   1.136   9.427 -0.3103  0.1156  0.2004
  105OSM    H8F10765   1.973   1.137   9.436 -0.0893 -1.9382 -1.3993
  105OSM    H8G10766   1.841   1.244   9.436  2.5547  0.8980 -1.1543
  105OSM    C9F10767   1.817   1.085   9.297  0.2635 -0.1273  0.1552
  105OSM    H9F10768   1.853   0.982   9.289 -0.0922 -0.2867  0.5751
  105OSM   C10F10769   1.758   1.144   9.190 -0.3812  0.2045  0.0278
  105OSM   H10F10770   1.741   1.083   9.101 -0.9437  0.0069  0.2637
  105OSM   C11F10771   1.713   1.281   9.176 -0.3100 -0.2299  0.5274
  105OSM   H11F10772   1.710   1.334   9.274 -1.3997  1.2305 -0.2551
  105OSM   H11G10773   1.607   1.280   9.142 -0.7161  1.0298  1.6571
  105OSM   C12F10774   1.797   1.373   9.077 -0.0213  0.0022  0.1558
  105OSM   H12F10775   1.902   1.383   9.110 -0.7108  1.6456  2.0787
  105OSM   H12G10776   1.751   1.474   9.083 -0.4265 -0.1951  0.4335
  105OSM   C13F10777   1.806   1.335   8.928 -0.0290  0.2588  0.5637
  105OSM   H13F10778   1.708   1.325   8.877 -1.0793  1.0125  2.3336
  105OSM   H13G10779   1.856   1.236   8.921 -0.2920 -0.0880  2.8067
  105OSM   C14F10780   1.887   1.437   8.850 -0.1852 -0.3583 -0.0356
  105OSM   H14F10781   1.989   1.451   8.893 -0.8389  1.5895  0.9717
  105OSM   H14G10782   1.829   1.530   8.865 -1.3287 -1.0936  0.2144
  105OSM   C15F10783   1.885   1.422   8.695 -0.4916 -0.8795 -0.1137
  105OSM   H15F10784   1.782   1.428   8.654 -0.9117 -0.7101  0.9371
  105OSM   H15G10785   1.924   1.322   8.666  1.7946 -0.3662  0.9438
  105OSM   C16F10786   1.975   1.516   8.618  0.3592  0.2227 -0.5143
  105OSM   H16F10787   2.077   1.521   8.662  0.9117 -0.9761 -1.6076
  105OSM   H16G10788   1.925   1.614   8.634 -1.4712 -0.6525 -0.6965
  105OSM   C17F10789   1.995   1.487   8.470  0.2705  0.1620 -0.3365
  105OSM   H17F10790   2.021   1.385   8.432  0.2072  1.1563 -3.3051
  105OSM   H17G10791   2.091   1.536   8.444  0.9814 -2.0057 -2.2049
  105OSM   C18F10792   1.889   1.540   8.373 -0.1907 -0.0977 -0.3387
  105OSM   H18F10793   1.790   1.502   8.405  0.2539 -1.2395 -0.3080
  105OSM   H18G10794   1.906   1.502   8.270 -1.8452  0.9760 -1.0628
  105OSM   H18H10795   1.887   1.651   8.365 -2.8772 -0.1651 -1.6193
  106OSM      N10796   3.413   0.600  10.823 -0.1954  0.4590  0.3857
  106OSM    C1510797   3.286   0.665  10.782 -0.2218 -1.0246  0.0698
  106OSM   H15A10798   3.218   0.588  10.747  1.5365 -1.8272 -1.8007
  106OSM   H15B10799   3.302   0.727  10.696 -1.3636 -1.0604 -0.1817
  106OSM   H15C10800   3.242   0.723  10.862  2.0989 -0.3258  0.9216
  106OSM    C1410801   3.513   0.702  10.854  0.2647  0.0512  0.5407
  106OSM   H14A10802   3.614   0.663  10.864 -0.2990 -1.5645  0.1892
  106OSM   H14B10803   3.484   0.745  10.949  0.5213 -0.0491  0.6649
  106OSM   H14C10804   3.519   0.780  10.779  1.0138 -0.5160 -0.0089
  106OSM    C1310805   3.382   0.519  10.948  0.0555 -0.3175  0.1060
  106OSM   H13A10806   3.322   0.563  11.027 -2.4121 -0.5111 -1.5604
  106OSM   H13B10807   3.477   0.494  10.994  1.1163 -0.0100 -1.8021
  106OSM   H13C10808   3.333   0.430  10.912  2.2802 -0.9531 -1.6146
  106OSM    C1210809   3.473   0.511  10.710  0.0108  1.0979  0.3825
  106OSM   H12A10810   3.421   0.416  10.712 -0.9863  1.5943 -0.7573
  106OSM   H12B10811   3.579   0.504  10.726 -0.2416  0.6962  2.0852
  106OSM    C1110812   3.469   0.565  10.566  0.5430  0.5907 -0.1645
  106OSM   H11A10813   3.517   0.488  10.501  0.2068 -0.6390  1.0106
  106OSM   H11B10814   3.535   0.654  10.558  1.6364 -0.0471  1.3752
  106OSM      P10815   3.245   0.479  10.451  0.5865  0.5927  0.0371
  106OSM    O1310816   3.203   0.392  10.570 -0.1939 -0.7829  0.1233
  106OSM    O1410817   3.138   0.536  10.363  0.4709  0.2220  0.0795
  106OSM    O1110818   3.343   0.394  10.366  0.1870 -0.1208 -0.3110
  106OSM    O1210819   3.339   0.590  10.507  0.0075  0.2456 -0.3996
  106OSM    C1S10820   3.296   0.352  10.238  0.3102  0.1085  0.4852
  106OSM    H1S10821   3.299   0.429  10.159 -4.0795  0.5405  0.5364
  106OSM    H1T10822   3.192   0.316  10.245  0.4407 -0.0156  2.3972
  106OSM     NF10823   3.373   0.212  10.045  0.2070  0.5539 -0.7544
  106OSM    HNF10824   3.359   0.118  10.017  1.6068  0.8178 -2.5357
  106OSM    C2S10825   3.388   0.236  10.192  0.5083  0.0770  0.8953
  106OSM    H2S10826   3.496   0.260  10.202  1.1421 -0.5259 -2.8313
  106OSM    C3S10827   3.358   0.116  10.277 -0.4188 -0.2079 -0.1255
  106OSM    H3S10828   3.253   0.092  10.250 -0.2605  1.5393 -2.5563
  106OSM     O310829   3.358   0.138  10.417  0.0712  0.3955  0.1889
  106OSM    HO310830   3.352   0.234  10.412  2.1022  0.4882 -3.1626
  106OSM    C4S10831   3.439  -0.008  10.237  0.7796  0.6075  0.0812
  106OSM    H4S10832   3.387  -0.067  10.161 -0.8972  1.0628  0.8321
  106OSM    C5S10833   3.566  -0.040  10.268 -1.0947  0.3773  0.1770
  106OSM    H5S10834   3.625   0.023  10.337  0.8035 -1.1693  0.0454
  106OSM    C6S10835   3.643  -0.150  10.205 -0.0302 -0.2353 -0.3506
  106OSM    H6S10836   3.593  -0.243  10.240  0.5847  0.0298  1.3220
  106OSM    H6T10837   3.745  -0.159  10.248  0.2694 -2.5418 -1.3385
  106OSM    C7S10838   3.634  -0.143  10.051 -1.4722  0.1785  0.4467
  106OSM    H7S10839   3.654  -0.038  10.022  0.7725 -0.7681 -1.8076
  106OSM    H7T10840   3.536  -0.176  10.011 -0.5659 -2.9119  0.5393
  106OSM    C8S10841   3.732  -0.248   9.987 -0.0303 -0.0845  0.5136
  106OSM    H8S10842   3.729  -0.343  10.045  1.1822 -2.0840 -2.4455
  106OSM    H8T10843   3.836  -0.211   9.988 -0.1030  0.1192  1.1115
  106OSM    C9S10844   3.690  -0.288   9.841 -0.3027 -0.5039  0.1674
  106OSM    H9S10845   3.679  -0.193   9.785 -2.0355 -1.1462 -0.6392
  106OSM    H9T10846   3.586  -0.329   9.842 -0.4636 -0.1362 -0.7595
  106OSM   C10S10847   3.779  -0.382   9.770 -0.4575 -0.2940  0.3480
  106OSM   H10S10848   3.802  -0.477   9.823 -1.2008  0.6700  2.5410
  106OSM   H10T10849   3.871  -0.322   9.761  0.4758 -1.6890  0.2753
  106OSM   C11S10850   3.727  -0.404   9.623 -0.4004 -0.3872 -0.2095
  106OSM   H11S10851   3.689  -0.307   9.585  1.8749  0.2896 -0.8975
  106OSM   H11T10852   3.644  -0.478   9.635 -0.2799 -0.3844  0.7424
  106OSM   C12S10853   3.849  -0.453   9.542 -0.7611  0.1274 -0.0251
  106OSM   H12S10854   3.900  -0.527   9.608 -0.4826 -0.7543 -1.1883
  106OSM   H12T10855   3.916  -0.364   9.538 -0.5908 -0.0247 -0.6697
  106OSM   C13S10856   3.821  -0.501   9.400 -0.1205  0.2278 -0.1591
  106OSM   H13S10857   3.751  -0.586   9.414  0.0967 -0.1150 -1.0415
  106OSM   H13T10858   3.920  -0.529   9.357 -1.6821 -1.3303 -3.1092
  106OSM   C14S10859   3.755  -0.403   9.297 -0.1819  0.2236  0.4729
  106OSM   H14S10860   3.816  -0.311   9.292  0.9172 -0.5387 -2.4814
  106OSM   H14T10861   3.653  -0.377   9.331 -1.0792 -3.4179  1.0167
  106OSM   C15S10862   3.765  -0.452   9.152 -0.5974  0.0550 -0.3528
  106OSM   H15S10863   3.712  -0.549   9.147  0.6137 -0.6704  0.4071
  106OSM   H15T10864   3.872  -0.478   9.138 -0.0412  0.8895  1.8831
  106OSM   C16S10865   3.717  -0.357   9.042 -0.2188  0.5417 -0.2225
  106OSM   H16S10866   3.776  -0.265   9.060 -0.8137  0.6633  1.1956
  106OSM   H16T10867   3.611  -0.336   9.068 -0.4318  1.7072 -1.8563
  106OSM   C17S10868   3.728  -0.403   8.895  1.0598 -0.8647 -0.2915
  106OSM   H17S10869   3.835  -0.417   8.865  0.4738  1.1273 -3.8939
  106OSM   H17T10870   3.693  -0.318   8.833  0.6209 -1.6592 -1.1678
  106OSM   C18S10871   3.655  -0.528   8.873  0.4742 -0.3463  0.0472
  106OSM   H18S10872   3.546  -0.504   8.873  0.4722 -0.3573  0.2899
  106OSM   H18T10873   3.678  -0.603   8.951  0.5823  1.1302  1.4884
  106OSM   H18U10874   3.690  -0.571   8.777  0.4583 -2.7087  1.0286
  106OSM    C1F10875   3.419   0.299   9.959  1.5126  0.3694  0.1658
  106OSM     OF10876   3.489   0.392   9.994  0.5262 -0.1552 -0.4529
  106OSM    C2F10877   3.393   0.261   9.815 -0.2001  0.8443  0.1207
  106OSM    H2F10878   3.316   0.181   9.805 -0.1207  1.0487 -3.2175
  106OSM    H2G10879   3.488   0.219   9.775 -1.2727 -0.3343 -1.3523
  106OSM    C3F10880   3.351   0.369   9.710 -0.6306  0.2221  0.3224
  106OSM    H3F10881   3.415   0.459   9.720 -2.0388  1.4822 -1.4003
  106OSM    H3G10882   3.250   0.408   9.734 -1.2499 -0.0170 -1.7018
  106OSM    C4F10883   3.371   0.330   9.569  0.5849  0.7312  0.3560
  106OSM    H4F10884   3.312   0.237   9.552  0.0873  1.4255 -2.1794
  106OSM    H4G10885   3.476   0.310   9.538  0.4591 -0.3881  0.6011
  106OSM    C5F10886   3.308   0.432   9.476  0.7326  0.2922  0.5170
  106OSM    H5F10887   3.364   0.527   9.482 -1.7105  2.0420 -1.8914
  106OSM    H5G10888   3.204   0.438   9.516  0.8624  1.1820  0.7359
  106OSM    C6F10889   3.308   0.384   9.333  0.5303  0.6380  0.1880
  106OSM    H6F10890   3.251   0.292   9.312 -1.5833  1.4592  1.9677
  106OSM    H6G10891   3.412   0.361   9.299 -0.0518 -0.7752 -0.6919
  106OSM    C7F10892   3.241   0.477   9.227 -0.5444  0.0698 -0.4832
  106OSM    H7F10893   3.310   0.564   9.228  2.6005 -2.2378  1.1519
  106OSM    H7G10894   3.142   0.500   9.272 -0.4312  2.4410 -1.2892
  106OSM    C8F10895   3.215   0.429   9.079  0.0880 -0.3711 -0.5105
  106OSM    H8F10896   3.315   0.435   9.031  0.5789 -0.3988  0.4841
  106OSM    H8G10897   3.147   0.498   9.025 -1.4158 -3.3482 -2.7037
  106OSM    C9F10898   3.156   0.288   9.074 -0.3707 -0.0305  0.4431
  106OSM    H9F10899   3.087   0.256   9.153 -0.1989  0.5352  0.8288
  106OSM   C10F10900   3.202   0.197   8.985 -0.1302 -0.1540 -0.0722
  106OSM   H10F10901   3.152   0.099   8.984 -0.3819 -0.0490 -2.1178
  106OSM   C11F10902   3.299   0.223   8.877  0.1787  0.3552  0.3920
  106OSM   H11F10903   3.339   0.121   8.860 -2.4138 -0.6627  0.0152
  106OSM   H11G10904   3.379   0.293   8.913 -0.2582 -0.0791  2.3600
  106OSM   C12F10905   3.236   0.276   8.741  0.2699  0.0450  0.0345
  106OSM   H12F10906   3.188   0.373   8.760  0.1672  0.0198 -0.0907
  106OSM   H12G10907   3.150   0.216   8.704 -0.9585  1.3635  0.6982
  106OSM   C13F10908   3.349   0.288   8.635 -0.2211 -0.2228  0.6197
  106OSM   H13F10909   3.386   0.186   8.612 -0.6700  0.0253 -1.4608
  106OSM   H13G10910   3.441   0.331   8.680  1.7549 -2.2447 -1.2255
  106OSM   C14F10911   3.313   0.358   8.500 -0.0516  1.2290  0.2500
  106OSM   H14F10912   3.404   0.385   8.443  0.0172  0.2014 -0.1481
  106OSM   H14G10913   3.264   0.451   8.536  0.4397  0.8802  1.9546
  106OSM   C15F10914   3.208   0.277   8.421 -0.3589  0.7622  0.0985
  106OSM   H15F10915   3.149   0.338   8.350 -3.3869 -1.3649  0.5945
  106OSM   H15G10916   3.132   0.228   8.487 -0.2263 -2.2727 -1.7907
  106OSM   C16F10917   3.280   0.171   8.340 -0.0557  0.1746 -0.0298
  106OSM   H16F10918   3.335   0.102   8.407  1.1339  0.6267 -0.5049
  106OSM   H16G10919   3.358   0.227   8.283 -1.7654  2.8032  0.0290
  106OSM   C17F10920   3.186   0.118   8.231 -0.5345  0.5625  0.1064
  106OSM   H17F10921   3.167   0.195   8.154  0.6223 -0.9717 -1.8153
  106OSM   H17G10922   3.089   0.095   8.281  0.7268 -0.5090  2.2258
  106OSM   C18F10923   3.251  -0.013   8.176 -0.0404 -0.2869 -0.2881
  106OSM   H18F10924   3.184  -0.057   8.099 -0.0439  0.8924 -0.9945
  106OSM   H18G10925   3.267  -0.092   8.252 -1.5619 -0.1491  0.2265
  106OSM   H18H10926   3.349   0.012   8.132 -0.9083  2.4810 -0.8931
  107OSM      N10927   3.601   3.851  11.271 -1.0557 -0.1837  0.7608
  107OSM    C1510928   3.462   3.808  11.307  0.3790 -0.0987 -1.0648
  107OSM   H15A10929   3.420   3.729  11.247  2.9826 -2.7789  0.3756
  107OSM   H15B10930   3.390   3.888  11.312 -0.0108 -0.3774 -1.9884
  107OSM   H15C10931   3.472   3.764  11.405  0.8739 -0.4413 -1.2662
  107OSM    C1410932   3.689   3.856  11.388 -0.4227 -0.1937  1.1887
  107OSM   H14A10933   3.780   3.906  11.358 -0.7068 -0.4146 -0.1153
  107OSM   H14B10934   3.709   3.756  11.425 -0.1919 -0.0817  1.3699
  107OSM   H14C10935   3.653   3.915  11.471 -1.2391 -0.3309  0.9372
  107OSM    C1310936   3.669   3.746  11.191 -0.2360 -0.0697 -0.4781
  107OSM   H13A10937   3.610   3.734  11.101 -0.4994  0.7479 -0.4176
  107OSM   H13B10938   3.675   3.654  11.247  0.4950  0.7553  0.8358
  107OSM   H13C10939   3.771   3.774  11.172  0.7920 -2.5573  0.8846
  107OSM    C1210940   3.591   3.990  11.197  0.5056  0.5914  1.4944
  107OSM   H12A10941   3.683   4.038  11.168  0.2376  1.2814  1.7728
  107OSM   H12B10942   3.541   4.060  11.262  0.1786  0.6720  1.1609
  107OSM    C1110943   3.511   3.983  11.066  0.0916  0.2963  0.6457
  107OSM   H11A10944   3.495   4.089  11.034 -2.6864  0.0669  1.0379
  107OSM   H11B10945   3.408   3.943  11.082  0.4129 -0.4988  0.7417
  107OSM      P10946   3.702   3.945  10.890 -0.4190  0.5759 -0.2318
  107OSM    O1310947   3.702   4.094  10.880  0.2987  0.0136 -0.1993
  107OSM    O1410948   3.820   3.875  10.945 -0.4169 -0.0617 -0.0090
  107OSM    O1110949   3.689   3.879  10.745  0.0659 -0.0744  0.0580
  107OSM    O1210950   3.571   3.896  10.964  0.9039 -0.0471 -0.2931
  107OSM    C1S10951   3.555   3.858  10.691 -0.7011 -0.1640 -0.1864
  107OSM    H1S10952   3.487   3.937  10.728 -0.4775 -0.9999  2.1777
  107OSM    H1T10953   3.525   3.757  10.727  2.6949 -1.8116 -1.4576
  107OSM     NF10954   3.409   3.893  10.497  0.1777  0.4886 -0.6215
  107OSM    HNF10955   3.368   3.804  10.484  1.0835  0.0202 -0.3219
  107OSM    C2S10956   3.550   3.870  10.536 -0.1373 -0.1643 -0.5747
  107OSM    H2S10957   3.606   3.962  10.510 -0.1275 -0.0425 -0.1367
  107OSM    C3S10958   3.616   3.747  10.483 -0.3553  0.7982 -0.4090
  107OSM    H3S10959   3.552   3.659  10.505  1.3249 -0.0403  1.4030
  107OSM     O310960   3.745   3.721  10.541  0.1461 -0.3068 -0.3632
  107OSM    HO310961   3.755   3.785  10.612  1.0346  2.1670 -2.5666
  107OSM    C4S10962   3.632   3.754  10.338 -0.0759  0.3169  0.4920
  107OSM    H4S10963   3.681   3.851  10.318  0.4418  0.1707  0.9844
  107OSM    C5S10964   3.596   3.666  10.239 -0.4502 -0.0009 -0.2187
  107OSM    H5S10965   3.531   3.581  10.264 -2.8305  1.0566 -2.3230
  107OSM    C6S10966   3.618   3.687  10.093  0.2749  0.3983 -0.5801
  107OSM    H6S10967   3.515   3.684  10.051 -0.4392  2.0774  0.9309
  107OSM    H6T10968   3.681   3.604  10.054 -0.4564  0.4531 -1.9305
  107OSM    C7S10969   3.687   3.812  10.048 -0.1561 -0.6266  0.0740
  107OSM    H7S10970   3.776   3.844  10.105  0.1283  2.7048 -1.9887
  107OSM    H7T10971   3.620   3.898  10.071  2.2290  1.7285 -1.3304
  107OSM    C8S10972   3.726   3.826   9.902  0.7433  0.5201  0.6604
  107OSM    H8S10973   3.824   3.776   9.885  0.3825  0.4705 -1.6754
  107OSM    H8T10974   3.729   3.934   9.875 -1.1814  0.4443 -0.0516
  107OSM    C9S10975   3.619   3.774   9.804  0.4978  0.1268 -0.2628
  107OSM    H9S10976   3.515   3.808   9.820  0.8032  0.7805  0.3870
  107OSM    H9T10977   3.613   3.663   9.815  0.1553  0.3215  1.9695
  107OSM   C10S10978   3.649   3.799   9.650 -0.0954 -0.6762 -0.8159
  107OSM   H10S10979   3.615   3.903   9.633 -0.7893 -0.9031 -0.8353
  107OSM   H10T10980   3.571   3.738   9.599  0.6390 -0.6567 -2.0181
  107OSM   C11S10981   3.787   3.769   9.596  0.2487 -0.4074 -0.1137
  107OSM   H11S10982   3.814   3.662   9.611  0.4009 -0.3143  0.2880
  107OSM   H11T10983   3.864   3.827   9.652  2.4417 -1.1480 -2.1643
  107OSM   C12S10984   3.807   3.789   9.445 -0.1906  0.0991  0.2000
  107OSM   H12S10985   3.910   3.769   9.409 -0.5054 -1.0486 -0.0983
  107OSM   H12T10986   3.790   3.894   9.416 -0.6082 -0.5143 -1.9147
  107OSM   C13S10987   3.717   3.709   9.349  0.5658  0.2741  0.6437
  107OSM   H13S10988   3.611   3.707   9.385  0.8678  0.9684  1.6274
  107OSM   H13T10989   3.745   3.602   9.361  0.5534  0.2464  0.4177
  107OSM   C14S10990   3.732   3.756   9.205  0.1272 -0.0818  0.3359
  107OSM   H14S10991   3.823   3.717   9.155  1.2176  0.3438  1.8835
  107OSM   H14T10992   3.735   3.867   9.205 -0.7622 -0.0260 -1.2905
  107OSM   C15S10993   3.616   3.709   9.121  0.5855 -0.2997 -0.0738
  107OSM   H15S10994   3.603   3.777   9.034 -0.8457 -0.0404  0.3189
  107OSM   H15T10995   3.516   3.713   9.167  1.0398 -2.3980  1.2189
  107OSM   C16S10996   3.626   3.561   9.079 -0.1136  0.1858  1.0047
  107OSM   H16S10997   3.526   3.523   9.047 -0.0343  0.6063  0.2352
  107OSM   H16T10998   3.672   3.505   9.164  0.0189  2.5684  2.6209
  107OSM   C17S10999   3.722   3.529   8.958 -0.5285 -0.5815 -0.4213
  107OSM   H17S11000   3.821   3.537   9.009  0.0087 -1.8034 -1.2146
  107OSM   H17T11001   3.708   3.603   8.876 -2.0701 -0.5213 -0.1226
  107OSM   C18S11002   3.733   3.386   8.918  0.2013  0.2705  0.7152
  107OSM   H18S11003   3.641   3.344   8.872  0.9450 -0.2729 -0.3165
  107OSM   H18T11004   3.748   3.321   9.007  2.2117 -0.2717  0.0214
  107OSM   H18U11005   3.808   3.374   8.837 -0.2451 -0.9833  0.4698
  107OSM    C1F11006   3.330   4.000  10.526 -0.2163 -0.2184  0.2617
  107OSM     OF11007   3.377   4.105  10.567 -0.2629 -0.9185  0.2732
  107OSM    C2F11008   3.183   3.992  10.489  0.0621 -0.0652 -0.5048
  107OSM    H2F11009   3.131   4.027  10.580  1.2559 -1.1136  0.6306
  107OSM    H2G11010   3.153   3.886  10.475 -0.1056 -0.1333  0.3178
  107OSM    C3F11011   3.146   4.073  10.360 -0.7506 -0.4865 -0.0567
  107OSM    H3F11012   3.182   4.178  10.355 -0.3955 -0.6506 -1.1040
  107OSM    H3G11013   3.035   4.080  10.360 -0.6706  1.4001  1.0025
  107OSM    C4F11014   3.205   4.002  10.238  0.0245  0.0031 -0.5005
  107OSM    H4F11015   3.192   3.892  10.246  1.7550 -0.1069  3.1312
  107OSM    H4G11016   3.313   4.015  10.262 -0.6630  1.5373  2.1900
  107OSM    C5F11017   3.168   4.072  10.107 -0.2424  0.7729  0.4210
  107OSM    H5F11018   3.196   4.179  10.101  2.0685  0.2025 -0.1320
  107OSM    H5G11019   3.057   4.069  10.110 -0.2931  2.6914  2.0602
  107OSM    C6F11020   3.229   4.004   9.979 -0.1309 -0.7932  0.4684
  107OSM    H6F11021   3.213   3.895   9.996 -1.7506 -1.0403 -2.0175
  107OSM    H6G11022   3.337   4.016   9.957 -0.0844 -3.3968 -1.1155
  107OSM    C7F11023   3.158   4.036   9.846 -0.5613 -0.8482 -0.6044
  107OSM    H7F11024   3.158   4.145   9.823  2.7485 -0.9027 -1.4627
  107OSM    H7G11025   3.054   3.999   9.850  0.0069 -2.7013 -1.7367
  107OSM    C8F11026   3.213   3.973   9.720  0.0866 -0.2868 -0.0334
  107OSM    H8F11027   3.263   3.875   9.741  1.9907  0.5959 -0.1967
  107OSM    H8G11028   3.298   4.038   9.691 -2.5890  3.4013 -0.2431
  107OSM    C9F11029   3.120   3.972   9.603 -0.3880 -0.2993  0.1734
  107OSM    H9F11030   3.024   3.922   9.622  0.2694 -1.8756 -0.4660
  107OSM   C10F11031   3.143   4.013   9.479 -0.2346 -0.7023  0.7779
  107OSM   H10F11032   3.053   4.004   9.416 -0.8641  1.7294  1.2181
  107OSM   C11F11033   3.269   4.071   9.421  0.2647 -0.1307 -0.1851
  107OSM   H11F11034   3.336   4.123   9.494  1.0306 -1.4452  0.0957
  107OSM   H11G11035   3.239   4.153   9.353 -1.6919  0.2262  1.0285
  107OSM   C12F11036   3.356   3.957   9.361  0.7699  0.0850  0.2012
  107OSM   H12F11037   3.294   3.881   9.309  0.3482  0.4652  0.1486
  107OSM   H12G11038   3.414   3.911   9.444  0.6184 -0.9765 -0.2583
  107OSM   C13F11039   3.462   4.008   9.251  0.7926 -0.5355 -0.2399
  107OSM   H13F11040   3.551   3.943   9.257  0.8971 -0.4326 -0.6301
  107OSM   H13G11041   3.489   4.108   9.291 -2.1775  0.2512  0.0515
  107OSM   C14F11042   3.400   4.019   9.104 -0.2461  0.6217 -0.3290
  107OSM   H14F11043   3.290   4.033   9.114 -0.5887 -1.5952 -0.4656
  107OSM   H14G11044   3.417   3.918   9.061  0.7334  0.0915  1.2270
  107OSM   C15F11045   3.447   4.137   9.016  0.0087 -0.2513  0.1857
  107OSM   H15F11046   3.557   4.146   9.019  0.0917 -0.9940 -0.4324
  107OSM   H15G11047   3.398   4.231   9.050 -1.7271 -1.4091  1.0924
  107OSM   C16F11048   3.422   4.106   8.868 -0.0406 -0.1157  0.4176
  107OSM   H16F11049   3.474   4.010   8.847 -1.2662 -0.2442 -2.5217
  107OSM   H16G11050   3.471   4.171   8.792  0.4202  0.8589  1.5246
  107OSM   C17F11051   3.275   4.097   8.822  0.0712 -0.1406 -0.5606
  107OSM   H17F11052   3.213   4.185   8.849  0.3606  0.7891 -2.7347
  107OSM   H17G11053   3.234   4.014   8.883  0.2344  0.9931  1.1580
  107OSM   C18F11054   3.270   4.050   8.675  0.4384  0.3110 -0.5315
  107OSM   H18F11055   3.164   4.042   8.641  0.4196  1.4969 -0.8082
  107OSM   H18G11056   3.326   3.956   8.661 -2.0541 -1.2844 -0.4527
  107OSM   H18H11057   3.316   4.136   8.622  0.2188  1.7171  1.4225
  108OSM      N11058   1.171   1.235  10.613 -0.1771 -1.0302  0.3146
  108OSM    C1511059   1.278   1.172  10.699  0.1081  0.3476  0.0194
  108OSM   H15A11060   1.367   1.234  10.703 -0.3745  1.0450  0.0256
  108OSM   H15B11061   1.309   1.084  10.644  1.7356  1.2105 -0.5269
  108OSM   H15C11062   1.240   1.150  10.798  1.5637  1.4617  0.8755
  108OSM    C1411063   1.110   1.342  10.689 -0.0667 -0.1165 -0.4724
  108OSM   H14A11064   1.183   1.416  10.718  0.7225 -0.9001 -0.4290
  108OSM   H14B11065   1.060   1.303  10.777 -1.4580 -0.8750 -1.5638
  108OSM   H14C11066   1.035   1.395  10.632  1.1942  2.7206  0.3267
  108OSM    C1311067   1.240   1.288  10.492 -0.2568  0.2836  0.5786
  108OSM   H13A11068   1.339   1.327  10.510  1.2060 -1.8656 -1.9891
  108OSM   H13B11069   1.181   1.363  10.441  1.4918  1.4409  0.1639
  108OSM   H13C11070   1.250   1.207  10.420 -2.4707  0.6757 -0.2480
  108OSM    C1211071   1.073   1.131  10.566 -0.4010  0.2459  0.0819
  108OSM   H12A11072   1.126   1.077  10.489 -0.1754  1.4332 -0.6163
  108OSM   H12B11073   0.989   1.180  10.519  1.4752  0.9856 -2.7026
  108OSM    C1111074   1.011   1.034  10.674  0.1702 -0.1967 -0.4379
  108OSM   H11A11075   1.085   0.984  10.740 -0.2668  0.8273  0.8871
  108OSM   H11B11076   0.950   0.953  10.629  0.5002 -1.0243  0.5753
  108OSM      P11077   0.800   1.185  10.725 -0.4833  0.1747 -0.0890
  108OSM    O1311078   0.678   1.131  10.786 -0.2635 -0.0185  0.3142
  108OSM    O1411079   0.819   1.331  10.755  0.0314  0.7634  0.6278
  108OSM    O1111080   0.792   1.163  10.570 -0.1319 -0.3273  0.2443
  108OSM    O1211081   0.928   1.104  10.772 -0.7354 -0.4781 -0.1673
  108OSM    C1S11082   0.704   1.242  10.491  0.4411 -0.0141 -0.4372
  108OSM    H1S11083   0.755   1.339  10.472  1.3850 -0.3982  0.1222
  108OSM    H1T11084   0.604   1.246  10.540 -0.0099 -0.9383 -1.2541
  108OSM     NF11085   0.612   1.283  10.268  0.4980  0.4301 -0.1951
  108OSM    HNF11086   0.513   1.271  10.260  0.6183 -0.7293 -0.0303
  108OSM    C2S11087   0.672   1.182  10.354 -0.0654 -0.3518  0.3673
  108OSM    H2S11088   0.772   1.157  10.312 -0.0619 -0.5060  0.4676
  108OSM    C3S11089   0.584   1.049  10.354  0.5941  0.5654  0.4461
  108OSM    H3S11090   0.480   1.079  10.376  0.8610  2.5445 -0.8060
  108OSM     O311091   0.610   0.955  10.463 -0.2374  0.1013 -0.0513
  108OSM    HO311092   0.673   1.001  10.520  1.7390  0.4466 -2.3145
  108OSM    C4S11093   0.596   0.984  10.218  0.5063  0.3782  0.2206
  108OSM    H4S11094   0.535   1.031  10.140 -0.0301  1.5409  1.3047
  108OSM    C5S11095   0.677   0.880  10.187  0.3249 -0.4765  0.2487
  108OSM    H5S11096   0.751   0.842  10.259  1.4422 -0.3321 -0.8094
  108OSM    C6S11097   0.704   0.824  10.053 -0.0557  0.4309 -0.7749
  108OSM    H6S11098   0.666   0.720  10.053 -2.3366  1.0401  3.3292
  108OSM    H6T11099   0.816   0.823  10.051  0.0070  0.6454  0.8300
  108OSM    C7S11100   0.638   0.894   9.927  0.5761  0.4544 -0.2212
  108OSM    H7S11101   0.659   1.002   9.916  3.5255 -0.1437 -1.6610
  108OSM    H7T11102   0.530   0.871   9.935  0.7897 -0.0552  1.4748
  108OSM    C8S11103   0.686   0.833   9.794  0.1729  0.4427  0.1622
  108OSM    H8S11104   0.672   0.724   9.782  3.4934  0.0320 -1.0095
  108OSM    H8T11105   0.795   0.855   9.794  0.6562 -1.7732  0.4541
  108OSM    C9S11106   0.639   0.896   9.666  0.0841 -0.0906 -0.1609
  108OSM    H9S11107   0.675   1.000   9.680  1.5566 -0.7309  1.1414
  108OSM    H9T11108   0.528   0.895   9.654  0.3327 -1.2099 -3.0921
  108OSM   C10S11109   0.693   0.837   9.539  0.3031 -0.4374  0.4649
  108OSM   H10S11110   0.643   0.741   9.511  2.0461 -1.1912 -0.1864
  108OSM   H10T11111   0.797   0.804   9.561  0.3149  0.1473  1.3244
  108OSM   C11S11112   0.688   0.934   9.427 -0.2477 -0.7082 -0.4272
  108OSM   H11S11113   0.760   1.017   9.444 -1.2411  0.5302 -1.8645
  108OSM   H11T11114   0.587   0.982   9.422  1.2349  2.6446 -1.3923
  108OSM   C12S11115   0.740   0.879   9.295  0.0455 -0.2115  0.2337
  108OSM   H12S11116   0.673   0.797   9.260  1.3197 -1.9051  1.5976
  108OSM   H12T11117   0.837   0.828   9.311  1.4371  2.1035 -0.3686
  108OSM   C13S11118   0.760   0.987   9.186  0.4328  0.4061  0.1411
  108OSM   H13S11119   0.822   1.070   9.227  1.0188 -0.9086  2.0888
  108OSM   H13T11120   0.658   1.024   9.160  0.2810  1.5494  2.1317
  108OSM   C14S11121   0.820   0.919   9.059 -0.4144 -0.1490  0.5397
  108OSM   H14S11122   0.739   0.867   9.004  0.0068 -0.8692  0.5860
  108OSM   H14T11123   0.899   0.847   9.089 -1.7538 -1.5663  0.7908
  108OSM   C15S11124   0.883   1.026   8.964  0.0521  0.2425  0.1607
  108OSM   H15S11125   0.965   1.083   9.011 -0.8258  1.2642  0.5053
  108OSM   H15T11126   0.796   1.090   8.936 -0.9988  0.1520  2.8641
  108OSM   C16S11127   0.923   0.979   8.825 -1.4986  0.9364  0.0926
  108OSM   H16S11128   0.987   1.054   8.775  1.2760 -0.8477  0.7538
  108OSM   H16T11129   0.830   0.968   8.764 -0.9429 -0.9689 -0.5005
  108OSM   C17S11130   1.005   0.851   8.812 -0.2451 -0.4168 -0.4898
  108OSM   H17S11131   0.939   0.770   8.851 -1.7494  0.4487 -1.1530
  108OSM   H17T11132   1.087   0.856   8.887  0.4258 -0.6425 -1.1988
  108OSM   C18S11133   1.058   0.810   8.678 -0.2943 -0.4702  0.1239
  108OSM   H18S11134   1.000   0.844   8.590  0.4747  0.5355 -0.0164
  108OSM   H18T11135   1.082   0.702   8.684  1.5874 -0.0479  5.1884
  108OSM   H18U11136   1.155   0.864   8.664 -0.4749  0.8697  3.1492
  108OSM    C1F11137   0.671   1.392  10.225 -0.5920 -0.7582  0.2936
  108OSM     OF11138   0.790   1.397  10.254  0.4384 -0.4866  0.1556
  108OSM    C2F11139   0.599   1.493  10.149  0.1952 -0.0201 -0.3877
  108OSM    H2F11140   0.617   1.583  10.211  1.1036 -0.1819 -0.3998
  108OSM    H2G11141   0.491   1.466  10.144  0.3061 -0.6276  0.2794
  108OSM    C3F11142   0.660   1.521  10.009  0.5425  0.7430  0.0809
  108OSM    H3F11143   0.770   1.518  10.025  0.2223  0.8006  2.7973
  108OSM    H3G11144   0.629   1.623   9.977 -0.4948  0.2105 -0.6409
  108OSM    C4F11145   0.610   1.423   9.900  0.0124  1.0255  0.4891
  108OSM    H4F11146   0.499   1.425   9.909  0.0478 -0.3041  1.4409
  108OSM    H4G11147   0.645   1.320   9.921 -1.4013 -0.0224 -1.9292
  108OSM    C5F11148   0.659   1.464   9.759 -0.0512 -0.1175 -0.6329
  108OSM    H5F11149   0.769   1.450   9.755 -0.2442 -1.2728 -2.7813
  108OSM    H5G11150   0.630   1.567   9.729 -1.5475  0.3617  2.1112
  108OSM    C6F11151   0.609   1.368   9.655 -0.2316  0.6634  0.3453
  108OSM    H6F11152   0.514   1.408   9.613 -0.3073 -0.6872 -0.8385
  108OSM    H6G11153   0.582   1.271   9.702 -0.2265  0.9034  0.8516
  108OSM    C7F11154   0.708   1.341   9.536 -1.0438  0.0174  0.0701
  108OSM    H7F11155   0.656   1.265   9.475 -0.1155 -0.7879  0.2500
  108OSM    H7G11156   0.805   1.302   9.574 -0.0870  1.0009 -1.2755
  108OSM    C8F11157   0.743   1.456   9.455  0.5574  0.4821 -0.1271
  108OSM    H8F11158   0.774   1.537   9.524  0.5588  0.3608  0.0149
  108OSM    H8G11159   0.648   1.494   9.412 -0.4182 -1.0486  0.5675
  108OSM    C9F11160   0.850   1.425   9.351 -0.6891 -0.2975 -0.1205
  108OSM    H9F11161   0.948   1.439   9.398 -0.7131  1.4256 -0.5352
  108OSM   C10F11162   0.838   1.413   9.223  0.1479  0.1591  0.4097
  108OSM   H10F11163   0.931   1.398   9.166 -0.1986 -1.6640  0.2558
  108OSM   C11F11164   0.705   1.424   9.154 -0.4397 -0.1695 -0.4632
  108OSM   H11F11165   0.712   1.503   9.076  0.4401 -2.2775 -2.6301
  108OSM   H11G11166   0.614   1.444   9.215  0.5000  0.1267  0.8949
  108OSM   C12F11167   0.674   1.305   9.068  0.8476 -0.9785 -0.0655
  108OSM   H12F11168   0.617   1.232   9.130  0.1009 -1.4362 -1.2354
  108OSM   H12G11169   0.767   1.262   9.026  0.2453 -1.2097 -1.2147
  108OSM   C13F11170   0.586   1.333   8.942 -1.2905  0.3951  0.4063
  108OSM   H13F11171   0.499   1.397   8.966 -0.5819  0.5984  2.6535
  108OSM   H13G11172   0.563   1.233   8.899  2.0245 -0.2954 -0.0265
  108OSM   C14F11173   0.672   1.402   8.827  0.4270 -0.1503 -0.5893
  108OSM   H14F11174   0.761   1.337   8.811  0.3408 -1.1780  2.4290
  108OSM   H14G11175   0.696   1.507   8.854  1.4472 -0.1865 -1.3145
  108OSM   C15F11176   0.583   1.408   8.700  0.5591 -0.5979  0.3145
  108OSM   H15F11177   0.638   1.476   8.631 -2.5788  0.4541 -1.3710
  108OSM   H15G11178   0.481   1.447   8.716 -0.4740 -1.9717 -2.3143
  108OSM   C16F11179   0.569   1.277   8.625  0.7677  0.6924  0.6978
  108OSM   H16F11180   0.537   1.299   8.521  0.4935  1.0680  0.8618
  108OSM   H16G11181   0.491   1.208   8.663  2.2627 -2.3235 -1.2572
  108OSM   C17F11182   0.700   1.203   8.604 -0.5580  0.0129  0.5280
  108OSM   H17F11183   0.733   1.172   8.705  2.4115  1.5505  0.1348
  108OSM   H17G11184   0.769   1.285   8.573 -1.0889  0.4665  0.5167
  108OSM   C18F11185   0.676   1.077   8.514 -0.7636  0.8580 -0.4792
  108OSM   H18F11186   0.586   1.064   8.451  0.3716  0.6105 -2.1336
  108OSM   H18G11187   0.675   0.981   8.568 -4.2884  1.6267  1.0645
  108OSM   H18H11188   0.769   1.059   8.456 -0.7525 -1.4809  0.1805
  109OSM      N11189   6.799   1.704  10.769 -1.1450 -0.5414  0.2975
  109OSM    C1511190   6.665   1.765  10.801  0.2026  0.2956  0.2800
  109OSM   H15A11191   6.630   1.794  10.702 -0.1044  1.1669  0.6337
  109OSM   H15B11192   6.664   1.848  10.870 -2.5345 -0.7878  1.6543
  109OSM   H15C11193   6.598   1.690  10.839  0.6598 -0.7293 -0.8317
  109OSM    C1411194   6.877   1.687  10.899  0.0548 -0.5928  0.4556
  109OSM   H14A11195   6.893   1.786  10.939 -3.3032  0.6260 -0.8357
  109OSM   H14B11196   6.970   1.639  10.876  1.3708  2.2207 -0.5017
  109OSM   H14C11197   6.823   1.637  10.979  2.0612  2.3726  3.9483
  109OSM    C1311198   6.781   1.563  10.729  0.2788 -0.1080 -0.3879
  109OSM   H13A11199   6.767   1.490  10.808  0.2328  0.4601  0.1370
  109OSM   H13B11200   6.857   1.536  10.657 -1.1016  0.2125 -2.0197
  109OSM   H13C11201   6.693   1.553  10.668  0.7367  1.7475 -1.4268
  109OSM    C1211202   6.876   1.789  10.672  0.2852  0.0810  0.2775
  109OSM   H12A11203   6.975   1.755  10.647 -0.0960  0.0681 -1.3595
  109OSM   H12B11204   6.881   1.892  10.706 -0.3336  0.4187 -0.5945
  109OSM    C1111205   6.810   1.812  10.534  0.4739 -0.1745  0.1113
  109OSM   H11A11206   6.792   1.713  10.488  3.2796 -1.2026  1.0156
  109OSM   H11B11207   6.882   1.859  10.464  0.9491 -1.1325 -0.0667
  109OSM      P11208   6.569   1.873  10.461  0.0157 -0.2849  0.4162
  109OSM    O1311209   6.505   1.742  10.485 -0.2471  0.5915  0.3786
  109OSM    O1411210   6.482   1.991  10.489 -0.2521 -0.4521  0.6581
  109OSM    O1111211   6.620   1.877  10.307  0.0854  0.0101  0.3020
  109OSM    O1211212   6.699   1.899  10.553 -0.4441  0.2860  0.2219
  109OSM    C1S11213   6.670   2.002  10.259 -0.2327 -0.3403  0.2089
  109OSM    H1S11214   6.758   2.043  10.313 -1.0465  0.3029  1.0792
  109OSM    H1T11215   6.594   2.081  10.277  0.8191  0.6313  0.5389
  109OSM     NF11216   6.769   2.142  10.082 -0.1011 -0.2892  0.0225
  109OSM    HNF11217   6.710   2.213  10.046 -1.2379  1.7028  4.9325
  109OSM    C2S11218   6.703   2.020  10.105  0.1051  0.0812  0.4297
  109OSM    H2S11219   6.766   1.937  10.068 -2.1722 -0.0113 -3.8421
  109OSM    C3S11220   6.578   2.010  10.016  0.1171  0.3920  0.2080
  109OSM    H3S11221   6.519   2.099  10.047 -0.4684 -0.7141  2.5099
  109OSM     O311222   6.503   1.896  10.032 -0.8162 -0.4910 -0.2698
  109OSM    HO311223   6.530   1.875  10.122 -0.0490  0.4916 -0.2573
  109OSM    C4S11224   6.610   2.025   9.873  0.1040 -0.0135 -0.4147
  109OSM    H4S11225   6.667   1.939   9.834 -2.2661 -1.5983 -0.5464
  109OSM    C5S11226   6.580   2.124   9.788  0.9065 -0.1011 -0.2325
  109OSM    H5S11227   6.519   2.209   9.822  0.5163 -0.4269 -0.1082
  109OSM    C6S11228   6.630   2.147   9.648  0.5057  0.1869 -0.6854
  109OSM    H6S11229   6.741   2.155   9.651  0.6508 -1.4586 -0.0969
  109OSM    H6T11230   6.584   2.241   9.614  0.0693  0.0227 -0.5586
  109OSM    C7S11231   6.597   2.039   9.546  0.5226  0.4790  0.3523
  109OSM    H7S11232   6.504   1.994   9.586  0.0900  0.4467 -0.6590
  109OSM    H7T11233   6.658   1.946   9.553 -1.8408 -1.3498 -1.4868
  109OSM    C8S11234   6.593   2.081   9.399 -0.7133  0.1232 -0.3947
  109OSM    H8S11235   6.590   1.993   9.330  0.4040  0.6300 -1.1239
  109OSM    H8T11236   6.686   2.136   9.374 -0.5604  0.1132  0.1422
  109OSM    C9S11237   6.475   2.162   9.351  0.4212  0.2507  0.1148
  109OSM    H9S11238   6.469   2.255   9.412 -0.3534 -0.0557  0.5326
  109OSM    H9T11239   6.389   2.095   9.372  0.9497  0.3140  2.9280
  109OSM   C10S11240   6.469   2.209   9.198  0.2215 -0.0263 -0.2164
  109OSM   H10S11241   6.543   2.285   9.167 -2.5992  1.9517 -2.6536
  109OSM   H10T11242   6.373   2.265   9.197 -1.0966 -2.1566  0.0831
  109OSM   C11S11243   6.470   2.089   9.107 -0.2195 -0.3365  0.0113
  109OSM   H11S11244   6.377   2.028   9.116  0.3681 -1.0147  1.9033
  109OSM   H11T11245   6.558   2.023   9.124 -0.2272 -0.0774  1.1356
  109OSM   C12S11246   6.483   2.134   8.959  0.7298  0.4068  0.0896
  109OSM   H12S11247   6.477   2.040   8.901  1.4936 -1.1096  2.3290
  109OSM   H12T11248   6.589   2.167   8.949  0.7421  0.3048 -0.1214
  109OSM   C13S11249   6.386   2.236   8.897  0.4811 -0.7932  0.5519
  109OSM   H13S11250   6.380   2.328   8.959 -0.4533  0.5632 -1.4518
  109OSM   H13T11251   6.287   2.186   8.890 -0.0397  0.2963  0.0258
  109OSM   C14S11252   6.429   2.274   8.745  0.4003 -0.3822 -0.1916
  109OSM   H14S11253   6.432   2.181   8.684  1.4284 -0.2115 -0.4164
  109OSM   H14T11254   6.530   2.320   8.754 -0.1307  0.5420  1.3417
  109OSM   C15S11255   6.333   2.377   8.684  0.0030  0.2896 -0.1007
  109OSM   H15S11256   6.228   2.342   8.675 -0.0678  0.7319 -1.0932
  109OSM   H15T11257   6.360   2.389   8.577  1.9355 -0.9608  0.1956
  109OSM   C16S11258   6.320   2.510   8.755 -0.7307 -0.5048  0.3082
  109OSM   H16S11259   6.291   2.492   8.861 -1.6223 -0.6110  0.0539
  109OSM   H16T11260   6.241   2.573   8.710  0.6794  2.1693  1.3699
  109OSM   C17S11261   6.453   2.594   8.771  0.0664 -0.8067  1.2489
  109OSM   H17S11262   6.533   2.526   8.808  0.9539  0.1071  1.0551
  109OSM   H17T11263   6.448   2.673   8.848  2.3438  0.1918  0.4486
  109OSM   C18S11264   6.501   2.653   8.631 -0.0405 -0.2708 -0.2641
  109OSM   H18S11265   6.433   2.736   8.600  0.5974  0.8762  1.3104
  109OSM   H18T11266   6.501   2.578   8.549  0.6897 -0.1868 -0.3444
  109OSM   H18U11267   6.606   2.689   8.637  0.1019 -0.9707  2.6857
  109OSM    C1F11268   6.896   2.160  10.103  0.2495  0.2259 -0.1087
  109OSM     OF11269   6.954   2.091  10.185 -0.4924 -0.3038 -0.1827
  109OSM    C2F11270   6.963   2.265  10.028  0.9228 -0.0038  0.1064
  109OSM    H2F11271   6.998   2.340  10.102  0.2604  0.2679  0.1552
  109OSM    H2G11272   6.890   2.323   9.968 -0.3346 -1.0331  0.5849
  109OSM    C3F11273   7.085   2.221   9.945  1.0476 -0.1956 -0.1568
  109OSM    H3F11274   7.157   2.176  10.017  0.9807  0.8843  0.6156
  109OSM    H3G11275   7.157   2.299   9.913  1.9152 -0.7417  0.4167
  109OSM    C4F11276   7.051   2.127   9.829 -0.7862 -0.7371  0.3151
  109OSM    H4F11277   6.959   2.070   9.854 -1.7559  0.7206  0.1601
  109OSM    H4G11278   7.135   2.055   9.817 -0.2907 -0.6085  2.5912
  109OSM    C5F11279   7.029   2.202   9.691  0.6467 -0.1371 -0.9426
  109OSM    H5F11280   7.114   2.273   9.683 -0.5902  1.7571  1.4097
  109OSM    H5G11281   6.942   2.271   9.703 -0.4552 -1.4693 -0.9685
  109OSM    C6F11282   7.027   2.118   9.567  0.0457  0.4889  0.4680
  109OSM    H6F11283   6.949   2.038   9.563 -1.5687  2.0335 -0.3278
  109OSM    H6G11284   7.119   2.056   9.573 -0.5569 -0.5370 -0.4932
  109OSM    C7F11285   7.019   2.200   9.436 -0.1962 -0.3346 -0.8594
  109OSM    H7F11286   7.094   2.282   9.433  0.4520 -0.8398  0.5397
  109OSM    H7G11287   6.915   2.240   9.438 -0.2911 -0.5801  0.6615
  109OSM    C8F11288   7.036   2.113   9.308  0.5210 -0.7331 -0.1133
  109OSM    H8F11289   6.945   2.050   9.317 -2.8092  3.7772  2.8822
  109OSM    H8G11290   7.130   2.055   9.308 -0.2081 -2.1583 -3.3762
  109OSM    C9F11291   7.047   2.196   9.179 -0.0188  0.2387 -0.8670
  109OSM    H9F11292   7.120   2.279   9.181  1.6748 -1.1607 -2.0249
  109OSM   C10F11293   6.968   2.191   9.068 -0.2736  0.0799 -0.7810
  109OSM   H10F11294   6.985   2.257   8.981  0.1870  0.8613 -0.1203
  109OSM   C11F11295   6.849   2.104   9.049 -0.2325 -0.1078  0.7815
  109OSM   H11F11296   6.769   2.169   9.007  0.7341  1.7668  1.7096
  109OSM   H11G11297   6.816   2.043   9.135 -2.3588 -2.4593 -1.5137
  109OSM   C12F11298   6.880   1.999   8.939  0.1114  0.4944 -0.3266
  109OSM   H12F11299   6.804   1.917   8.938  0.6058  0.0180  0.3299
  109OSM   H12G11300   6.972   1.942   8.962 -0.9081 -0.9540  0.3471
  109OSM   C13F11301   6.880   2.067   8.800  0.6367 -0.4453 -0.0006
  109OSM   H13F11302   6.976   2.124   8.795  0.1315  0.4717  0.5428
  109OSM   H13G11303   6.811   2.154   8.796  1.7789  0.4822 -0.3092
  109OSM   C14F11304   6.858   1.984   8.679 -0.0898  0.1691 -0.2448
  109OSM   H14F11305   6.786   1.907   8.712 -0.1774  0.3740  0.0451
  109OSM   H14G11306   6.950   1.923   8.660  1.1828  1.2878  1.9244
  109OSM   C15F11307   6.812   2.061   8.543 -0.0721  0.2350  0.2940
  109OSM   H15F11308   6.733   2.136   8.562  1.5889  1.9992  0.5988
  109OSM   H15G11309   6.768   1.983   8.477 -0.0199  0.8269 -0.4470
  109OSM   C16F11310   6.924   2.111   8.460  0.2341  0.4063 -0.1413
  109OSM   H16F11311   6.983   2.177   8.527  1.3667 -2.7322  2.1775
  109OSM   H16G11312   6.884   2.186   8.388 -0.2089 -1.2178 -1.6463
  109OSM   C17F11313   7.014   2.025   8.378 -0.4003 -0.2004 -0.2422
  109OSM   H17F11314   7.050   1.936   8.433  0.8103 -0.1629 -0.9350
  109OSM   H17G11315   7.111   2.071   8.349 -0.7967  0.7632 -0.0909
  109OSM   C18F11316   6.938   1.957   8.261  0.3995 -0.1154 -0.4162
  109OSM   H18F11317   7.011   1.897   8.203  1.1217  0.6955 -0.3627
  109OSM   H18G11318   6.889   2.038   8.204 -1.0052  1.7262  3.1116
  109OSM   H18H11319   6.860   1.888   8.299 -1.8060  2.2064 -0.4974
  110OSM      N11320   4.277   0.849  10.447 -0.6367  0.8201 -0.2074
  110OSM    C1511321   4.411   0.894  10.485 -0.4087 -0.3427  0.1581
  110OSM   H15A11322   4.418   1.001  10.501  0.3994 -0.3704  0.0218
  110OSM   H15B11323   4.464   0.862  10.397 -2.5378  1.4400 -1.8990
  110OSM   H15C11324   4.462   0.840  10.563  0.4924 -2.7230 -1.9592
  110OSM    C1411325   4.286   0.698  10.405  0.5463 -0.2982 -0.1993
  110OSM   H14A11326   4.191   0.652  10.381  1.0492 -0.7071 -1.4960
  110OSM   H14B11327   4.348   0.646  10.476  1.9416 -0.2677 -1.3552
  110OSM   H14C11328   4.343   0.695  10.313 -0.4803  3.6278 -1.1470
  110OSM    C1311329   4.183   0.851  10.568  0.6033  0.2511 -0.5235
  110OSM   H13A11330   4.228   0.790  10.644  0.2174  0.8371  0.1908
  110OSM   H13B11331   4.089   0.808  10.538  0.1796  1.4518 -0.9996
  110OSM   H13C11332   4.154   0.953  10.590 -0.3505 -0.2413  0.5451
  110OSM    C1211333   4.220   0.938  10.336  0.7414  0.6194  0.2478
  110OSM   H12A11334   4.125   0.904  10.299  2.1886 -2.3490 -1.0209
  110OSM   H12B11335   4.289   0.925  10.254 -0.2770 -2.0040 -0.2996
  110OSM    C1111336   4.208   1.091  10.368 -0.9496 -0.1815 -0.1100
  110OSM   H11A11337   4.158   1.141  10.282  1.7470  3.0332 -0.0166
  110OSM   H11B11338   4.316   1.116  10.373 -0.8311 -0.8163  0.5594
  110OSM      P11339   4.171   1.257  10.559 -0.2141  0.1871 -0.1756
  110OSM    O1311340   4.071   1.273  10.679 -0.1274 -0.8967 -0.1349
  110OSM    O1411341   4.319   1.269  10.584 -0.4986 -0.6105  0.0729
  110OSM    O1111342   4.132   1.368  10.448 -0.7694  0.5373  0.1059
  110OSM    O1211343   4.140   1.117  10.492  0.0763 -0.4134  0.5265
  110OSM    C1S11344   3.994   1.363  10.398  0.2580  0.9306 -0.4013
  110OSM    H1S11345   3.924   1.388  10.480 -1.1381  0.7769 -1.5074
  110OSM    H1T11346   3.958   1.259  10.385  2.5023 -0.1781  1.4710
  110OSM     NF11347   3.827   1.464  10.245 -0.0265  0.6000 -0.2148
  110OSM    HNF11348   3.777   1.413  10.176 -0.2547  1.0324 -0.3687
  110OSM    C2S11349   3.967   1.442  10.263 -0.3846  0.3360  0.5530
  110OSM    H2S11350   4.024   1.536  10.284  1.7330 -1.0874  1.4804
  110OSM    C3S11351   4.035   1.355  10.156 -0.1809 -0.0741  0.9663
  110OSM    H3S11352   3.990   1.254  10.146  1.5564 -0.7789 -0.3908
  110OSM     O311353   4.173   1.343  10.181 -0.3711  0.4503  0.1852
  110OSM    HO311354   4.190   1.364  10.273 -0.1751 -2.5041  0.9363
  110OSM    C4S11355   4.000   1.420  10.022 -0.0696 -0.5227  0.5881
  110OSM    H4S11356   3.897   1.398   9.988  0.1088  1.2785 -1.3096
  110OSM    C5S11357   4.070   1.492   9.934 -0.7631  0.1172 -0.1316
  110OSM    H5S11358   4.171   1.518   9.970 -0.9686 -0.4116  0.8386
  110OSM    C6S11359   4.031   1.568   9.815 -0.0144  0.5396  0.1586
  110OSM    H6S11360   4.078   1.668   9.831  0.1105  0.5712 -0.3928
  110OSM    H6T11361   3.922   1.569   9.796 -0.6547 -4.8327  1.7811
  110OSM    C7S11362   4.091   1.513   9.686 -0.0569  0.0317  0.3082
  110OSM    H7S11363   4.054   1.410   9.668  1.7389 -0.6696  0.4274
  110OSM    H7T11364   4.199   1.503   9.705 -0.1736  1.9464  2.5049
  110OSM    C8S11365   4.068   1.609   9.564  0.2980 -0.2173 -0.4253
  110OSM    H8S11366   4.119   1.705   9.588 -1.8701  1.2472 -1.3776
  110OSM    H8T11367   3.959   1.630   9.560  0.2671 -0.5413 -1.5518
  110OSM    C9S11368   4.116   1.552   9.433 -0.4699 -0.3426 -0.0335
  110OSM    H9S11369   4.062   1.461   9.400  3.2265 -3.1523  1.0294
  110OSM    H9T11370   4.223   1.524   9.433 -0.1675  0.7777 -0.2184
  110OSM   C10S11371   4.108   1.653   9.321  0.5859 -0.5073  0.2836
  110OSM   H10S11372   4.197   1.718   9.335  1.0485 -0.9308 -0.6665
  110OSM   H10T11373   4.013   1.710   9.329 -0.7990 -2.8714  2.2204
  110OSM   C11S11374   4.117   1.612   9.170 -0.3382  0.0110  0.1505
  110OSM   H11S11375   4.191   1.531   9.154 -1.5626 -1.1990  0.3786
  110OSM   H11T11376   4.156   1.699   9.113  0.2174  0.8699  1.7734
  110OSM   C12S11377   3.990   1.564   9.098  0.2924  0.4068  1.1012
  110OSM   H12S11378   3.899   1.624   9.120  1.0356  3.0238 -2.0700
  110OSM   H12T11379   3.973   1.458   9.124  0.3351 -0.0282 -0.5496
  110OSM   C13S11380   3.996   1.569   8.944  0.1464 -0.2045  0.1102
  110OSM   H13S11381   4.005   1.670   8.899  1.5391 -0.9280 -1.3058
  110OSM   H13T11382   3.898   1.536   8.903  1.3824 -2.8110 -0.9768
  110OSM   C14S11383   4.107   1.499   8.861  0.2828  0.6747 -0.6036
  110OSM   H14S11384   4.121   1.399   8.908  1.9684  2.1383  2.2981
  110OSM   H14T11385   4.210   1.539   8.870  0.7077  0.0068 -2.1045
  110OSM   C15S11386   4.084   1.482   8.713 -0.9950  0.2084 -0.3137
  110OSM   H15S11387   4.077   1.580   8.661 -0.2715  0.7314  0.5492
  110OSM   H15T11388   3.986   1.430   8.701 -1.6233  1.7164 -2.3597
  110OSM   C16S11389   4.193   1.393   8.642 -0.1262 -0.1466 -0.3630
  110OSM   H16S11390   4.288   1.450   8.650 -0.8963  1.0569  0.7135
  110OSM   H16T11391   4.185   1.396   8.531 -0.6912  3.0001 -0.3390
  110OSM   C17S11392   4.207   1.247   8.697  0.3089 -0.3831  0.0437
  110OSM   H17S11393   4.245   1.252   8.801  2.5855 -0.3798 -0.7209
  110OSM   H17T11394   4.284   1.202   8.630  2.1057  1.7715  0.5198
  110OSM   C18S11395   4.082   1.164   8.675 -0.4309 -0.1562 -0.2428
  110OSM   H18S11396   4.106   1.060   8.706  1.5790  0.6264  1.0920
  110OSM   H18T11397   4.056   1.165   8.567 -0.4274  0.0487 -0.2424
  110OSM   H18U11398   4.001   1.198   8.743 -1.4483  1.7010 -2.2698
  110OSM    C1F11399   3.757   1.541  10.332 -0.1356 -0.3340  0.7824
  110OSM     OF11400   3.810   1.619  10.410  0.0917 -0.0882  0.0177
  110OSM    C2F11401   3.610   1.542  10.310 -0.2719 -0.2087 -0.1682
  110OSM    H2F11402   3.560   1.460  10.367  1.2778 -1.1372 -0.0952
  110OSM    H2G11403   3.570   1.517  10.209 -0.7773 -1.3934  0.2986
  110OSM    C3F11404   3.545   1.673  10.359  0.7340 -0.1834  0.0517
  110OSM    H3F11405   3.559   1.742  10.273  0.5010 -0.5487 -0.2832
  110OSM    H3G11406   3.597   1.722  10.444 -0.5553 -1.0833  1.3990
  110OSM    C4F11407   3.391   1.668  10.372  0.0769 -0.6562  0.3899
  110OSM    H4F11408   3.343   1.768  10.386 -1.4106 -1.1354 -0.9734
  110OSM    H4G11409   3.374   1.604  10.461 -0.7120 -1.7463 -0.5218
  110OSM    C5F11410   3.312   1.593  10.265 -0.7790 -0.0768 -0.5039
  110OSM    H5F11411   3.207   1.578  10.301 -0.5924 -0.5679 -0.1599
  110OSM    H5G11412   3.355   1.492  10.250  0.9246  0.8097 -2.0175
  110OSM    C6F11413   3.304   1.667  10.129  0.1686  0.3487 -0.6423
  110OSM    H6F11414   3.406   1.695  10.098  1.3557 -0.1144  2.4609
  110OSM    H6G11415   3.241   1.750  10.167  0.6529  0.4955 -0.1526
  110OSM    C7F11416   3.226   1.581  10.034  0.3945  0.5578 -0.1338
  110OSM    H7F11417   3.130   1.543  10.074  1.1210 -1.6919 -0.3478
  110OSM    H7G11418   3.286   1.494   9.999 -1.0054  0.0800 -1.4581
  110OSM    C8F11419   3.200   1.643   9.895 -0.3848 -0.1994 -0.1111
  110OSM    H8F11420   3.303   1.674   9.866 -0.0195 -2.2108 -1.1624
  110OSM    H8G11421   3.137   1.734   9.902  1.5934  1.1747  0.9094
  110OSM    C9F11422   3.152   1.533   9.799 -0.1185  0.2720  0.3826
  110OSM    H9F11423   3.133   1.439   9.852 -2.1692 -0.2355 -1.1413
  110OSM   C10F11424   3.120   1.560   9.673  0.0513 -0.5787 -0.2036
  110OSM   H10F11425   3.101   1.476   9.605  0.5001 -0.4966 -0.4355
  110OSM   C11F11426   3.131   1.699   9.606 -0.3122 -0.1843 -0.9273
  110OSM   H11F11427   3.201   1.763   9.664 -1.8653 -0.6365  1.5742
  110OSM   H11G11428   3.032   1.749   9.597  0.1093  1.1425  1.0584
  110OSM   C12F11429   3.165   1.688   9.458 -0.3402  0.1752 -0.0783
  110OSM   H12F11430   3.083   1.624   9.420 -1.4135  1.2572  0.3379
  110OSM   H12G11431   3.256   1.625   9.451 -0.8209 -0.8465  1.9384
  110OSM   C13F11432   3.171   1.815   9.378 -0.3645 -0.1705 -0.3685
  110OSM   H13F11433   3.210   1.894   9.446 -0.5497 -0.9610  0.6716
  110OSM   H13G11434   3.066   1.839   9.350 -0.1289  0.3517 -0.8352
  110OSM   C14F11435   3.233   1.796   9.239 -0.2688  0.1646  0.4897
  110OSM   H14F11436   3.178   1.713   9.190  1.9692 -1.3143  0.3439
  110OSM   H14G11437   3.340   1.767   9.238 -0.4969 -0.8257 -1.9809
  110OSM   C15F11438   3.215   1.921   9.151  0.1802 -0.3702  0.4527
  110OSM   H15F11439   3.268   2.009   9.194 -0.9214 -0.7326  2.6766
  110OSM   H15G11440   3.105   1.937   9.145  0.0634  0.8478  3.7744
  110OSM   C16F11441   3.260   1.890   9.006 -0.0009  0.0844 -0.7134
  110OSM   H16F11442   3.181   1.829   8.958 -0.2069 -1.3432  1.3035
  110OSM   H16G11443   3.352   1.828   9.005 -0.3792 -0.4730 -1.3022
  110OSM   C17F11444   3.272   2.002   8.910  0.4275  0.2470 -0.6183
  110OSM   H17F11445   3.354   2.071   8.942 -1.4167  3.2713 -1.9118
  110OSM   H17G11446   3.175   2.054   8.918  0.4052 -0.0707  1.6459
  110OSM   C18F11447   3.296   1.956   8.765  0.3270  0.2287  0.5711
  110OSM   H18F11448   3.368   1.872   8.754 -0.3111 -0.4855  1.6413
  110OSM   H18G11449   3.323   2.042   8.700 -0.0306  1.1964  1.6553
  110OSM   H18H11450   3.200   1.916   8.724  1.9768 -0.8988 -2.5347
  111OSM      N11451   3.077   4.809  10.926  0.0425 -0.6022 -0.4323
  111OSM    C1511452   3.122   4.946  10.861  0.0988 -0.2508  0.0969
  111OSM   H15A11453   3.124   5.018  10.941 -0.9425 -0.1542  0.0510
  111OSM   H15B11454   3.048   4.971  10.786  1.2117  0.9913 -0.6360
  111OSM   H15C11455   3.222   4.934  10.822 -0.1205 -1.4314 -0.1645
  111OSM    C1411456   3.150   4.795  11.054  0.8268  0.3312  0.0493
  111OSM   H14A11457   3.131   4.882  11.116  3.0369  1.1216 -0.3098
  111OSM   H14B11458   3.255   4.788  11.032  0.4271 -0.9777 -1.6121
  111OSM   H14C11459   3.118   4.705  11.103  0.5022  0.0255 -0.7072
  111OSM    C1311460   2.931   4.827  10.969 -0.1890  0.2133 -0.3328
  111OSM   H13A11461   2.927   4.916  11.029  0.9501  0.5063 -0.6556
  111OSM   H13B11462   2.901   4.746  11.033  0.0279 -0.2108 -0.7650
  111OSM   H13C11463   2.860   4.824  10.887  1.4016  0.1567 -1.7657
  111OSM    C1211464   3.100   4.688  10.841 -0.5099 -0.0927 -0.5571
  111OSM   H12A11465   3.206   4.676  10.826  0.1262  2.5894  1.2009
  111OSM   H12B11466   3.050   4.701  10.746  2.5593  0.6530 -2.2018
  111OSM    C1111467   3.047   4.547  10.888  0.2457  0.0500 -0.0829
  111OSM   H11A11468   3.099   4.533  10.985  0.6710  0.1070 -0.3034
  111OSM   H11B11469   3.081   4.471  10.815 -2.7903 -0.8808 -0.7074
  111OSM      P11470   2.811   4.527  10.795 -0.0462 -0.0281 -0.2338
  111OSM    O1311471   2.787   4.381  10.784 -0.0961 -0.5735  0.6115
  111OSM    O1411472   2.687   4.608  10.826 -0.0909  0.4927 -0.3131
  111OSM    O1111473   2.892   4.592  10.673 -0.3363 -0.3960 -0.4767
  111OSM    O1211474   2.907   4.551  10.918 -0.3046  0.4099 -0.2520
  111OSM    C1S11475   2.913   4.524  10.551 -0.0370  0.0508 -0.0803
  111OSM    H1S11476   2.880   4.419  10.537  0.6334 -0.2505  0.5390
  111OSM    H1T11477   3.023   4.514  10.546  0.2250  1.5831  1.5151
  111OSM     NF11478   2.830   4.518  10.321 -0.2989 -0.3677 -0.2771
  111OSM    HNF11479   2.895   4.513  10.246  0.4528 -1.5272  0.4236
  111OSM    C2S11480   2.855   4.610  10.429  0.6493  0.8852  0.4488
  111OSM    H2S11481   2.761   4.650  10.473  0.5882  0.2886  0.8781
  111OSM    C3S11482   2.946   4.738  10.404  0.0640 -0.4886  0.1506
  111OSM    H3S11483   3.046   4.696  10.378  0.9835  1.4008  0.4659
  111OSM     O311484   2.965   4.822  10.514  0.2013 -0.1738 -0.6116
  111OSM    HO311485   2.931   4.767  10.586  0.6517 -1.0715 -1.0666
  111OSM    C4S11486   2.901   4.820  10.291 -0.5258 -0.6604 -0.1354
  111OSM    H4S11487   2.943   4.786  10.195 -1.3273  1.0120 -1.1385
  111OSM    C5S11488   2.820   4.932  10.285 -0.0489  0.3106  0.5266
  111OSM    H5S11489   2.773   4.967  10.378 -0.1913 -0.0551  0.5977
  111OSM    C6S11490   2.793   5.007  10.159  0.7893 -0.0041  0.1383
  111OSM    H6S11491   2.823   5.114  10.162 -0.0738  0.3474 -2.1797
  111OSM    H6T11492   2.684   5.010  10.138  0.8393 -0.9133 -0.3158
  111OSM    C7S11493   2.852   4.949  10.024 -0.4168 -0.1099  0.0516
  111OSM    H7S11494   2.825   4.841  10.025 -2.3115  0.3237  0.2847
  111OSM    H7T11495   2.962   4.960  10.014 -0.5047  1.3058  0.5080
  111OSM    C8S11496   2.783   5.012   9.901  0.1908 -0.4711  0.0022
  111OSM    H8S11497   2.783   5.123   9.907 -0.1235 -0.5122  0.8857
  111OSM    H8T11498   2.677   4.979   9.902 -0.0132  0.1621 -0.0008
  111OSM    C9S11499   2.858   4.968   9.773  0.3486 -0.4258  0.1164
  111OSM    H9S11500   2.868   4.860   9.751 -1.3557 -0.3677 -1.2438
  111OSM    H9T11501   2.957   5.017   9.769  0.3198 -0.4391 -1.1516
  111OSM   C10S11502   2.781   5.017   9.645 -0.2531  0.1552 -0.5780
  111OSM   H10S11503   2.771   5.128   9.640 -0.0436  0.1329 -2.1683
  111OSM   H10T11504   2.680   4.971   9.636  0.2407 -0.6481 -2.6406
  111OSM   C11S11505   2.854   4.981   9.513 -0.2060  0.5845 -0.0105
  111OSM   H11S11506   2.862   4.870   9.516 -2.3404  0.3964  0.4346
  111OSM   H11T11507   2.953   5.028   9.497  0.1076  0.9241  2.5502
  111OSM   C12S11508   2.769   5.019   9.392 -0.4058  0.7363 -0.3824
  111OSM   H12S11509   2.749   5.128   9.392 -0.3287  0.7592  0.7278
  111OSM   H12T11510   2.668   4.976   9.408 -1.3967  1.4287 -3.8413
  111OSM   C13S11511   2.820   4.978   9.253 -0.2908 -0.2538 -0.2031
  111OSM   H13S11512   2.736   4.958   9.183 -0.4272 -2.6188  0.5583
  111OSM   H13T11513   2.882   4.885   9.249 -0.5128 -0.3598 -1.5905
  111OSM   C14S11514   2.897   5.094   9.186  0.3234 -0.0349 -0.0291
  111OSM   H14S11515   2.976   5.123   9.258  0.0024 -0.5392  0.5333
  111OSM   H14T11516   2.818   5.172   9.181 -0.3191 -0.6594  0.1752
  111OSM   C15S11517   2.962   5.069   9.048 -0.2785  0.3432  0.4163
  111OSM   H15S11518   3.063   5.025   9.065  0.6466  0.4985 -3.6358
  111OSM   H15T11519   2.994   5.157   8.987  2.7883 -0.8214  0.1480
  111OSM   C16S11520   2.878   4.978   8.958 -0.9092  0.1643 -0.4718
  111OSM   H16S11521   2.773   5.013   8.959 -1.4386 -1.3444 -0.2886
  111OSM   H16T11522   2.874   4.880   9.011  0.0088  2.0136  3.3382
  111OSM   C17S11523   2.934   4.964   8.811 -0.1413 -0.4241 -0.8321
  111OSM   H17S11524   3.044   4.953   8.824 -0.3658 -3.1249 -0.5964
  111OSM   H17T11525   2.915   5.061   8.761  0.6626  0.4338  0.4701
  111OSM   C18S11526   2.867   4.860   8.722 -0.0509  0.3160  0.1591
  111OSM   H18S11527   2.895   4.753   8.735 -2.0199 -0.2966 -0.3869
  111OSM   H18T11528   2.903   4.885   8.619  1.2894 -0.4006  0.4219
  111OSM   H18U11529   2.758   4.881   8.723 -0.1396  0.1492 -1.7463
  111OSM    C1F11530   2.719   4.448  10.326  0.0948 -0.1245  0.8128
  111OSM     OF11531   2.631   4.462  10.406 -0.3564 -0.1580 -0.4715
  111OSM    C2F11532   2.697   4.360  10.204 -0.8660 -0.2514  0.0313
  111OSM    H2F11533   2.744   4.413  10.119  1.2823  1.1345  1.9814
  111OSM    H2G11534   2.587   4.348  10.192 -1.0181  0.4714  0.6455
  111OSM    C3F11535   2.761   4.230  10.230 -0.1755  0.2928  0.2893
  111OSM    H3F11536   2.690   4.196  10.309  0.1337 -0.9836  0.0481
  111OSM    H3G11537   2.863   4.235  10.272  0.2275 -0.3807 -0.5738
  111OSM    C4F11538   2.762   4.128  10.111  0.3902 -0.2550 -0.1585
  111OSM    H4F11539   2.839   4.161  10.038 -0.6254 -0.0725 -1.1553
  111OSM    H4G11540   2.667   4.149  10.059  0.2469 -0.3731  0.0518
  111OSM    C5F11541   2.768   3.982  10.150 -0.7391  0.6137  0.2753
  111OSM    H5F11542   2.678   3.963  10.213 -1.9244  1.9981 -0.9218
  111OSM    H5G11543   2.863   3.961  10.203  0.4181  1.6280 -1.2903
  111OSM    C6F11544   2.762   3.894  10.032  0.1204  0.1423 -0.4118
  111OSM    H6F11545   2.853   3.910   9.970  0.8552  0.7777  0.8010
  111OSM    H6G11546   2.671   3.921   9.973 -0.0714  0.0779 -0.1490
  111OSM    C7F11547   2.763   3.743  10.086 -0.0021 -0.1073 -0.0263
  111OSM    H7F11548   2.667   3.721  10.137  0.1381 -0.8375 -0.0700
  111OSM    H7G11549   2.849   3.743  10.156 -1.6350 -2.0714  2.1033
  111OSM    C8F11550   2.786   3.637   9.976 -0.0620 -0.3005  0.1982
  111OSM    H8F11551   2.781   3.535  10.020 -0.8418 -0.5374 -0.4275
  111OSM    H8G11552   2.886   3.655   9.931  0.0435 -1.3414 -0.0097
  111OSM    C9F11553   2.673   3.641   9.871 -0.9406  0.0211 -1.4837
  111OSM    H9F11554   2.572   3.642   9.914 -0.2268  1.1548  0.2535
  111OSM   C10F11555   2.683   3.649   9.741 -0.3958  0.2868  0.2168
  111OSM   H10F11556   2.596   3.624   9.679  0.9310 -0.4788 -1.4308
  111OSM   C11F11557   2.813   3.663   9.656 -0.1431  0.9108  0.4416
  111OSM   H11F11558   2.862   3.565   9.635  2.2225  1.6185  2.1674
  111OSM   H11G11559   2.890   3.716   9.716 -0.0263 -1.0752  2.1608
  111OSM   C12F11560   2.817   3.739   9.522 -0.2208 -0.1740 -0.3113
  111OSM   H12F11561   2.923   3.746   9.490 -0.2092  0.9490 -0.0622
  111OSM   H12G11562   2.783   3.844   9.532  1.2092  0.4473 -1.5257
  111OSM   C13F11563   2.743   3.664   9.412 -0.7711  0.4140  0.0039
  111OSM   H13F11564   2.640   3.643   9.447  0.1058 -1.8885  1.4481
  111OSM   H13G11565   2.795   3.566   9.399 -0.6332  0.5693 -0.6412
  111OSM   C14F11566   2.723   3.742   9.281  0.0569 -0.1630 -0.2070
  111OSM   H14F11567   2.675   3.841   9.300 -1.2519 -0.9646  0.8478
  111OSM   H14G11568   2.652   3.677   9.226  0.6005 -0.2464 -0.8234
  111OSM   C15F11569   2.850   3.766   9.193 -0.0404 -0.7503  0.5634
  111OSM   H15F11570   2.870   3.665   9.152  2.2192  0.8477 -2.7221
  111OSM   H15G11571   2.936   3.797   9.256  1.5043 -1.2242 -1.2314
  111OSM   C16F11572   2.832   3.877   9.079  1.4948 -0.9612 -0.7935
  111OSM   H16F11573   2.813   3.978   9.122 -1.6474 -2.1016  0.8478
  111OSM   H16G11574   2.749   3.853   9.009  1.4408 -1.7729 -0.4574
  111OSM   C17F11575   2.959   3.877   8.990  0.5502  0.3206  0.0997
  111OSM   H17F11576   2.980   3.771   8.962 -1.5441 -0.3207  0.7721
  111OSM   H17G11577   3.039   3.900   9.063  0.4533 -1.5613  0.8609
  111OSM   C18F11578   2.937   3.964   8.864 -0.5925  0.3357 -0.3868
  111OSM   H18F11579   3.021   3.951   8.792 -1.5249 -1.7439 -1.1804
  111OSM   H18G11580   2.926   4.071   8.890  1.9099  0.8556 -1.2112
  111OSM   H18H11581   2.847   3.943   8.801 -0.7340  1.1752 -0.4734
  112OSM      N11582   3.294   3.102  11.203 -0.2523 -0.5699 -0.4749
  112OSM    C1511583   3.344   3.079  11.339 -0.6278  1.0230 -0.3020
  112OSM   H15A11584   3.271   3.105  11.414 -0.0143  0.3240  0.5611
  112OSM   H15B11585   3.434   3.134  11.360  1.3151 -2.0209 -0.0109
  112OSM   H15C11586   3.364   2.973  11.347  0.9294  1.3112 -0.0617
  112OSM    C1411587   3.203   2.997  11.152  0.2952  0.0084 -0.7558
  112OSM   H14A11588   3.167   3.018  11.052 -0.1046  1.5946 -0.2899
  112OSM   H14B11589   3.120   2.976  11.218  0.3786 -1.7954 -1.1666
  112OSM   H14C11590   3.251   2.900  11.148  0.2255 -0.0478 -0.2117
  112OSM    C1311591   3.212   3.224  11.207  0.7027 -0.6362  0.7906
  112OSM   H13A11592   3.148   3.246  11.123 -2.9522  1.3545  3.7932
  112OSM   H13B11593   3.281   3.306  11.216 -1.0012  1.1741 -1.4816
  112OSM   H13C11594   3.153   3.229  11.298  1.1815  2.4721  1.0393
  112OSM    C1211595   3.409   3.116  11.101 -0.0406  0.5020  0.3788
  112OSM   H12A11596   3.474   3.030  11.107  2.1301  1.4869 -4.3335
  112OSM   H12B11597   3.467   3.203  11.128  1.0703 -0.6909  2.0365
  112OSM    C1111598   3.372   3.132  10.953  0.3001 -0.8240  0.3324
  112OSM   H11A11599   3.319   3.042  10.916 -0.7426  0.1696 -0.6806
  112OSM   H11B11600   3.469   3.134  10.899  0.7629 -1.1951  1.1407
  112OSM      P11601   3.373   3.394  10.957  0.2300 -0.1940 -0.0326
  112OSM    O1311602   3.276   3.504  10.982 -0.5174  0.7885  0.0109
  112OSM    O1411603   3.487   3.382  11.049 -0.4106  0.2117 -0.0545
  112OSM    O1111604   3.429   3.413  10.807 -0.0763 -0.0429  0.0232
  112OSM    O1211605   3.297   3.250  10.933 -0.0506 -0.2742 -0.1653
  112OSM    C1S11606   3.338   3.420  10.699  0.4696  0.2693  0.1052
  112OSM    H1S11607   3.300   3.524  10.710 -2.0680 -0.7355  1.6221
  112OSM    H1T11608   3.243   3.365  10.716  0.3506  0.2396 -0.6257
  112OSM     NF11609   3.300   3.418  10.462 -0.4977 -0.5319  0.1568
  112OSM    HNF11610   3.280   3.343  10.400 -1.7667  0.0854 -0.2275
  112OSM    C2S11611   3.402   3.395  10.558 -0.4444  0.4457  0.5120
  112OSM    H2S11612   3.487   3.463  10.536 -1.0399  1.1795  0.4602
  112OSM    C3S11613   3.461   3.247  10.565  0.0533  0.5284  0.0971
  112OSM    H3S11614   3.380   3.177  10.595  1.0947 -0.3190  1.0039
  112OSM     O311615   3.562   3.249  10.667 -0.2414  0.1732  0.4657
  112OSM    HO311616   3.532   3.312  10.733  0.4871 -0.9345  1.9399
  112OSM    C4S11617   3.508   3.211  10.426  0.6428  0.0723  0.2303
  112OSM    H4S11618   3.435   3.143  10.378  1.6713 -2.2364  1.7411
  112OSM    C5S11619   3.615   3.255  10.357 -0.1927 -0.2147  0.2149
  112OSM    H5S11620   3.685   3.332  10.393  0.8482 -1.6437  1.3593
  112OSM    C6S11621   3.643   3.204  10.218 -0.5150 -0.0753  0.5521
  112OSM    H6S11622   3.556   3.148  10.177  0.0999 -1.2640  0.8262
  112OSM    H6T11623   3.731   3.136  10.223 -1.2994 -1.1554  0.0984
  112OSM    C7S11624   3.645   3.322  10.115 -0.5460  0.2134 -0.3323
  112OSM    H7S11625   3.746   3.369  10.110  0.5321 -2.0211 -1.2235
  112OSM    H7T11626   3.570   3.397  10.147 -0.2394  0.2628  0.2895
  112OSM    C8S11627   3.614   3.266   9.969  0.7251  0.0309  0.0854
  112OSM    H8S11628   3.514   3.221   9.988  0.3915  0.2561 -1.0655
  112OSM    H8T11629   3.691   3.191   9.942 -0.8478 -1.5037 -0.3644
  112OSM    C9S11630   3.608   3.386   9.869  0.0038 -0.1581  0.2733
  112OSM    H9S11631   3.697   3.449   9.895  0.6731 -0.6142 -0.8471
  112OSM    H9T11632   3.528   3.449   9.914 -0.2432 -0.5531  0.3897
  112OSM   C10S11633   3.592   3.344   9.724  0.3342  0.8449 -0.2447
  112OSM   H10S11634   3.546   3.432   9.673 -0.7762  1.3170  1.4792
  112OSM   H10T11635   3.521   3.258   9.715 -0.4046  1.3954  0.1973
  112OSM   C11S11636   3.730   3.318   9.663 -0.0631  0.2058 -0.7812
  112OSM   H11S11637   3.778   3.237   9.721 -1.4415 -0.8684 -1.0921
  112OSM   H11T11638   3.790   3.412   9.671  1.3376 -0.6959 -0.2798
  112OSM   C12S11639   3.733   3.286   9.512 -0.5558 -0.1445 -0.1371
  112OSM   H12S11640   3.680   3.366   9.456  0.3806  0.4273 -0.2298
  112OSM   H12T11641   3.692   3.186   9.489 -1.1047  0.3952 -1.5961
  112OSM   C13S11642   3.882   3.279   9.458  0.5242 -0.0874 -0.2341
  112OSM   H13S11643   3.925   3.178   9.477  2.9906  1.1390  1.2486
  112OSM   H13T11644   3.943   3.347   9.521 -0.5659  1.0033 -0.3362
  112OSM   C14S11645   3.890   3.293   9.310 -0.1520  0.3042  0.1084
  112OSM   H14S11646   3.933   3.392   9.286 -0.4120  0.4438  0.2049
  112OSM   H14T11647   3.790   3.303   9.263  1.2848  1.5947 -2.8840
  112OSM   C15S11648   3.953   3.170   9.243 -1.0357  0.0140 -0.0193
  112OSM   H15S11649   3.935   3.181   9.134 -0.0536 -1.1502 -0.3315
  112OSM   H15T11650   3.901   3.079   9.280  0.3699 -0.9947 -0.4301
  112OSM   C16S11651   4.106   3.154   9.257  0.0651 -0.7290 -0.8116
  112OSM   H16S11652   4.146   3.171   9.360 -2.3455  0.3058  0.0332
  112OSM   H16T11653   4.145   3.236   9.192  0.9091 -0.4501  0.0089
  112OSM   C17S11654   4.134   3.014   9.204  0.1328  0.2916 -0.0240
  112OSM   H17S11655   4.099   3.000   9.100  1.5365 -0.1019 -0.4661
  112OSM   H17T11656   4.095   2.938   9.275  2.2366 -1.6628 -0.8460
  112OSM   C18S11657   4.290   2.991   9.201 -0.4179 -0.3200  0.6381
  112OSM   H18S11658   4.308   2.914   9.122  1.6224  0.9688 -0.2563
  112OSM   H18T11659   4.332   2.972   9.302 -2.1223 -0.2489  1.3958
  112OSM   H18U11660   4.348   3.078   9.163 -0.4895 -0.8523 -0.7765
  112OSM    C1F11661   3.241   3.543  10.444 -1.0446 -0.1766 -0.0223
  112OSM     OF11662   3.278   3.640  10.504  0.3467 -0.0295  0.0839
  112OSM    C2F11663   3.147   3.557  10.329  1.1084  0.9230 -0.6072
  112OSM    H2F11664   3.100   3.658  10.337 -1.2865 -0.0748 -1.1766
  112OSM    H2G11665   3.071   3.477  10.334  1.8360  0.2404 -0.2932
  112OSM    C3F11666   3.226   3.524  10.202  0.5434 -0.3800 -0.2290
  112OSM    H3F11667   3.261   3.419  10.200 -0.8040 -0.8704 -3.1809
  112OSM    H3G11668   3.299   3.608  10.205  0.2309 -0.1315  1.4212
  112OSM    C4F11669   3.147   3.534  10.070 -0.5124 -0.0482  0.9675
  112OSM    H4F11670   3.075   3.619  10.074 -0.4393  0.0256  0.6939
  112OSM    H4G11671   3.076   3.450  10.055  0.9941 -1.1835 -0.1445
  112OSM    C5F11672   3.239   3.520   9.953  0.1580  0.2772 -0.2439
  112OSM    H5F11673   3.284   3.420   9.968  1.9482  1.3150  1.8110
  112OSM    H5G11674   3.323   3.592   9.955  2.6705 -2.3108 -2.7445
  112OSM    C6F11675   3.170   3.539   9.827  0.5146  0.3266  0.0832
  112OSM    H6F11676   3.124   3.640   9.830  1.0691  0.6483 -1.3286
  112OSM    H6G11677   3.081   3.472   9.818 -0.3288  1.5967 -1.7727
  112OSM    C7F11678   3.265   3.515   9.708  0.8616  0.4797  0.1928
  112OSM    H7F11679   3.275   3.406   9.689 -2.6203  0.2483 -0.9198
  112OSM    H7G11680   3.360   3.565   9.740  1.3499 -0.0727 -0.3691
  112OSM    C8F11681   3.211   3.590   9.582  0.0714  0.6166  0.1638
  112OSM    H8F11682   3.193   3.695   9.612 -0.5797  0.2940  0.9277
  112OSM    H8G11683   3.113   3.551   9.550  1.0537 -1.0787 -0.9590
  112OSM    C9F11684   3.321   3.577   9.474 -0.0983 -0.3936 -0.0585
  112OSM    H9F11685   3.425   3.596   9.504 -0.6816 -0.3966  2.2097
  112OSM   C10F11686   3.298   3.571   9.339  0.9618  1.0074 -0.5680
  112OSM   H10F11687   3.386   3.553   9.275  1.1370 -1.4643  0.2841
  112OSM   C11F11688   3.160   3.556   9.274 -0.3054 -0.8425 -0.1441
  112OSM   H11F11689   3.107   3.649   9.307 -0.7038 -1.0615 -0.1592
  112OSM   H11G11690   3.100   3.475   9.320 -2.2977  0.0358 -1.0876
  112OSM   C12F11691   3.164   3.547   9.119 -0.2612 -0.5094 -0.1396
  112OSM   H12F11692   3.212   3.637   9.076 -1.3342 -0.2217 -0.7611
  112OSM   H12G11693   3.062   3.535   9.077  0.0760 -2.4827 -0.4987
  112OSM   C13F11694   3.228   3.420   9.070 -0.0191 -0.0499  0.2337
  112OSM   H13F11695   3.168   3.327   9.076 -0.8488  0.4009 -0.8265
  112OSM   H13G11696   3.328   3.401   9.115  0.9387 -0.0124 -1.7791
  112OSM   C14F11697   3.261   3.419   8.914  0.1618  0.1204  0.2442
  112OSM   H14F11698   3.323   3.507   8.886  0.2981  0.3829  1.3385
  112OSM   H14G11699   3.168   3.426   8.854 -0.0905  0.5507  0.6744
  112OSM   C15F11700   3.329   3.292   8.861 -0.6743 -0.6607 -0.0352
  112OSM   H15F11701   3.269   3.199   8.870  0.6329 -1.4414  1.1223
  112OSM   H15G11702   3.419   3.279   8.925  2.1823  0.1662 -3.5824
  112OSM   C16F11703   3.378   3.295   8.719 -0.0585 -0.3242 -0.0386
  112OSM   H16F11704   3.453   3.377   8.715 -0.0620 -0.1422  2.3632
  112OSM   H16G11705   3.295   3.323   8.651  0.4629  3.6398  0.7173
  112OSM   C17F11706   3.452   3.172   8.674  0.6438  1.0123 -0.0743
  112OSM   H17F11707   3.385   3.084   8.673  0.4087  1.1552  1.2843
  112OSM   H17G11708   3.536   3.155   8.744  0.5292  1.9932  0.3243
  112OSM   C18F11709   3.525   3.174   8.541  0.0970  0.0623  0.6089
  112OSM   H18F11710   3.452   3.168   8.457  0.4880  0.6123  0.2276
  112OSM   H18G11711   3.588   3.082   8.539  0.0464  0.0041  1.5707
  112OSM   H18H11712   3.579   3.270   8.537  1.0628 -0.5106 -1.7042
  113OSM      N11713   1.265   5.605  11.021 -0.2504 -0.6429  0.6251
  113OSM    C1511714   1.286   5.518  11.136 -0.4140  0.2041  0.1174
  113OSM   H15A11715   1.261   5.414  11.122  1.1978 -0.0900 -0.8071
  113OSM   H15B11716   1.251   5.550  11.233  0.1002 -0.5744  0.5717
  113OSM   H15C11717   1.393   5.525  11.148 -0.3392  1.6936 -1.1374
  113OSM    C1411718   1.124   5.635  11.016  0.1435  0.0998  0.2574
  113OSM   H14A11719   1.094   5.710  11.087 -0.6187 -0.0271  0.0809
  113OSM   H14B11720   1.067   5.546  11.037 -0.6913  0.9544  1.7575
  113OSM   H14C11721   1.084   5.660  10.919 -1.3595 -3.1401 -0.1056
  113OSM    C1311722   1.332   5.736  11.057 -0.0349 -0.3742 -0.1539
  113OSM   H13A11723   1.440   5.735  11.060 -0.0103 -0.4245 -0.8777
  113OSM   H13B11724   1.283   5.777  11.144 -1.2542 -1.7185 -0.1771
  113OSM   H13C11725   1.307   5.803  10.976 -1.7293 -0.2495  0.4236
  113OSM    C1211726   1.314   5.552  10.878  0.0658 -0.4731  0.2604
  113OSM   H12A11727   1.271   5.456  10.853 -0.4900 -0.2219  0.2413
  113OSM   H12B11728   1.420   5.533  10.888 -0.1889 -0.5862  4.1485
  113OSM    C1111729   1.291   5.655  10.763 -0.6230 -0.1089  0.4009
  113OSM   H11A11730   1.181   5.666  10.756 -0.5252 -0.0277 -1.1938
  113OSM   H11B11731   1.327   5.600  10.674  0.5525  0.3348  0.5894
  113OSM      P11732   1.470   5.829  10.694  0.1316 -0.6755 -0.3965
  113OSM    O1311733   1.465   5.977  10.690  0.7739  0.1386 -1.1020
  113OSM    O1411734   1.586   5.765  10.761  0.1766 -0.0350 -0.2439
  113OSM    O1111735   1.453   5.766  10.556  0.1927  0.1834 -0.2003
  113OSM    O1211736   1.345   5.785  10.775 -0.5278  0.5976 -0.3650
  113OSM    C1S11737   1.535   5.796  10.443 -0.2332 -1.2143 -0.1206
  113OSM    H1S11738   1.598   5.705  10.429  2.1743 -0.3037  3.3853
  113OSM    H1T11739   1.592   5.890  10.460 -0.7908 -1.1682  1.6336
  113OSM     NF11740   1.542   5.813  10.214  0.0013 -0.3529  0.4528
  113OSM    HNF11741   1.574   5.905  10.190  1.6329 -0.7390  1.0317
  113OSM    C2S11742   1.447   5.802  10.319  0.0659  0.0539  0.2747
  113OSM    H2S11743   1.401   5.703  10.300  0.7830 -0.0115 -1.2711
  113OSM    C3S11744   1.347   5.914  10.327  0.1122  0.1911 -0.1798
  113OSM    H3S11745   1.396   6.009  10.359 -0.1698  0.6799 -1.1474
  113OSM     O311746   1.246   5.889  10.428 -0.6395 -0.3336  0.0035
  113OSM    HO311747   1.284   5.809  10.464 -0.3075 -0.8534 -1.4519
  113OSM    C4S11748   1.275   5.939  10.195 -0.4103  0.6566 -0.1857
  113OSM    H4S11749   1.223   5.849  10.159  2.4299 -0.5252 -1.6219
  113OSM    C5S11750   1.254   6.050  10.136 -0.6305 -0.4186  0.0751
  113OSM    H5S11751   1.304   6.143  10.166 -1.2667  0.1566 -0.6046
  113OSM    C6S11752   1.179   6.053  10.003 -0.2475 -0.2548  0.7397
  113OSM    H6S11753   1.106   6.137   9.998  0.0847  0.0336  0.6268
  113OSM    H6T11754   1.117   5.965   9.977  0.3572 -0.4656 -0.0520
  113OSM    C7S11755   1.287   6.065   9.882  0.5108 -0.4295 -0.3242
  113OSM    H7S11756   1.347   6.157   9.901  0.2295 -0.5376  1.2512
  113OSM    H7T11757   1.212   6.091   9.803  1.3313 -0.5156 -1.1408
  113OSM    C8S11758   1.362   5.945   9.842 -0.1960  0.0446  0.4544
  113OSM    H8S11759   1.301   5.856   9.814  0.5659 -0.5666  0.6862
  113OSM    H8T11760   1.428   5.912   9.926 -0.5779  2.4756  1.8016
  113OSM    C9S11761   1.459   5.963   9.725 -0.0175  0.0156 -0.5004
  113OSM    H9S11762   1.513   5.867   9.708 -1.2641 -1.2651  2.1981
  113OSM    H9T11763   1.540   6.036   9.745 -0.4996  0.5699 -0.5530
  113OSM   C10S11764   1.389   6.003   9.597  0.6716  0.2416  0.3286
  113OSM   H10S11765   1.329   6.095   9.612 -1.2829 -1.1463  1.4723
  113OSM   H10T11766   1.311   5.931   9.565 -1.9554  2.1351  2.0054
  113OSM   C11S11767   1.495   6.021   9.492  0.4674  0.2533  0.4120
  113OSM   H11S11768   1.551   5.926   9.478  0.1916  0.4398 -2.5367
  113OSM   H11T11769   1.569   6.098   9.522 -0.0682  0.7724  0.4090
  113OSM   C12S11770   1.436   6.043   9.352 -0.0208  0.2882  0.1042
  113OSM   H12S11771   1.370   6.133   9.350  0.9712  1.0605  1.0528
  113OSM   H12T11772   1.377   5.953   9.325 -0.4683  0.6670 -0.2255
  113OSM   C13S11773   1.532   6.060   9.240 -0.4409 -0.0393 -0.4046
  113OSM   H13S11774   1.588   5.972   9.202  1.3343  1.2327 -0.8682
  113OSM   H13T11775   1.607   6.137   9.271 -1.0145  0.2196  0.3671
  113OSM   C14S11776   1.466   6.133   9.118 -0.2474 -0.3991  0.7914
  113OSM   H14S11777   1.438   6.231   9.161  2.9398  0.6088  0.7732
  113OSM   H14T11778   1.375   6.071   9.101  0.8744 -2.3114  1.4726
  113OSM   C15S11779   1.551   6.143   8.994  0.4415 -0.0869 -0.4980
  113OSM   H15S11780   1.658   6.143   9.023  0.6112 -0.4756 -1.1038
  113OSM   H15T11781   1.526   6.242   8.949 -1.0947 -0.5024 -0.6017
  113OSM   C16S11782   1.510   6.025   8.898  0.3828  0.1294  0.3718
  113OSM   H16S11783   1.400   6.020   8.908  0.3614  1.8837  1.4570
  113OSM   H16T11784   1.556   5.931   8.936  1.1062 -0.1407 -1.1247
  113OSM   C17S11785   1.547   6.044   8.751 -0.2871  0.0641  0.4155
  113OSM   H17S11786   1.657   6.033   8.745 -0.4079 -0.6225 -0.8660
  113OSM   H17T11787   1.510   6.142   8.716  0.3163 -0.4742 -1.8500
  113OSM   C18S11788   1.487   5.938   8.665  0.6025  0.5491 -0.4673
  113OSM   H18S11789   1.378   5.954   8.651  0.0935  0.5581  2.6944
  113OSM   H18T11790   1.505   5.834   8.698  1.1298  0.2728 -1.6096
  113OSM   H18U11791   1.520   5.947   8.560 -3.0573  2.7323 -1.6442
  113OSM    C1F11792   1.619   5.709  10.169  0.1628  0.1901  0.3831
  113OSM     OF11793   1.586   5.594  10.197  0.5267 -0.2088  0.0714
  113OSM    C2F11794   1.739   5.740  10.081 -0.1874 -0.5253 -0.2073
  113OSM    H2F11795   1.829   5.770  10.139  1.1327  0.3134 -2.5712
  113OSM    H2G11796   1.720   5.827  10.014  0.1642 -1.4883 -1.6129
  113OSM    C3F11797   1.789   5.626   9.993 -0.3862  0.5588  0.5367
  113OSM    H3F11798   1.779   5.532  10.050 -0.1530  0.6762  0.7707
  113OSM    H3G11799   1.897   5.642   9.971 -0.6078  0.7652 -0.4837
  113OSM    C4F11800   1.721   5.616   9.860  0.1812  0.5936 -0.6021
  113OSM    H4F11801   1.612   5.634   9.877  0.5700  1.3238  1.4418
  113OSM    H4G11802   1.728   5.517   9.809 -0.5985  0.7115 -0.9537
  113OSM    C5F11803   1.778   5.709   9.749 -0.3408 -0.7053 -0.1809
  113OSM    H5F11804   1.821   5.800   9.796  2.0873 -1.9600  0.1692
  113OSM    H5G11805   1.689   5.757   9.702 -0.1293 -0.8081 -0.6938
  113OSM    C6F11806   1.876   5.645   9.651  0.3453  0.7997  0.1319
  113OSM    H6F11807   1.940   5.572   9.706 -2.0513 -1.8261 -0.2770
  113OSM    H6G11808   1.941   5.729   9.621  2.1726 -0.5966  0.0425
  113OSM    C7F11809   1.806   5.577   9.533 -0.0835  0.3489 -0.1468
  113OSM    H7F11810   1.755   5.656   9.473  0.1277  0.4645 -0.1761
  113OSM    H7G11811   1.736   5.495   9.558  1.2051 -1.1596 -1.3218
  113OSM    C8F11812   1.911   5.517   9.440  0.1116  0.4656  0.1221
  113OSM    H8F11813   1.854   5.498   9.347 -1.6944  3.0860  0.5881
  113OSM    H8G11814   1.949   5.423   9.486 -0.8848  0.7496  1.6270
  113OSM    C9F11815   2.028   5.602   9.390  0.1889 -0.1439  0.7117
  113OSM    H9F11816   2.118   5.570   9.444 -0.8810 -0.6641  2.2405
  113OSM   C10F11817   2.027   5.689   9.282  0.7080  0.6735 -0.1666
  113OSM   H10F11818   2.124   5.736   9.260  2.3461 -2.6065 -0.6701
  113OSM   C11F11819   1.903   5.719   9.197 -0.5870  0.5515 -0.4697
  113OSM   H11F11820   1.865   5.821   9.219  0.8127  1.0463 -0.1847
  113OSM   H11G11821   1.821   5.647   9.218  1.0837 -0.6917  2.6513
  113OSM   C12F11822   1.939   5.709   9.049 -0.2423  0.1530  0.1762
  113OSM   H12F11823   1.959   5.604   9.018  1.3610  0.7808 -0.9985
  113OSM   H12G11824   2.014   5.787   9.024 -0.9175  1.2833  1.5131
  113OSM   C13F11825   1.814   5.750   8.965  0.9239 -0.6979  0.5864
  113OSM   H13F11826   1.742   5.823   9.009 -1.6117 -1.6683 -1.6563
  113OSM   H13G11827   1.753   5.657   8.965  1.1899 -0.8776 -0.4508
  113OSM   C14F11828   1.839   5.812   8.827  0.1940  0.2959  0.4475
  113OSM   H14F11829   1.895   5.908   8.830 -1.0986  1.0529  1.5081
  113OSM   H14G11830   1.741   5.837   8.781 -0.5749 -0.7428  1.4598
  113OSM   C15F11831   1.899   5.709   8.732 -0.2912 -0.2868  0.5294
  113OSM   H15F11832   1.825   5.632   8.703  0.5384 -0.3473 -1.5756
  113OSM   H15G11833   1.980   5.655   8.786 -1.4459 -0.9640  1.6351
  113OSM   C16F11834   1.953   5.768   8.600  0.4129  0.2245  0.1682
  113OSM   H16F11835   2.041   5.713   8.561 -0.7994  0.2131 -2.8363
  113OSM   H16G11836   1.987   5.873   8.616  0.2256  0.2093  0.6915
  113OSM   C17F11837   1.844   5.770   8.491 -0.4806  0.4158  0.6601
  113OSM   H17F11838   1.771   5.852   8.509  1.2634  2.0991  0.4784
  113OSM   H17G11839   1.777   5.682   8.484 -0.7732  0.6947 -0.2759
  113OSM   C18F11840   1.896   5.786   8.352  0.6354  0.0455 -0.6637
  113OSM   H18F11841   1.808   5.809   8.287 -0.6767  4.1227  2.1690
  113OSM   H18G11842   1.969   5.707   8.326  0.2919 -0.6949  0.5644
  113OSM   H18H11843   1.959   5.877   8.344  0.5808  0.0509 -1.0725
  114OSM      N11844   2.666   1.504  11.000 -0.2810  0.1493  0.6123
  114OSM    C1511845   2.677   1.508  10.850 -0.3931 -0.3679 -0.0548
  114OSM   H15A11846   2.644   1.410  10.819 -0.7584 -0.5997  1.0002
  114OSM   H15B11847   2.779   1.536  10.827 -0.4255 -1.2143 -1.2738
  114OSM   H15C11848   2.611   1.587  10.817  0.6821  0.0759 -1.2266
  114OSM    C1411849   2.729   1.375  11.053  0.0989 -0.2328  0.1998
  114OSM   H14A11850   2.719   1.367  11.160 -1.6414 -1.1296 -0.0025
  114OSM   H14B11851   2.835   1.373  11.031 -0.2200  1.3407 -1.8302
  114OSM   H14C11852   2.686   1.295  10.995 -2.6197  1.3499 -0.1257
  114OSM    C1311853   2.739   1.611  11.062 -1.0815 -0.2590  0.0504
  114OSM   H13A11854   2.846   1.598  11.054 -0.9262  1.6831 -2.2428
  114OSM   H13B11855   2.720   1.615  11.168  0.7073  2.0739  0.3700
  114OSM   H13C11856   2.712   1.705  11.016 -1.8224  1.0714  2.9605
  114OSM    C1211857   2.527   1.507  11.048 -0.0016  0.2651  1.2754
  114OSM   H12A11858   2.537   1.506  11.156  0.7894 -1.0592  1.2200
  114OSM   H12B11859   2.482   1.415  11.015  1.6441  0.3513 -1.5424
  114OSM    C1111860   2.428   1.619  11.013  0.7485  0.2442  0.1755
  114OSM   H11A11861   2.473   1.721  11.011  1.3870 -0.0088  1.1055
  114OSM   H11B11862   2.347   1.619  11.088 -0.4068 -0.5903 -1.0283
  114OSM      P11863   2.257   1.485  10.874  0.1877 -0.1491  0.6997
  114OSM    O1311864   2.267   1.390  10.989  0.5802  0.5243 -0.0617
  114OSM    O1411865   2.130   1.559  10.871 -0.4266 -0.6839  0.4599
  114OSM    O1111866   2.284   1.412  10.732 -0.3214  0.1810 -0.1247
  114OSM    O1211867   2.376   1.593  10.886  0.3701  0.4935  0.4103
  114OSM    C1S11868   2.216   1.453  10.614 -0.2040 -0.2678 -0.0888
  114OSM    H1S11869   2.121   1.505  10.638 -0.0341  1.3207 -2.4331
  114OSM    H1T11870   2.189   1.358  10.562  1.5136 -0.2539 -1.0917
  114OSM     NF11871   2.252   1.639  10.444  0.2165  0.0404 -0.3868
  114OSM    HNF11872   2.262   1.643  10.345  1.0013 -1.3136 -0.3978
  114OSM    C2S11873   2.316   1.537  10.530 -0.2272  1.1167  0.0619
  114OSM    H2S11874   2.382   1.587  10.605 -0.3607 -0.1397  1.0510
  114OSM    C3S11875   2.405   1.434  10.453 -0.2711  0.3602 -0.4724
  114OSM    H3S11876   2.344   1.361  10.396  0.3740 -0.3291 -0.2962
  114OSM     O311877   2.479   1.356  10.545 -0.4176  0.4737 -0.1911
  114OSM    HO311878   2.438   1.389  10.626 -0.4720  0.1511 -0.0853
  114OSM    C4S11879   2.507   1.498  10.367  0.1339  0.6537 -0.0458
  114OSM    H4S11880   2.461   1.504  10.267 -2.6782 -0.6175  1.0709
  114OSM    C5S11881   2.630   1.535  10.379  1.0797 -0.4321  0.3324
  114OSM    H5S11882   2.684   1.532  10.475  2.8338  1.8456 -0.4998
  114OSM    C6S11883   2.719   1.588  10.270  0.9520  0.3741  0.2789
  114OSM    H6S11884   2.801   1.513  10.265 -0.1146 -0.7626 -1.2866
  114OSM    H6T11885   2.757   1.685  10.309 -2.6442  1.1768  2.3013
  114OSM    C7S11886   2.675   1.584  10.122  0.1301  0.2031  0.4073
  114OSM    H7S11887   2.597   1.661  10.105  1.2082  0.9715 -1.2304
  114OSM    H7T11888   2.636   1.483  10.100  0.1892  0.5877 -1.6299
  114OSM    C8S11889   2.796   1.602  10.030  0.0209 -0.6520 -0.1827
  114OSM    H8S11890   2.872   1.526  10.057 -0.8245 -1.0159  1.2729
  114OSM    H8T11891   2.849   1.698  10.048  2.3017 -1.4513 -2.1813
  114OSM    C9S11892   2.760   1.583   9.879 -0.7455 -0.3676 -0.8428
  114OSM    H9S11893   2.707   1.487   9.862  0.0150 -0.8006 -0.8078
  114OSM    H9T11894   2.856   1.575   9.824  0.3360  0.3242  0.8767
  114OSM   C10S11895   2.686   1.705   9.826 -0.3925  0.4987  0.1170
  114OSM   H10S11896   2.744   1.799   9.816  1.1226 -0.3198  0.8856
  114OSM   H10T11897   2.607   1.721   9.902  0.3873 -0.5384  1.1725
  114OSM   C11S11898   2.623   1.667   9.691 -0.9811  0.6005  0.2539
  114OSM   H11S11899   2.547   1.748   9.684  0.2404  1.7719  0.0745
  114OSM   H11T11900   2.580   1.564   9.693 -0.1776  0.2508  0.0813
  114OSM   C12S11901   2.722   1.679   9.570  0.1584 -0.6988 -0.0284
  114OSM   H12S11902   2.821   1.631   9.588 -0.0256 -1.6051 -1.2961
  114OSM   H12T11903   2.754   1.785   9.558  4.9390 -2.1007 -2.5021
  114OSM   C13S11904   2.666   1.630   9.434 -0.2756 -0.1323 -0.3269
  114OSM   H13S11905   2.573   1.683   9.405 -0.4269 -1.3963 -2.3176
  114OSM   H13T11906   2.622   1.529   9.429  1.9963 -1.1110 -2.7059
  114OSM   C14S11907   2.763   1.645   9.308 -0.0145  0.1879 -0.2470
  114OSM   H14S11908   2.836   1.562   9.308  1.7770  1.6679 -1.2920
  114OSM   H14T11909   2.815   1.742   9.324 -0.1890  0.2803 -0.2257
  114OSM   C15S11910   2.684   1.650   9.180  0.3130  0.3500 -0.5383
  114OSM   H15S11911   2.633   1.749   9.173  1.8517  1.2157 -0.1372
  114OSM   H15T11912   2.599   1.580   9.181 -0.5707  1.3399  1.5626
  114OSM   C16S11913   2.781   1.623   9.065  0.0092 -0.3654  0.3513
  114OSM   H16S11914   2.715   1.609   8.977 -0.3613 -2.0227  0.8441
  114OSM   H16T11915   2.852   1.539   9.086 -0.0097 -0.4643  0.0343
  114OSM   C17S11916   2.868   1.745   9.021  0.5140 -0.0589  0.0396
  114OSM   H17S11917   2.956   1.751   9.089  1.2893 -2.9667 -0.5601
  114OSM   H17T11918   2.798   1.829   9.039 -0.5860 -0.3220 -2.5389
  114OSM   C18S11919   2.910   1.757   8.879 -0.6563  0.4018 -0.1823
  114OSM   H18S11920   2.824   1.747   8.809 -2.2149 -0.1687  1.7477
  114OSM   H18T11921   2.969   1.668   8.846 -0.3409  0.9319 -1.1094
  114OSM   H18U11922   2.961   1.855   8.868  0.0911 -0.1410 -1.9922
  114OSM    C1F11923   2.178   1.736  10.502  0.4008 -0.6998 -0.4035
  114OSM     OF11924   2.200   1.771  10.617 -0.7330 -0.2293 -0.0242
  114OSM    C2F11925   2.099   1.811  10.394  0.0107 -0.8234 -0.0942
  114OSM    H2F11926   2.150   1.794  10.298  1.5672 -0.3974  0.6234
  114OSM    H2G11927   2.110   1.919  10.419  1.1029 -1.7898  4.5605
  114OSM    C3F11928   1.948   1.774  10.400  0.3630 -0.3042  1.0356
  114OSM    H3F11929   1.899   1.805  10.495  0.6654 -1.1707  1.4841
  114OSM    H3G11930   1.932   1.665  10.388 -0.7266 -0.1202  0.7525
  114OSM    C4F11931   1.864   1.840  10.293  0.0725 -0.6541  0.2051
  114OSM    H4F11932   1.754   1.839  10.314 -0.3048  1.9404 -1.2559
  114OSM    H4G11933   1.879   1.776  10.204 -1.6815 -4.1995  2.2046
  114OSM    C5F11934   1.895   1.987  10.253 -0.2530 -0.3280  0.2406
  114OSM    H5F11935   1.995   2.007  10.209 -0.3772 -0.2179  0.0078
  114OSM    H5G11936   1.877   2.052  10.340 -1.7990  0.3404 -0.5501
  114OSM    C6F11937   1.799   2.035  10.140 -0.0713 -0.4378 -0.1330
  114OSM    H6F11938   1.815   2.141  10.112 -0.1836 -0.4418 -0.2120
  114OSM    H6G11939   1.697   2.022  10.182 -0.0729  2.0217  0.7859
  114OSM    C7F11940   1.797   1.946  10.006  0.0962 -0.4150  0.4333
  114OSM    H7F11941   1.737   1.859  10.041 -2.4490  1.2800  0.5648
  114OSM    H7G11942   1.900   1.925   9.970 -0.2133 -0.0384 -0.7411
  114OSM    C8F11943   1.716   2.006   9.888  0.2149 -0.6892  0.8700
  114OSM    H8F11944   1.626   2.046   9.940  0.0546  0.6912 -0.4042
  114OSM    H8G11945   1.681   1.928   9.817  0.6473 -0.0969 -0.0110
  114OSM    C9F11946   1.774   2.116   9.818 -0.0797 -0.0086 -0.4072
  114OSM    H9F11947   1.738   2.212   9.857 -2.4412 -0.9728 -0.0461
  114OSM   C10F11948   1.835   2.115   9.703  0.5691  0.3079  0.4313
  114OSM   H10F11949   1.874   2.204   9.651 -1.4077  1.4158  0.7368
  114OSM   C11F11950   1.867   1.989   9.618  0.6235 -0.4315  0.1862
  114OSM   H11F11951   1.829   1.890   9.649  0.7214 -0.7096 -0.5802
  114OSM   H11G11952   1.976   1.965   9.614  0.6265 -0.6312  1.1620
  114OSM   C12F11953   1.833   2.003   9.466 -0.7087  0.7516  0.2652
  114OSM   H12F11954   1.724   2.024   9.456 -0.5680  0.6138 -1.9727
  114OSM   H12G11955   1.857   1.909   9.412 -0.4485  1.0040 -0.0595
  114OSM   C13F11956   1.901   2.110   9.388 -0.0272  0.7239 -0.6708
  114OSM   H13F11957   2.011   2.095   9.385 -0.0491  0.3918 -0.0404
  114OSM   H13G11958   1.879   2.210   9.431 -0.1068  1.0666 -1.4799
  114OSM   C14F11959   1.852   2.118   9.243  0.2499 -1.2041  0.6540
  114OSM   H14F11960   1.887   2.207   9.186  1.4498 -2.4348 -0.5914
  114OSM   H14G11961   1.741   2.118   9.241  0.2573 -0.6541 -0.5708
  114OSM   C15F11962   1.898   1.998   9.162  0.2450  1.2086  0.5170
  114OSM   H15F11963   1.824   1.916   9.152  0.5914  1.0126 -0.5317
  114OSM   H15G11964   1.981   1.941   9.208 -0.7023  0.7361  1.6897
  114OSM   C16F11965   1.948   2.056   9.028 -0.7618 -0.5279  0.2297
  114OSM   H16F11966   2.011   2.144   9.055  0.2388 -1.2579  0.3510
  114OSM   H16G11967   1.855   2.092   8.980 -1.6716 -2.2204  0.6263
  114OSM   C17F11968   2.032   1.957   8.946 -0.0964  0.0966  0.2767
  114OSM   H17F11969   2.120   1.928   9.007  0.0025 -0.5399 -0.1689
  114OSM   H17G11970   2.067   1.991   8.846 -1.1452 -0.8972 -0.4485
  114OSM   C18F11971   1.959   1.825   8.916 -0.8108 -0.1768 -0.1908
  114OSM   H18F11972   2.042   1.761   8.880 -0.3899 -0.9011  1.9273
  114OSM   H18G11973   1.885   1.833   8.833 -0.2749 -0.9212 -0.7523
  114OSM   H18H11974   1.916   1.787   9.011  0.1325 -2.4712 -0.6146
  115OSM      N11975   6.532   0.259  11.051  0.6915 -0.5200  0.8405
  115OSM    C1511976   6.395   0.206  11.112 -0.4819 -0.6736  0.0532
  115OSM   H15A11977   6.319   0.282  11.108  0.3885  0.1708 -2.1234
  115OSM   H15B11978   6.395   0.181  11.217  0.1107  1.2219  0.5411
  115OSM   H15C11979   6.374   0.116  11.054 -0.8719  0.5504 -1.8013
  115OSM    C1411980   6.588   0.381  11.115  0.0228 -0.1618 -0.0843
  115OSM   H14A11981   6.517   0.459  11.135  1.8124  1.2222  1.2182
  115OSM   H14B11982   6.676   0.421  11.066  0.3823  1.2863  1.6459
  115OSM   H14C11983   6.621   0.352  11.213  0.2515 -1.2181 -0.4647
  115OSM    C1311984   6.638   0.149  11.063  0.1487 -0.6541 -0.6599
  115OSM   H13A11985   6.729   0.171  11.008 -0.6985 -1.6966 -2.5642
  115OSM   H13B11986   6.591   0.063  11.018 -1.9959  0.0815  0.0804
  115OSM   H13C11987   6.674   0.131  11.163 -2.7312  1.7514  0.9462
  115OSM    C1211988   6.509   0.285  10.901 -0.2464  0.0088  0.6030
  115OSM   H12A11989   6.490   0.186  10.864 -0.7486 -0.1731  1.3232
  115OSM   H12B11990   6.594   0.326  10.848 -0.4916 -0.7409 -0.3998
  115OSM    C1111991   6.394   0.381  10.869  0.1761 -0.2163 -0.0244
  115OSM   H11A11992   6.306   0.337  10.921  0.5466  0.3676  1.1350
  115OSM   H11B11993   6.376   0.378  10.759  0.3397 -1.2763 -0.0291
  115OSM      P11994   6.321   0.631  10.861 -0.1140 -0.2996 -0.1076
  115OSM    O1311995   6.189   0.596  10.915  1.1295  0.0923  0.3624
  115OSM    O1411996   6.368   0.766  10.898  0.0591 -0.8623  0.6663
  115OSM    O1111997   6.308   0.610  10.705  0.5495 -0.3292  0.3512
  115OSM    O1211998   6.425   0.519  10.904  0.2794  0.1936  0.0757
  115OSM    C1S11999   6.405   0.632  10.606  0.0550 -0.3853 -0.0713
  115OSM    H1S12000   6.487   0.557  10.616 -0.3434 -0.6225  1.8314
  115OSM    H1T12001   6.460   0.725  10.632 -1.6087  0.1051  1.9961
  115OSM     NF12002   6.459   0.621  10.369 -0.1156 -0.1641  0.0589
  115OSM    HNF12003   6.500   0.702  10.327 -0.6417 -0.1952 -0.5329
  115OSM    C2S12004   6.349   0.641  10.460 -0.0560  0.3339 -0.5034
  115OSM    H2S12005   6.276   0.559  10.440 -1.6852  1.2301  1.3981
  115OSM    C3S12006   6.265   0.763  10.447  0.1136  0.2411  0.0507
  115OSM    H3S12007   6.340   0.844  10.457  0.3727 -0.2423  2.4340
  115OSM     O312008   6.162   0.785  10.550 -0.5199 -0.0682 -0.0859
  115OSM    HO312009   6.183   0.720  10.617 -0.4131  0.2262  0.1731
  115OSM    C4S12010   6.198   0.755  10.306 -0.1493 -0.1975 -0.0721
  115OSM    H4S12011   6.251   0.813  10.229 -1.7321 -0.5713 -1.5041
  115OSM    C5S12012   6.075   0.705  10.279 -0.0545 -0.5300 -0.7581
  115OSM    H5S12013   6.016   0.662  10.362 -0.4867  0.8230 -0.3439
  115OSM    C6S12014   6.024   0.696  10.134  0.0704 -0.3474 -0.5653
  115OSM    H6S12015   5.923   0.741  10.130  0.1944 -0.0435 -0.3701
  115OSM    H6T12016   6.010   0.589  10.109 -1.2478 -0.0448 -1.2104
  115OSM    C7S12017   6.105   0.758  10.018  0.6770  0.1306 -0.5604
  115OSM    H7S12018   6.202   0.703  10.017  1.4600  1.3977  0.9358
  115OSM    H7T12019   6.120   0.865  10.040 -0.3428  0.0920  0.4466
  115OSM    C8S12020   6.033   0.744   9.883  0.2950  0.5120 -0.4813
  115OSM    H8S12021   5.933   0.793   9.889 -0.8138 -1.7001  0.3964
  115OSM    H8T12022   5.998   0.642   9.855 -1.2219  0.5357  1.1305
  115OSM    C9S12023   6.100   0.813   9.770  0.6754 -0.1666 -1.1105
  115OSM    H9S12024   6.202   0.769   9.771  0.3784 -0.8762  0.6939
  115OSM    H9T12025   6.103   0.921   9.797  1.3291 -0.5280  0.3431
  115OSM   C10S12026   6.034   0.801   9.643  0.1629 -0.4182  0.5878
  115OSM   H10S12027   5.938   0.856   9.637  0.0052 -0.4680  2.2104
  115OSM   H10T12028   5.990   0.699   9.650 -2.8802  0.7909  0.7836
  115OSM   C11S12029   6.124   0.822   9.527 -0.0343 -0.2792  0.2358
  115OSM   H11S12030   6.221   0.768   9.536  2.7378  4.2096  0.5363
  115OSM   H11T12031   6.153   0.929   9.530  0.4815 -0.3828 -0.6257
  115OSM   C12S12032   6.045   0.795   9.397 -0.5386  0.6221  0.4088
  115OSM   H12S12033   5.945   0.844   9.402 -2.3456 -2.3761 -2.4828
  115OSM   H12T12034   6.021   0.689   9.373  1.6427 -0.1090  1.2076
  115OSM   C13S12035   6.129   0.847   9.275  0.8925  0.3140  0.0386
  115OSM   H13S12036   6.214   0.776   9.268 -0.7465 -1.7007 -0.2246
  115OSM   H13T12037   6.157   0.953   9.292  2.5481 -0.3665  1.9195
  115OSM   C14S12038   6.048   0.850   9.142  0.4735  0.0978  0.3109
  115OSM   H14S12039   5.947   0.896   9.152  0.7403  0.5507  1.0727
  115OSM   H14T12040   6.030   0.746   9.107 -0.1163  0.1850  0.3335
  115OSM   C15S12041   6.127   0.923   9.027 -0.4042  0.2991  0.1109
  115OSM   H15S12042   6.223   0.868   9.019  0.0149  0.5115  2.7502
  115OSM   H15T12043   6.148   1.030   9.048  2.2268 -0.2602  0.7774
  115OSM   C16S12044   6.063   0.923   8.888  0.0390  0.4478 -0.0836
  115OSM   H16S12045   5.968   0.979   8.900  0.6266  1.2544  1.0039
  115OSM   H16T12046   6.056   0.817   8.854 -0.4815  1.2530 -2.6773
  115OSM   C17S12047   6.157   1.002   8.797  0.3548 -0.2754  0.1207
  115OSM   H17S12048   6.255   0.952   8.804  0.9221  0.5771 -1.2410
  115OSM   H17T12049   6.180   1.101   8.842  0.6391 -1.3726  2.5374
  115OSM   C18S12050   6.106   1.011   8.646  0.4586  0.0304  0.1800
  115OSM   H18S12051   5.999   1.039   8.653 -0.1195 -1.8730 -0.3983
  115OSM   H18T12052   6.109   0.909   8.601  1.6884 -0.4836  1.3432
  115OSM   H18U12053   6.157   1.092   8.590  0.3123  0.1735  0.2554
  115OSM    C1F12054   6.523   0.503  10.361 -0.5305  0.4045  0.0843
  115OSM     OF12055   6.489   0.410  10.427 -0.4072  0.2583  0.0145
  115OSM    C2F12056   6.644   0.497  10.277 -0.4946  0.4651 -0.4661
  115OSM    H2F12057   6.737   0.526  10.330 -0.7900  1.9968 -0.7217
  115OSM    H2G12058   6.619   0.572  10.199 -0.8912  0.9603  0.1340
  115OSM    C3F12059   6.664   0.352  10.214  0.1916 -1.0159  0.1437
  115OSM    H3F12060   6.686   0.275  10.291  1.0453 -0.3932  0.5379
  115OSM    H3G12061   6.755   0.353  10.150 -0.1054 -1.9659 -0.3143
  115OSM    C4F12062   6.547   0.311  10.119 -0.3490  0.4029 -0.3332
  115OSM    H4F12063   6.458   0.282  10.178 -0.0278 -2.8039 -1.2136
  115OSM    H4G12064   6.576   0.215  10.071 -0.9625  0.1492 -0.2101
  115OSM    C5F12065   6.514   0.422  10.019  0.7989  0.1184 -0.0419
  115OSM    H5F12066   6.607   0.464   9.975  1.1881  0.7115  1.3086
  115OSM    H5G12067   6.468   0.510  10.070  1.9352  0.8181 -0.1866
  115OSM    C6F12068   6.418   0.387   9.907  0.6136  0.0427 -0.0606
  115OSM    H6F12069   6.317   0.368   9.951  1.3862 -0.6641  1.4718
  115OSM    H6G12070   6.449   0.293   9.857 -1.8380 -0.0437 -1.5684
  115OSM    C7F12071   6.416   0.495   9.802  0.1345 -0.0287  0.8245
  115OSM    H7F12072   6.515   0.530   9.766 -0.6609  0.8502 -0.6016
  115OSM    H7G12073   6.359   0.585   9.837  2.2104  1.8187 -0.3011
  115OSM    C8F12074   6.343   0.461   9.675  0.2768  0.2473 -0.0312
  115OSM    H8F12075   6.335   0.556   9.619  2.0417 -0.3043 -1.3004
  115OSM    H8G12076   6.238   0.430   9.695 -0.4527  0.9297 -2.5484
  115OSM    C9F12077   6.411   0.374   9.575 -0.1725  0.0360  0.2477
  115OSM    H9F12078   6.422   0.270   9.609  2.8101 -0.5906 -2.1817
  115OSM   C10F12079   6.469   0.395   9.456 -0.0075  0.0463  0.1905
  115OSM   H10F12080   6.513   0.307   9.407  2.6790  0.7406  1.1358
  115OSM   C11F12081   6.475   0.516   9.375 -0.3054  0.1776 -1.1925
  115OSM   H11F12082   6.579   0.554   9.379 -0.2836  0.0582  2.9732
  115OSM   H11G12083   6.430   0.607   9.419  0.7866  0.3874 -0.4531
  115OSM   C12F12084   6.418   0.503   9.231  0.0611  0.4094  0.3504
  115OSM   H12F12085   6.481   0.424   9.185  0.3909  1.1853 -0.5612
  115OSM   H12G12086   6.442   0.597   9.177  0.5853  1.2441  1.9627
  115OSM   C13F12087   6.271   0.459   9.218  0.0081 -0.2900 -0.0465
  115OSM   H13F12088   6.200   0.513   9.284 -0.6956 -1.9312  0.5983
  115OSM   H13G12089   6.266   0.351   9.243 -2.0655 -0.1476  0.2831
  115OSM   C14F12090   6.217   0.472   9.079 -0.1487 -0.1569 -0.0641
  115OSM   H14F12091   6.289   0.424   9.009  0.6286  0.3679  0.3545
  115OSM   H14G12092   6.220   0.580   9.054  0.5200  0.0033  0.6665
  115OSM   C15F12093   6.074   0.431   9.071  0.4285  0.1645 -0.0625
  115OSM   H15F12094   6.031   0.483   9.159 -0.1839 -2.2406  1.1594
  115OSM   H15G12095   6.071   0.321   9.086  2.4060  0.0739 -0.1177
  115OSM   C16F12096   6.013   0.476   8.936 -0.7521  0.1491  0.0147
  115OSM   H16F12097   6.036   0.388   8.872 -1.2297 -1.1740  1.6200
  115OSM   H16G12098   6.059   0.572   8.904  1.5171 -0.6021  0.8797
  115OSM   C17F12099   5.859   0.494   8.931  0.2291  0.3784  0.4747
  115OSM   H17F12100   5.841   0.535   8.830  0.7838  0.0790  0.2499
  115OSM   H17G12101   5.823   0.573   9.001  1.6730  2.6563 -1.2199
  115OSM   C18F12102   5.773   0.369   8.947  0.1891 -0.2528 -0.3807
  115OSM   H18F12103   5.792   0.330   9.050 -2.1054  2.1487  1.0695
  115OSM   H18G12104   5.794   0.288   8.874  1.3820 -0.0717 -0.2650
  115OSM   H18H12105   5.666   0.392   8.932  0.8278  1.4477 -2.9281
  116OSM      N12106   2.526   4.227  11.250 -0.4085 -0.2687  0.1488
  116OSM    C1512107   2.373   4.246  11.286 -0.3010 -0.0320 -0.3799
  116OSM   H15A12108   2.355   4.346  11.321  2.3406 -0.3596  2.2156
  116OSM   H15B12109   2.350   4.175  11.364  0.7799 -0.7032 -0.6417
  116OSM   H15C12110   2.320   4.231  11.193 -1.7049 -0.1947  0.4206
  116OSM    C1412111   2.611   4.224  11.371 -0.1137  0.0882 -0.3875
  116OSM   H14A12112   2.568   4.162  11.448  3.7396  0.2254  2.1688
  116OSM   H14B12113   2.630   4.323  11.410  0.4389  0.2630 -1.0625
  116OSM   H14C12114   2.711   4.186  11.354 -0.0082 -0.0891  0.5693
  116OSM    C1312115   2.544   4.100  11.179 -0.0587 -0.1480  0.5158
  116OSM   H13A12116   2.644   4.096  11.139 -1.2455  0.5018 -2.8766
  116OSM   H13B12117   2.472   4.090  11.099 -3.1316  0.4383  3.0206
  116OSM   H13C12118   2.533   4.005  11.230 -2.6523 -0.0857  0.2330
  116OSM    C1212119   2.569   4.337  11.154 -0.1200  0.2925 -0.2384
  116OSM   H12A12120   2.676   4.330  11.145 -0.1730  0.2892 -0.9770
  116OSM   H12B12121   2.543   4.434  11.192 -1.1124 -0.4006  0.9175
  116OSM    C1112122   2.514   4.331  11.010 -1.0244  0.5134 -0.0481
  116OSM   H11A12123   2.533   4.235  10.958 -1.3978  0.0389  0.6668
  116OSM   H11B12124   2.569   4.405  10.948 -1.5127  1.8254  1.0431
  116OSM      P12125   2.313   4.502  11.006 -0.0185  0.1585 -0.2172
  116OSM    O1312126   2.173   4.503  11.057  0.2806 -0.4256  0.5948
  116OSM    O1412127   2.407   4.600  11.064  0.0582  0.6942  0.8314
  116OSM    O1112128   2.304   4.542  10.855  0.5134 -0.1063 -0.1832
  116OSM    O1212129   2.377   4.360  11.018 -0.3068 -0.4492  0.4485
  116OSM    C1S12130   2.357   4.466  10.752 -0.4871 -0.4403 -0.1923
  116OSM    H1S12131   2.310   4.366  10.743  0.7623 -0.8694 -3.7363
  116OSM    H1T12132   2.467   4.466  10.769 -0.3320  0.6297 -1.0481
  116OSM     NF12133   2.372   4.444  10.505 -0.0847 -0.8061 -0.4161
  116OSM    HNF12134   2.465   4.459  10.472 -0.5503 -1.2764 -2.0280
  116OSM    C2S12135   2.332   4.535  10.613  0.4442  0.5715 -1.1079
  116OSM    H2S12136   2.223   4.551  10.601  0.2651 -0.0407 -0.3345
  116OSM    C3S12137   2.403   4.675  10.603 -0.3437 -0.1839  0.3338
  116OSM    H3S12138   2.514   4.675  10.610 -0.2614  0.5465 -0.6704
  116OSM     O312139   2.353   4.771  10.697 -0.0601  0.3819 -0.1936
  116OSM    HO312140   2.288   4.732  10.755 -0.6356  0.6759 -0.6320
  116OSM    C4S12141   2.366   4.732  10.467 -0.4912 -0.7336 -0.9090
  116OSM    H4S12142   2.258   4.747  10.449 -0.6008  0.6801  0.6107
  116OSM    C5S12143   2.459   4.765  10.373 -0.7156 -0.6133 -0.0565
  116OSM    H5S12144   2.568   4.760  10.386 -0.4517 -0.3322 -1.9179
  116OSM    C6S12145   2.430   4.813  10.236  0.5001 -0.2061  0.1311
  116OSM    H6S12146   2.474   4.910  10.205 -0.6204 -0.2940 -1.8827
  116OSM    H6T12147   2.321   4.823  10.217  0.2844  0.0933  1.4279
  116OSM    C7S12148   2.484   4.715  10.133 -0.3210  0.0538 -1.0733
  116OSM    H7S12149   2.425   4.621  10.143  2.6684 -1.8047  0.5397
  116OSM    H7T12150   2.592   4.702  10.158 -1.0925  0.0042  2.9197
  116OSM    C8S12151   2.483   4.757   9.986  0.5009  0.2037  0.8981
  116OSM    H8S12152   2.514   4.864   9.994 -0.5784  0.5092  1.1987
  116OSM    H8T12153   2.380   4.756   9.946  0.9067 -1.0749 -0.1767
  116OSM    C9S12154   2.574   4.681   9.891 -0.5855  0.1322  0.0435
  116OSM    H9S12155   2.552   4.573   9.908 -1.1618  0.4678  1.6266
  116OSM    H9T12156   2.682   4.700   9.909 -0.9858  0.3550  2.6639
  116OSM   C10S12157   2.547   4.736   9.753 -0.5455 -0.4369 -0.2226
  116OSM   H10S12158   2.565   4.845   9.749 -2.3558 -0.0998  0.0993
  116OSM   H10T12159   2.438   4.725   9.735 -0.6130 -0.1096 -0.0219
  116OSM   C11S12160   2.622   4.672   9.636  0.2140  0.4519 -0.5919
  116OSM   H11S12161   2.652   4.567   9.656  0.4830  1.0119  2.3510
  116OSM   H11T12162   2.723   4.719   9.633  0.3628  0.2531  0.8024
  116OSM   C12S12163   2.539   4.682   9.505  0.3966 -0.0805 -0.2623
  116OSM   H12S12164   2.517   4.790   9.494 -1.7779 -0.5924 -1.5908
  116OSM   H12T12165   2.439   4.635   9.520  1.4541 -2.2408  0.4386
  116OSM   C13S12166   2.621   4.630   9.392 -0.9090 -0.0442  0.4629
  116OSM   H13S12167   2.617   4.521   9.410 -0.5702  0.0480  1.1303
  116OSM   H13T12168   2.722   4.675   9.382 -1.0866  0.1527 -0.5030
  116OSM   C14S12169   2.551   4.658   9.254  0.2497  0.2732  0.0133
  116OSM   H14S12170   2.519   4.764   9.252 -0.7481 -0.0248 -0.2737
  116OSM   H14T12171   2.460   4.595   9.241  0.1796  0.7500 -2.2923
  116OSM   C15S12172   2.646   4.640   9.139  0.0085 -0.0396 -0.0178
  116OSM   H15S12173   2.688   4.538   9.134  0.7864  0.3016 -0.6651
  116OSM   H15T12174   2.736   4.704   9.152 -0.3971  0.8777 -1.4240
  116OSM   C16S12175   2.591   4.666   8.999  0.1253  0.0628  0.2472
  116OSM   H16S12176   2.515   4.590   8.970  1.0099 -0.5352 -0.5598
  116OSM   H16T12177   2.676   4.653   8.928 -1.5501 -1.3759 -1.6269
  116OSM   C17S12178   2.527   4.800   8.976 -0.2720 -0.6283  0.6398
  116OSM   H17S12179   2.584   4.885   9.018 -1.0287 -0.9207  2.3837
  116OSM   H17T12180   2.429   4.807   9.029  1.2238  2.5613  3.3212
  116OSM   C18S12181   2.495   4.825   8.823 -0.3791 -0.4606  0.3129
  116OSM   H18S12182   2.575   4.784   8.757 -0.6653 -1.9425  0.8440
  116OSM   H18T12183   2.503   4.932   8.798  0.6070  0.0357  2.4809
  116OSM   H18U12184   2.395   4.785   8.794 -2.6296  2.5893  3.0774
  116OSM    C1F12185   2.308   4.330  10.479 -0.5827  0.8619 -0.2018
  116OSM     OF12186   2.203   4.287  10.538 -0.1595  0.1257  0.5536
  116OSM    C2F12187   2.367   4.255  10.363  0.4817 -0.1967  0.5686
  116OSM    H2F12188   2.473   4.230  10.386  0.6361 -0.3200 -0.2747
  116OSM    H2G12189   2.364   4.334  10.285 -0.6292  0.2854  1.0766
  116OSM    C3F12190   2.290   4.129  10.315  0.6199  0.2530  0.3934
  116OSM    H3F12191   2.182   4.155  10.314 -0.1824 -2.3729 -3.3906
  116OSM    H3G12192   2.307   4.047  10.388 -0.2109  0.0231  0.3446
  116OSM    C4F12193   2.333   4.074  10.176  0.4779  0.2285  0.3766
  116OSM    H4F12194   2.260   3.994  10.150  1.7437 -0.2744 -1.8420
  116OSM    H4G12195   2.431   4.023  10.187  1.3963  1.4870 -1.5151
  116OSM    C5F12196   2.342   4.186  10.070  0.6995  0.3129 -0.3452
  116OSM    H5F12197   2.436   4.240  10.095  1.0953  0.6846 -2.4221
  116OSM    H5G12198   2.270   4.269  10.060  0.4521  0.1436  0.0168
  116OSM    C6F12199   2.344   4.124   9.933 -0.6457 -0.4244 -0.2879
  116OSM    H6F12200   2.248   4.069   9.917  0.1657 -2.5015  1.4626
  116OSM    H6G12201   2.423   4.046   9.929 -2.4039 -2.3300  0.0426
  116OSM    C7F12202   2.345   4.237   9.822  0.6901  0.0529 -0.5694
  116OSM    H7F12203   2.291   4.327   9.859  1.0334  0.8366 -1.9199
  116OSM    H7G12204   2.292   4.195   9.734 -1.9587 -0.1764  1.0156
  116OSM    C8F12205   2.488   4.267   9.780  0.2391  0.0816 -0.0877
  116OSM    H8F12206   2.557   4.291   9.863 -1.3873 -0.8117  1.5882
  116OSM    H8G12207   2.485   4.354   9.711 -0.6964  0.7235  0.7417
  116OSM    C9F12208   2.551   4.144   9.715  0.3182  0.0376  0.4028
  116OSM    H9F12209   2.605   4.080   9.787 -0.0586 -0.9526 -0.1812
  116OSM   C10F12210   2.544   4.100   9.581  0.0022 -0.3277 -0.2820
  116OSM   H10F12211   2.600   4.008   9.557  1.1328  0.0570  0.8027
  116OSM   C11F12212   2.457   4.173   9.479  0.9351 -0.6614  0.2235
  116OSM   H11F12213   2.454   4.281   9.504  0.4553 -0.6826  0.2681
  116OSM   H11G12214   2.354   4.132   9.491 -0.2889  2.0022 -0.3338
  116OSM   C12F12215   2.502   4.150   9.334 -0.4752  0.3443  0.4738
  116OSM   H12F12216   2.477   4.045   9.307 -1.8639  0.6758  0.3782
  116OSM   H12G12217   2.612   4.166   9.330 -0.2932 -0.8599  0.2108
  116OSM   C13F12218   2.434   4.250   9.238 -0.3178  0.3941 -0.5481
  116OSM   H13F12219   2.431   4.347   9.291  0.2562 -0.3428  0.8919
  116OSM   H13G12220   2.328   4.222   9.221 -0.0524  0.6421 -2.9327
  116OSM   C14F12221   2.505   4.257   9.108 -0.1336 -0.0050 -0.6456
  116OSM   H14F12222   2.571   4.168   9.096  0.9482  0.0151  3.6068
  116OSM   H14G12223   2.565   4.350   9.107 -1.7886  1.1101 -0.4421
  116OSM   C15F12224   2.409   4.258   8.990 -0.6018  0.4117  0.0166
  116OSM   H15F12225   2.342   4.346   9.000  0.7832  1.5588 -0.5149
  116OSM   H15G12226   2.352   4.162   8.983 -0.2477  0.0950  1.1843
  116OSM   C16F12227   2.492   4.266   8.863 -0.4119  0.0622  0.1561
  116OSM   H16F12228   2.600   4.265   8.890 -0.3360 -0.7076 -0.1750
  116OSM   H16G12229   2.459   4.356   8.807  0.0207  0.8591  1.1414
  116OSM   C17F12230   2.469   4.146   8.764 -0.1575  0.0568  0.0716
  116OSM   H17F12231   2.503   4.163   8.660 -0.6985 -1.5300 -0.3989
  116OSM   H17G12232   2.359   4.134   8.749  0.0086 -1.0401 -0.3854
  116OSM   C18F12233   2.527   4.016   8.817 -0.3155  0.4544  0.2721
  116OSM   H18F12234   2.508   3.989   8.923  1.2988 -1.3673  0.1634
  116OSM   H18G12235   2.637   4.033   8.813 -0.3085  0.4223  0.3261
  116OSM   H18H12236   2.500   3.929   8.753  0.1277  1.3321 -1.1630
  117OSM      N12237   1.798   4.941  10.734  0.0195 -0.0295  0.3093
  117OSM    C1512238   1.703   4.848  10.799 -0.1781 -0.0674 -0.2159
  117OSM   H15A12239   1.758   4.786  10.869  0.7214 -0.1287 -0.9546
  117OSM   H15B12240   1.650   4.795  10.722  1.2733  1.0151 -2.0337
  117OSM   H15C12241   1.630   4.901  10.859  2.0937  0.2339  2.5126
  117OSM    C1412242   1.918   4.857  10.682 -0.1844  0.1310  0.2499
  117OSM   H14A12243   1.996   4.928  10.659  1.0924 -1.5313 -0.7756
  117OSM   H14B12244   1.891   4.802  10.593  1.8788  0.7861 -0.8335
  117OSM   H14C12245   1.953   4.778  10.747 -0.6988 -1.4314 -1.2726
  117OSM    C1312246   1.732   5.012  10.616  0.0160  0.3599 -0.5295
  117OSM   H13A12247   1.659   5.087  10.642  0.4380  0.8988 -0.8773
  117OSM   H13B12248   1.675   4.937  10.563 -0.9351  0.3546  0.4664
  117OSM   H13C12249   1.809   5.054  10.553 -0.7960  0.5608 -1.4211
  117OSM    C1212250   1.849   5.044  10.825 -0.2293 -0.6781 -0.2008
  117OSM   H12A12251   1.914   5.109  10.769  1.3521 -0.1586  2.1392
  117OSM   H12B12252   1.909   4.998  10.902 -0.6896 -1.5827 -0.3674
  117OSM    C1112253   1.751   5.133  10.898 -0.5403  0.2323  0.1977
  117OSM   H11A12254   1.808   5.179  10.982  0.8810 -0.0102 -0.5885
  117OSM   H11B12255   1.677   5.057  10.930 -0.1069 -0.2511  0.0659
  117OSM      P12256   1.574   5.305  10.849  0.1137 -0.0783 -0.2118
  117OSM    O1312257   1.461   5.215  10.884  0.6365 -0.5097  0.1278
  117OSM    O1412258   1.593   5.417  10.946 -0.2991  0.0751  0.1876
  117OSM    O1112259   1.530   5.378  10.719 -0.1050  0.1179  0.2938
  117OSM    O1212260   1.699   5.232  10.811 -0.3581  0.4124 -0.2842
  117OSM    C1S12261   1.618   5.453  10.631 -0.1734  0.0200 -0.2728
  117OSM    H1S12262   1.712   5.489  10.679 -0.3670  1.9520 -1.2495
  117OSM    H1T12263   1.566   5.549  10.608  0.0408  0.6246  1.6112
  117OSM     NF12264   1.749   5.456  10.432  0.6762  0.3340  0.0188
  117OSM    HNF12265   1.719   5.526  10.368 -0.4541  0.3975  0.6026
  117OSM    C2S12266   1.651   5.377  10.501  0.1546 -0.2876  0.4140
  117OSM    H2S12267   1.686   5.275  10.525 -3.4862 -1.8840 -0.3308
  117OSM    C3S12268   1.519   5.355  10.423  0.2205 -0.0267  0.6691
  117OSM    H3S12269   1.467   5.446  10.385 -1.1109 -0.2366  1.9340
  117OSM     O312270   1.424   5.291  10.500  0.3247 -0.1774  0.1035
  117OSM    HO312271   1.446   5.326  10.586  0.0521  0.1731  0.0327
  117OSM    C4S12272   1.562   5.275  10.306  0.9574 -0.5081 -0.3959
  117OSM    H4S12273   1.570   5.349  10.224 -3.1948  1.1497  0.4497
  117OSM    C5S12274   1.576   5.140  10.286  0.4243  0.7415 -0.4520
  117OSM    H5S12275   1.547   5.070  10.366  2.2164  0.8455  0.3260
  117OSM    C6S12276   1.604   5.069  10.157  0.6284 -0.2315  0.5389
  117OSM    H6S12277   1.520   4.997  10.146 -0.6441  1.1820  0.6551
  117OSM    H6T12278   1.701   5.016  10.167  0.1894 -1.8564 -2.5992
  117OSM    C7S12279   1.611   5.152  10.028  0.1580 -0.4048 -0.0162
  117OSM    H7S12280   1.693   5.226  10.025  0.6283 -0.9341 -1.6519
  117OSM    H7T12281   1.510   5.191  10.003  0.1057 -1.0892 -0.9311
  117OSM    C8S12282   1.646   5.061   9.909  0.6035  0.2491  0.0751
  117OSM    H8S12283   1.570   4.983   9.892  2.2876 -0.8433 -3.2344
  117OSM    H8T12284   1.743   5.014   9.940  0.1896  0.4069  1.7008
  117OSM    C9S12285   1.696   5.132   9.777 -0.5199 -0.5979 -0.7220
  117OSM    H9S12286   1.793   5.185   9.786 -2.1796  3.0337 -2.2713
  117OSM    H9T12287   1.619   5.205   9.744 -0.7992 -0.6138 -0.1334
  117OSM   C10S12288   1.701   5.028   9.662  0.5774 -0.4310 -0.0473
  117OSM   H10S12289   1.593   5.009   9.649  0.5744  0.2253 -0.9950
  117OSM   H10T12290   1.751   4.929   9.676  0.0910 -1.2806 -3.4081
  117OSM   C11S12291   1.768   5.078   9.532 -0.3903 -0.2123  0.4355
  117OSM   H11S12292   1.867   5.121   9.558 -0.8623  2.0444 -1.2568
  117OSM   H11T12293   1.705   5.164   9.502 -1.2483 -1.2427 -0.8426
  117OSM   C12S12294   1.765   4.975   9.426 -0.1736  0.2299  0.3194
  117OSM   H12S12295   1.658   4.952   9.409 -0.1925  0.3325  0.2967
  117OSM   H12T12296   1.819   4.879   9.441  1.7327  0.6709 -2.7705
  117OSM   C13S12297   1.832   5.048   9.309  0.4651  0.0275  0.3873
  117OSM   H13S12298   1.863   4.982   9.225 -1.1884  0.3223 -0.5096
  117OSM   H13T12299   1.921   5.108   9.336  2.1527 -3.4761  3.5774
  117OSM   C14S12300   1.736   5.145   9.246  0.1202  0.2456 -0.3490
  117OSM   H14S12301   1.709   5.239   9.300  2.4520  1.2901 -0.9023
  117OSM   H14T12302   1.644   5.086   9.226 -1.2144  0.9953  2.9403
  117OSM   C15S12303   1.785   5.201   9.112  0.0416 -0.8931  0.0535
  117OSM   H15S12304   1.793   5.115   9.042  0.1957 -0.1361 -0.8763
  117OSM   H15T12305   1.888   5.242   9.119 -0.0548 -0.4987 -0.7026
  117OSM   C16S12306   1.689   5.305   9.057  0.6315  0.0635  0.0585
  117OSM   H16S12307   1.719   5.404   9.096 -1.6264  0.3886  1.1760
  117OSM   H16T12308   1.584   5.283   9.088  0.0702  2.7111  0.2972
  117OSM   C17S12309   1.696   5.305   8.896 -0.0927 -0.2145 -0.7800
  117OSM   H17S12310   1.660   5.204   8.866  1.0662 -0.9965  0.3436
  117OSM   H17T12311   1.804   5.318   8.874 -0.2601 -0.7694 -1.9669
  117OSM   C18S12312   1.614   5.431   8.831  0.1430  0.8968 -0.3836
  117OSM   H18S12313   1.560   5.488   8.910 -0.8174 -0.2903 -0.1438
  117OSM   H18T12314   1.542   5.384   8.761 -1.0851  1.8550  0.2037
  117OSM   H18U12315   1.681   5.490   8.766  0.4524 -2.0227 -2.9333
  117OSM    C1F12316   1.884   5.441  10.464 -0.0419  0.3166 -1.0607
  117OSM     OF12317   1.918   5.364  10.554 -0.5429  0.8809  0.0243
  117OSM    C2F12318   1.983   5.524  10.397  0.1550  0.9148 -0.5288
  117OSM    H2F12319   1.932   5.607  10.345 -1.6079  0.2284  0.0125
  117OSM    H2G12320   2.030   5.461  10.318  1.2793  0.1286  0.7190
  117OSM    C3F12321   2.099   5.591  10.480  0.6251 -0.1212 -0.1318
  117OSM    H3F12322   2.141   5.511  10.544 -0.6857 -0.5740  0.1977
  117OSM    H3G12323   2.049   5.670  10.540 -2.4742 -0.8952 -1.4830
  117OSM    C4F12324   2.213   5.654  10.394 -0.5062  0.4733  0.5368
  117OSM    H4F12325   2.270   5.576  10.339  1.5526  1.9122  0.5022
  117OSM    H4G12326   2.269   5.712  10.470  1.5900  0.4758 -0.9123
  117OSM    C5F12327   2.172   5.760  10.291  0.4464 -0.2086  0.0846
  117OSM    H5F12328   2.261   5.814  10.252  0.0290  1.4554  1.3258
  117OSM    H5G12329   2.108   5.837  10.338  1.2045  0.2761  0.3512
  117OSM    C6F12330   2.125   5.702  10.162  0.5778 -0.2116  0.4014
  117OSM    H6F12331   2.089   5.785  10.098 -1.1320 -1.1183  0.1282
  117OSM    H6G12332   2.034   5.640  10.173 -0.9428  1.7119 -0.7888
  117OSM    C7F12333   2.224   5.620  10.080  0.7375 -0.5853  0.3180
  117OSM    H7F12334   2.238   5.519  10.125  1.5743 -1.4609 -1.7830
  117OSM    H7G12335   2.323   5.669  10.094  1.4512 -1.4782 -1.3771
  117OSM    C8F12336   2.187   5.601   9.926 -0.2796  0.5637  0.1941
  117OSM    H8F12337   2.087   5.553   9.937  0.2886 -0.7073 -0.0553
  117OSM    H8G12338   2.248   5.516   9.890 -1.1493 -0.5794  1.3230
  117OSM    C9F12339   2.196   5.736   9.850 -0.1509 -0.3920 -1.3305
  117OSM    H9F12340   2.098   5.787   9.852 -0.7568 -1.4996 -1.7935
  117OSM   C10F12341   2.303   5.792   9.798 -0.0198  0.6709  0.4110
  117OSM   H10F12342   2.284   5.885   9.744 -1.7554  0.9014  1.3453
  117OSM   C11F12343   2.440   5.739   9.784  0.4200  0.4631  0.1344
  117OSM   H11F12344   2.457   5.635   9.819 -1.8991  0.4992  1.5526
  117OSM   H11G12345   2.508   5.800   9.848  2.1007  0.4457 -1.5466
  117OSM   C12F12346   2.483   5.733   9.633  0.0601  0.4333  0.5340
  117OSM   H12F12347   2.587   5.694   9.627  0.4900  0.9749  3.0786
  117OSM   H12G12348   2.485   5.838   9.598 -3.9460  0.2799 -0.6311
  117OSM   C13F12349   2.394   5.663   9.535  0.0580  0.1806 -0.3436
  117OSM   H13F12350   2.306   5.728   9.517  1.0305  1.5756 -0.2669
  117OSM   H13G12351   2.356   5.562   9.559 -0.5365  0.5739  0.4079
  117OSM   C14F12352   2.459   5.664   9.394  0.8253  0.2773  0.6225
  117OSM   H14F12353   2.392   5.599   9.333  0.4063  2.0684 -0.9131
  117OSM   H14G12354   2.562   5.624   9.396  0.2907 -1.1422  1.9568
  117OSM   C15F12355   2.460   5.804   9.317  0.4548  0.4969 -0.8435
  117OSM   H15F12356   2.527   5.877   9.366 -0.6021  1.0908 -0.2445
  117OSM   H15G12357   2.363   5.856   9.331 -0.0257 -0.6001  0.1492
  117OSM   C16F12358   2.497   5.795   9.171 -0.2427 -0.0140  0.3765
  117OSM   H16F12359   2.592   5.738   9.164  0.8784  1.9177 -1.2510
  117OSM   H16G12360   2.536   5.896   9.147  2.1250 -0.7347  0.8652
  117OSM   C17F12361   2.390   5.753   9.063  0.7007  0.2792 -0.3148
  117OSM   H17F12362   2.304   5.821   9.081  0.1006 -0.4460 -0.4382
  117OSM   H17G12363   2.347   5.655   9.091  1.2759 -0.4440 -1.8630
  117OSM   C18F12364   2.424   5.749   8.917  0.1428  0.4784  0.3971
  117OSM   H18F12365   2.501   5.673   8.896  1.6261  1.7599  1.0112
  117OSM   H18G12366   2.472   5.847   8.896 -1.5923  1.5509  1.1743
  117OSM   H18H12367   2.327   5.746   8.862 -1.7022  0.2245  3.4428
  118OSM      N12368   1.204   6.268  11.278 -0.5650  0.3568  0.4714
  118OSM    C1512369   1.088   6.185  11.299 -0.0291  0.2662 -0.7955
  118OSM   H15A12370   1.060   6.131  11.210 -0.7871  1.1705 -1.1184
  118OSM   H15B12371   1.000   6.239  11.331 -0.8795 -1.3691 -0.2604
  118OSM   H15C12372   1.115   6.109  11.371  0.3635 -0.6216 -1.8438
  118OSM    C1412373   1.248   6.340  11.401 -0.3785 -0.1957  0.0858
  118OSM   H14A12374   1.157   6.381  11.442 -0.7452 -0.3935 -0.5084
  118OSM   H14B12375   1.320   6.414  11.369  0.3609 -1.3367 -1.0057
  118OSM   H14C12376   1.295   6.274  11.471 -0.8004 -1.0414 -0.4142
  118OSM    C1312377   1.317   6.194  11.214 -0.8626 -0.2691  0.2370
  118OSM   H13A12378   1.289   6.116  11.145  0.5506 -1.2399  0.7162
  118OSM   H13B12379   1.378   6.148  11.291 -1.1648  0.1662  0.7475
  118OSM   H13C12380   1.373   6.267  11.158 -0.5457  0.0362  0.9275
  118OSM    C1212381   1.152   6.378  11.186  0.2844  0.9100 -0.8223
  118OSM   H12A12382   1.067   6.426  11.232  1.7511  1.1198  1.8063
  118OSM   H12B12383   1.128   6.331  11.091  1.2055  0.9243 -1.0694
  118OSM    C1112384   1.245   6.493  11.138 -0.7639  0.2145 -0.1485
  118OSM   H11A12385   1.302   6.527  11.227  1.4085 -1.6241 -0.7502
  118OSM   H11B12386   1.180   6.573  11.096  0.1770  0.8680 -0.3875
  118OSM      P12387   1.303   6.426  10.897  0.4056  0.1546 -0.4601
  118OSM    O1312388   1.432   6.419  10.824  0.5476  0.2279  0.5538
  118OSM    O1412389   1.205   6.309  10.888 -0.2551 -0.3179  0.0751
  118OSM    O1112390   1.225   6.554  10.855 -0.3346 -0.2233  0.3377
  118OSM    O1212391   1.342   6.449  11.043 -0.1316  0.2255  0.3137
  118OSM    C1S12392   1.282   6.650  10.764  0.0384 -0.0096  0.4856
  118OSM    H1S12393   1.391   6.635  10.750  0.0115  0.2065  0.0510
  118OSM    H1T12394   1.269   6.752  10.807  2.0468  0.4495  0.0683
  118OSM     NF12395   1.289   6.744  10.543 -0.3453  0.6104  0.2921
  118OSM    HNF12396   1.247   6.828  10.512  1.0001  0.8966 -0.8812
  118OSM    C2S12397   1.214   6.647  10.621 -0.1088  0.1181  0.9267
  118OSM    H2S12398   1.232   6.545  10.582 -0.7820  0.1920  0.4019
  118OSM    C3S12399   1.058   6.677  10.627  0.5450  0.1758  0.1381
  118OSM    H3S12400   1.052   6.788  10.636  0.2206  0.1417  0.3688
  118OSM     O312401   1.001   6.605  10.738  0.6987 -0.9309  0.1996
  118OSM    HO312402   1.075   6.595  10.798 -0.7613  1.5838  2.6480
  118OSM    C4S12403   0.994   6.638  10.498  0.4150  0.0064  1.0196
  118OSM    H4S12404   1.003   6.530  10.477 -0.8318  0.3942 -2.1053
  118OSM    C5S12405   0.929   6.726  10.417 -0.1202 -0.1088  0.8293
  118OSM    H5S12406   0.913   6.833  10.435  0.1315  0.0840 -0.0581
  118OSM    C6S12407   0.875   6.703  10.282  0.0960  0.2815  0.5610
  118OSM    H6S12408   0.789   6.770  10.258  2.1275  2.4465 -1.2135
  118OSM    H6T12409   0.843   6.598  10.264  0.8381 -0.0868  1.3366
  118OSM    C7S12410   0.986   6.751  10.183  0.0513 -0.5254  0.9181
  118OSM    H7S12411   1.073   6.683  10.198  0.5453  0.2976  1.8641
  118OSM    H7T12412   1.032   6.848  10.210  0.2187 -0.0937 -0.7971
  118OSM    C8S12413   0.952   6.760  10.038  0.8902 -0.7080  0.4503
  118OSM    H8S12414   0.900   6.672   9.994 -3.0268  2.5335 -2.2138
  118OSM    H8T12415   1.049   6.764   9.984  0.6782  0.5491  0.1326
  118OSM    C9S12416   0.875   6.893  10.005 -0.2667 -0.3970 -0.7660
  118OSM    H9S12417   0.941   6.979  10.028  0.4927 -1.3072  0.6468
  118OSM    H9T12418   0.788   6.888  10.074  0.0769 -1.4028 -0.3835
  118OSM   C10S12419   0.823   6.915   9.862 -0.0172  0.6198 -0.1834
  118OSM   H10S12420   0.761   7.006   9.849  0.8193  1.1662 -0.4492
  118OSM   H10T12421   0.759   6.830   9.830  1.3885 -0.0631 -1.3025
  118OSM   C11S12422   0.936   6.909   9.758  0.5488  0.2804  0.4624
  118OSM   H11S12423   0.966   6.803   9.757 -1.2137 -0.2730 -1.2076
  118OSM   H11T12424   1.020   6.974   9.791 -0.4968  2.7915 -1.4650
  118OSM   C12S12425   0.906   6.966   9.625  0.2544  0.0523  0.4883
  118OSM   H12S12426   0.859   7.064   9.651  1.1574  0.5888  0.1548
  118OSM   H12T12427   0.831   6.905   9.572  1.2932 -0.2752 -0.6512
  118OSM   C13S12428   1.028   6.977   9.536 -0.4669  0.3942 -0.1301
  118OSM   H13S12429   1.118   6.993   9.598  0.1689  1.8900 -1.3586
  118OSM   H13T12430   1.028   7.066   9.468  3.4748  1.6702  1.2561
  118OSM   C14S12431   1.051   6.841   9.465 -0.0898  1.0698  0.2932
  118OSM   H14S12432   0.959   6.796   9.421  1.5723 -0.2600 -2.0308
  118OSM   H14T12433   1.095   6.768   9.537  2.3869  3.3051  1.2370
  118OSM   C15S12434   1.141   6.862   9.349  0.9673  0.3222 -0.4017
  118OSM   H15S12435   1.241   6.897   9.384  0.2296  4.0924 -1.7163
  118OSM   H15T12436   1.110   6.948   9.287  2.0775  0.4623 -0.7862
  118OSM   C16S12437   1.148   6.737   9.255  0.8541 -0.1637  0.2582
  118OSM   H16S12438   1.182   6.649   9.314 -1.7962 -2.5993 -1.5505
  118OSM   H16T12439   1.228   6.775   9.188 -0.1771  0.4755 -0.6614
  118OSM   C17S12440   1.020   6.700   9.182 -0.0323 -1.2039  0.2963
  118OSM   H17S12441   0.931   6.673   9.243  0.0395 -1.5696  0.2405
  118OSM   H17T12442   1.054   6.614   9.121  0.3596 -0.9624  0.1705
  118OSM   C18S12443   0.980   6.820   9.089 -0.6400  0.5449  0.3734
  118OSM   H18S12444   0.921   6.902   9.135  1.0265  2.8164 -1.3091
  118OSM   H18T12445   0.915   6.789   9.004  0.6903  1.0683 -0.8728
  118OSM   H18U12446   1.069   6.860   9.035  0.0917 -1.2663  0.1644
  118OSM    C1F12447   1.412   6.722  10.495  0.6945  0.3524 -0.2252
  118OSM     OF12448   1.471   6.616  10.512  0.1560  0.3060  0.6110
  118OSM    C2F12449   1.479   6.829  10.421 -0.2764 -0.3010 -0.7662
  118OSM    H2F12450   1.526   6.900  10.492  1.6168 -0.5603 -1.6992
  118OSM    H2G12451   1.402   6.884  10.363 -0.8582  1.6631  1.7117
  118OSM    C3F12452   1.591   6.779  10.324  0.3373  0.1781 -0.1423
  118OSM    H3F12453   1.662   6.718  10.383 -0.4145  0.9639  1.6502
  118OSM    H3G12454   1.652   6.863  10.285 -0.3057  0.3685 -0.7703
  118OSM    C4F12455   1.528   6.694  10.207 -0.6813 -0.2201 -0.8878
  118OSM    H4F12456   1.446   6.751  10.159 -1.3208  0.9472  1.4268
  118OSM    H4G12457   1.488   6.597  10.245 -1.8788  1.3472  2.1892
  118OSM    C5F12458   1.639   6.665  10.103 -0.5660 -0.0096 -0.8343
  118OSM    H5F12459   1.723   6.600  10.136 -2.0307 -1.8468 -0.5805
  118OSM    H5G12460   1.702   6.753  10.080  0.5757 -0.8832 -1.1833
  118OSM    C6F12461   1.591   6.607   9.970 -0.0074 -0.0894 -0.3068
  118OSM    H6F12462   1.500   6.662   9.939  1.1291  1.8981 -0.2763
  118OSM    H6G12463   1.562   6.501   9.981 -1.2671  0.1712 -0.9779
  118OSM    C7F12464   1.703   6.612   9.869  0.7034 -0.2776 -0.3481
  118OSM    H7F12465   1.794   6.583   9.927  0.9882  2.5843  0.7869
  118OSM    H7G12466   1.706   6.720   9.843  0.7195 -0.3900 -0.8142
  118OSM    C8F12467   1.660   6.536   9.741 -0.1098  0.1024 -0.6267
  118OSM    H8F12468   1.563   6.572   9.699  0.3851  0.6224 -1.3438
  118OSM    H8G12469   1.643   6.430   9.770 -0.0455  0.2329 -0.0996
  118OSM    C9F12470   1.766   6.534   9.636 -0.2141 -0.8071  1.0164
  118OSM    H9F12471   1.856   6.596   9.649  1.8672 -3.0139 -1.8931
  118OSM   C10F12472   1.752   6.461   9.522  0.3098  0.0576 -0.9595
  118OSM   H10F12473   1.822   6.455   9.437  0.0357  1.3449 -1.2848
  118OSM   C11F12474   1.633   6.380   9.488 -0.0592 -0.1914  0.5555
  118OSM   H11F12475   1.598   6.335   9.584 -2.0506 -0.5336 -0.2965
  118OSM   H11G12476   1.668   6.300   9.419  1.3857  0.4069  0.5609
  118OSM   C12F12477   1.520   6.447   9.404  0.5889  0.4303 -0.0298
  118OSM   H12F12478   1.462   6.523   9.459 -0.0327  1.0488 -1.4766
  118OSM   H12G12479   1.450   6.365   9.375  2.6784 -0.6397 -2.4860
  118OSM   C13F12480   1.564   6.499   9.269  0.6282 -0.4164 -0.2342
  118OSM   H13F12481   1.595   6.422   9.194 -1.0455 -0.2541 -1.1301
  118OSM   H13G12482   1.661   6.548   9.292  0.0922  0.2188  0.7243
  118OSM   C14F12483   1.469   6.595   9.210 -0.1103 -0.4430  0.0957
  118OSM   H14F12484   1.465   6.691   9.266 -3.1951 -0.4473  0.0535
  118OSM   H14G12485   1.368   6.550   9.198  0.3128 -1.2706 -0.4578
  118OSM   C15F12486   1.516   6.629   9.062  0.3481 -0.3660  0.3725
  118OSM   H15F12487   1.526   6.539   8.998 -3.0532  0.0739 -1.0420
  118OSM   H15G12488   1.620   6.666   9.077  0.7811 -1.3037 -0.2056
  118OSM   C16F12489   1.413   6.714   8.974 -0.2011  0.9890  0.0638
  118OSM   H16F12490   1.368   6.800   9.029  2.8393  2.2392  0.8097
  118OSM   H16G12491   1.341   6.641   8.931  0.9998 -1.0814  1.4015
  118OSM   C17F12492   1.487   6.781   8.859 -0.9232 -0.9459 -0.8898
  118OSM   H17F12493   1.544   6.698   8.810  1.2342  0.2280 -0.5019
  118OSM   H17G12494   1.555   6.852   8.909 -4.9298  2.0467  0.7817
  118OSM   C18F12495   1.396   6.855   8.759 -0.7508  0.2583 -0.7974
  118OSM   H18F12496   1.450   6.876   8.665  3.2364  1.4238  1.5011
  118OSM   H18G12497   1.379   6.954   8.808  1.3159  0.0922  0.3732
  118OSM   H18H12498   1.301   6.799   8.745 -1.1922  0.8008 -0.0861
  119OSM      N12499   2.821   6.439  11.270  0.4345  0.2029  0.3238
  119OSM    C1512500   2.727   6.541  11.222  0.4978  0.0993  0.2076
  119OSM   H15A12501   2.641   6.563  11.284 -0.0923  2.0939 -1.2284
  119OSM   H15B12502   2.685   6.526  11.124  1.1481  2.4038 -0.4948
  119OSM   H15C12503   2.775   6.635  11.198  1.2643  0.0778  1.5298
  119OSM    C1412504   2.898   6.493  11.393  1.0911  0.2889  0.4335
  119OSM   H14A12505   2.968   6.570  11.363  1.1644  0.0994  0.1058
  119OSM   H14B12506   2.960   6.412  11.430  0.2318  0.0526  1.3933
  119OSM   H14C12507   2.838   6.530  11.475  0.6008 -0.3470  0.3699
  119OSM    C1312508   2.736   6.322  11.320 -0.6166  0.8088  0.8981
  119OSM   H13A12509   2.683   6.284  11.234  0.2643 -0.5730  0.9229
  119OSM   H13B12510   2.674   6.354  11.403 -1.3429 -0.2718  0.7970
  119OSM   H13C12511   2.800   6.245  11.361  1.1504  2.3228  1.1139
  119OSM    C1212512   2.911   6.395  11.156  0.3311  0.1540 -0.0809
  119OSM   H12A12513   2.856   6.343  11.080  0.8124  0.5033 -0.6778
  119OSM   H12B12514   2.970   6.314  11.196 -0.3648  0.5328  1.8457
  119OSM    C1112515   3.004   6.501  11.090 -0.1220  0.4419  0.4651
  119OSM   H11A12516   3.074   6.541  11.167 -0.1113 -0.1030  0.7393
  119OSM   H11B12517   2.943   6.580  11.041  2.0553  0.2464 -2.8116
  119OSM      P12518   3.184   6.333  11.013  0.2328 -0.3460  0.3185
  119OSM    O1312519   3.298   6.415  11.048  0.3751  0.5732 -0.0090
  119OSM    O1412520   3.148   6.236  11.120  0.3110  0.1593  0.4365
  119OSM    O1112521   3.209   6.261  10.877  0.1342  0.1821  0.1475
  119OSM    O1212522   3.067   6.434  10.983 -0.6279  0.4619 -0.3589
  119OSM    C1S12523   3.182   6.331  10.753 -0.4930 -0.4629 -0.1689
  119OSM    H1S12524   3.260   6.409  10.741 -1.0095  0.6711  2.9574
  119OSM    H1T12525   3.081   6.375  10.755 -0.2613  0.3148 -2.5050
  119OSM     NF12526   3.200   6.300  10.503 -0.2871 -0.6215  0.1710
  119OSM    HNF12527   3.122   6.321  10.445 -0.4951  0.7887  0.9139
  119OSM    C2S12528   3.193   6.233  10.633  0.0722  0.7070  0.6320
  119OSM    H2S12529   3.283   6.171  10.650  0.4174  1.3083  1.0387
  119OSM    C3S12530   3.062   6.138  10.634 -0.4933  0.3182 -0.3296
  119OSM    H3S12531   2.962   6.186  10.640 -1.9751 -2.4203 -1.3878
  119OSM     O312532   3.072   6.060  10.759 -0.0109  0.5819  0.1094
  119OSM    HO312533   3.148   6.095  10.804 -1.5562  2.3913  1.4869
  119OSM    C4S12534   3.060   6.048  10.520 -0.2864 -0.1465 -0.1785
  119OSM    H4S12535   3.138   5.970  10.521  0.6285  0.7445  0.5019
  119OSM    C5S12536   2.978   6.055  10.412 -0.0997  0.4708 -0.0664
  119OSM    H5S12537   2.909   6.140  10.407 -0.1497  0.4029 -0.6886
  119OSM    C6S12538   2.991   5.967  10.291 -0.5744 -0.5070 -0.0437
  119OSM    H6S12539   3.010   6.027  10.200  0.6921 -0.4549  0.2385
  119OSM    H6T12540   2.893   5.915  10.279 -0.3353 -1.3347  1.3104
  119OSM    C7S12541   3.103   5.856  10.306 -0.2786 -0.4158 -0.3193
  119OSM    H7S12542   3.076   5.796  10.395 -0.5794  1.8801  1.2267
  119OSM    H7T12543   3.192   5.918  10.330  0.1363 -2.6979  5.9793
  119OSM    C8S12544   3.121   5.760  10.187  0.0305 -0.0619 -0.1108
  119OSM    H8S12545   3.026   5.704  10.177 -0.5875  0.8371  0.4605
  119OSM    H8T12546   3.215   5.704  10.203  0.8136  1.0291 -0.7480
  119OSM    C9S12547   3.144   5.831  10.052  0.7088 -0.5609  0.0208
  119OSM    H9S12548   3.215   5.916  10.064  0.9494 -0.8790  0.9982
  119OSM    H9T12549   3.041   5.861  10.022  0.6409  0.3953  1.1321
  119OSM   C10S12550   3.198   5.739   9.947 -0.1184  0.2724  0.6523
  119OSM   H10S12551   3.143   5.643   9.960 -0.0057  0.2639  1.0799
  119OSM   H10T12552   3.304   5.711   9.964 -0.1064 -0.6025 -0.7148
  119OSM   C11S12553   3.202   5.789   9.806 -0.6125  0.4940  0.2373
  119OSM   H11S12554   3.280   5.869   9.805 -1.0774  0.9716  1.0501
  119OSM   H11T12555   3.113   5.835   9.759 -0.4476  2.2625  1.5503
  119OSM   C12S12556   3.256   5.678   9.715  0.0261  0.3368  0.5757
  119OSM   H12S12557   3.178   5.599   9.716 -2.0170  2.1834 -1.5047
  119OSM   H12T12558   3.350   5.627   9.748  0.5155  1.8228  1.5961
  119OSM   C13S12559   3.269   5.724   9.570  0.0462  0.2322 -1.0491
  119OSM   H13S12560   3.370   5.770   9.570 -0.9826  2.8193  2.1432
  119OSM   H13T12561   3.184   5.795   9.560  1.1958  1.5598 -1.7675
  119OSM   C14S12562   3.269   5.600   9.476  0.6548  0.2744 -0.0046
  119OSM   H14S12563   3.196   5.524   9.511  0.5814  0.7245  0.8472
  119OSM   H14T12564   3.366   5.548   9.487  0.3941  0.3305  3.6047
  119OSM   C15S12565   3.255   5.631   9.327 -0.2936 -0.3668  0.3662
  119OSM   H15S12566   3.316   5.721   9.303 -0.1894 -0.6520 -0.4804
  119OSM   H15T12567   3.148   5.651   9.304 -0.1995  0.7544  0.8500
  119OSM   C16S12568   3.310   5.522   9.239  0.4977 -0.5410  0.0703
  119OSM   H16S12569   3.248   5.435   9.267 -2.8694  1.9214  0.9298
  119OSM   H16T12570   3.418   5.510   9.265  0.4642 -1.3681 -0.1434
  119OSM   C17S12571   3.281   5.546   9.085  0.6657 -0.3701 -0.0313
  119OSM   H17S12572   3.180   5.588   9.066  0.3504 -2.2459 -3.3053
  119OSM   H17T12573   3.265   5.446   9.039  1.6127 -0.1407 -0.9271
  119OSM   C18S12574   3.390   5.612   9.011 -0.3226  0.7995  0.5165
  119OSM   H18S12575   3.375   5.720   9.033 -0.6774  0.6179  1.1786
  119OSM   H18T12576   3.400   5.588   8.903  1.5459 -1.5997  1.1520
  119OSM   H18U12577   3.485   5.579   9.057 -1.1201 -0.6837  1.1613
  119OSM    C1F12578   3.317   6.332  10.455  0.3024  0.1171  0.6661
  119OSM     OF12579   3.424   6.277  10.485  0.0593  0.0153  0.4188
  119OSM    C2F12580   3.316   6.439  10.348 -0.1032  0.0912 -0.6629
  119OSM    H2F12581   3.389   6.518  10.373  2.1960 -2.0943 -0.0460
  119OSM    H2G12582   3.215   6.485  10.342 -0.1073  0.9067  2.9623
  119OSM    C3F12583   3.346   6.380  10.212 -0.7488  0.4640  0.5920
  119OSM    H3F12584   3.445   6.329  10.216 -1.1334 -0.2327  1.5089
  119OSM    H3G12585   3.340   6.465  10.141 -2.2580 -1.1066 -1.3002
  119OSM    C4F12586   3.258   6.263  10.174 -0.1740  0.3123 -0.4872
  119OSM    H4F12587   3.152   6.268  10.207 -0.2700 -0.5895 -0.6455
  119OSM    H4G12588   3.312   6.175  10.213  0.3877  1.5424  1.6908
  119OSM    C5F12589   3.242   6.250  10.016 -0.0305  0.0815 -0.0439
  119OSM    H5F12590   3.186   6.155  10.002  0.8768 -0.9931  2.8626
  119OSM    H5G12591   3.346   6.226   9.985 -0.0665 -0.5618  0.3187
  119OSM    C6F12592   3.166   6.361   9.944 -0.5437 -0.0641 -0.0249
  119OSM    H6F12593   3.200   6.467   9.947 -2.7902  0.7234 -0.0196
  119OSM    H6G12594   3.068   6.372   9.996 -0.6788 -0.6347 -0.1482
  119OSM    C7F12595   3.131   6.332   9.800  1.0035 -0.4723  0.3912
  119OSM    H7F12596   3.077   6.422   9.764  0.1090 -0.8195  0.8399
  119OSM    H7G12597   3.056   6.251   9.793  1.5524 -0.8517 -1.5422
  119OSM    C8F12598   3.251   6.311   9.709  0.8521  0.2181 -0.6868
  119OSM    H8F12599   3.285   6.209   9.736 -0.1154 -0.0982 -0.6164
  119OSM    H8G12600   3.327   6.376   9.756 -0.6307  0.9546  0.8013
  119OSM    C9F12601   3.231   6.322   9.564 -0.2790  0.3088  0.3492
  119OSM    H9F12602   3.144   6.385   9.539  0.2364  0.6594 -0.5831
  119OSM   C10F12603   3.313   6.264   9.477  1.0172 -0.3223 -0.0746
  119OSM   H10F12604   3.280   6.284   9.375 -0.6964  1.1790  0.7222
  119OSM   C11F12605   3.437   6.177   9.489  0.0634  0.0596  0.4894
  119OSM   H11F12606   3.431   6.118   9.583  1.4600  0.2741  0.7327
  119OSM   H11G12607   3.523   6.247   9.493 -0.4797  0.8539 -0.8585
  119OSM   C12F12608   3.451   6.067   9.368 -0.7245 -1.3819 -0.4661
  119OSM   H12F12609   3.345   6.051   9.338 -2.1131  3.9351  0.6006
  119OSM   H12G12610   3.495   5.977   9.417  0.7007 -2.1987 -3.0924
  119OSM   C13F12611   3.534   6.107   9.250 -0.1298 -1.0125  0.0419
  119OSM   H13F12612   3.628   6.155   9.285 -0.3675 -0.8594  0.4806
  119OSM   H13G12613   3.471   6.184   9.200 -0.1285 -0.1143  1.3628
  119OSM   C14F12614   3.584   6.001   9.146  0.0316  0.6839 -0.3029
  119OSM   H14F12615   3.652   6.057   9.078  0.3289  1.1999  0.4166
  119OSM   H14G12616   3.499   5.960   9.087  0.2369 -0.2336  0.0147
  119OSM   C15F12617   3.680   5.889   9.204 -0.3683  0.3029 -0.2888
  119OSM   H15F12618   3.607   5.825   9.256  0.3555 -0.9616 -0.7776
  119OSM   H15G12619   3.764   5.920   9.271 -0.3347  0.1755 -0.2730
  119OSM   C16F12620   3.742   5.802   9.093  0.4841  0.0294 -0.0556
  119OSM   H16F12621   3.835   5.855   9.064  0.8473 -0.8955 -0.6234
  119OSM   H16G12622   3.679   5.801   9.001 -0.8515  2.6229  0.7157
  119OSM   C17F12623   3.773   5.655   9.131 -0.2512 -0.0110  0.3439
  119OSM   H17F12624   3.683   5.602   9.169 -0.3357  0.9358  1.5474
  119OSM   H17G12625   3.849   5.665   9.212  0.5514 -0.0210 -0.3935
  119OSM   C18F12626   3.830   5.587   9.007  0.5227 -0.1639 -0.0839
  119OSM   H18F12627   3.816   5.477   9.013 -3.3275  0.2118  0.0854
  119OSM   H18G12628   3.938   5.612   8.999  0.6034 -0.0786  1.1069
  119OSM   H18H12629   3.782   5.619   8.912 -0.5066 -0.4400  0.3307
  120OSM      N12630   6.548   2.390  10.761  0.7616  0.4745 -0.3097
  120OSM    C1512631   6.482   2.324  10.884  0.4930  0.1282 -0.0926
  120OSM   H15A12632   6.519   2.369  10.975 -0.9264  2.0001 -0.3934
  120OSM   H15B12633   6.515   2.223  10.902  0.9899  0.5250  1.4175
  120OSM   H15C12634   6.376   2.343  10.889  0.1861 -1.6990  1.8700
  120OSM    C1412635   6.485   2.521  10.734  0.7101 -0.2063 -0.3963
  120OSM   H14A12636   6.495   2.591  10.816 -2.2283 -0.6545  0.4603
  120OSM   H14B12637   6.382   2.499  10.709  0.4870 -0.0452  0.3463
  120OSM   H14C12638   6.523   2.567  10.644  0.8184  0.0567 -0.2167
  120OSM    C1312639   6.690   2.410  10.799 -0.2377 -0.4071  0.0683
  120OSM   H13A12640   6.690   2.468  10.890  0.2149  0.0514 -0.2217
  120OSM   H13B12641   6.730   2.478  10.725 -0.3374  0.2571  0.6259
  120OSM   H13C12642   6.748   2.319  10.799 -1.4969 -1.3023 -2.2199
  120OSM    C1212643   6.538   2.297  10.642 -0.2410 -0.6805  0.6855
  120OSM   H12A12644   6.438   2.307  10.602 -0.3399 -0.3209  1.0175
  120OSM   H12B12645   6.546   2.195  10.677  0.5119 -0.4996  1.0606
  120OSM    C1112646   6.634   2.314  10.517 -0.2426 -0.0746 -0.7223
  120OSM   H11A12647   6.608   2.240  10.439 -0.6402  0.1853 -0.8402
  120OSM   H11B12648   6.741   2.297  10.544  0.2938  0.3305 -2.5095
  120OSM      P12649   6.516   2.493  10.364  0.2566  0.4792 -0.1583
  120OSM    O1312650   6.437   2.365  10.334 -0.0099 -0.2468 -0.2361
  120OSM    O1412651   6.449   2.616  10.415  0.4884 -0.4470  0.7248
  120OSM    O1112652   6.610   2.525  10.238  0.0242 -0.2293  0.1943
  120OSM    O1212653   6.627   2.452  10.470  0.3239 -0.6713  0.0877
  120OSM    C1S12654   6.593   2.646  10.163 -0.0475  0.4199 -0.7461
  120OSM    H1S12655   6.626   2.729  10.229 -1.2421 -0.4404  0.9996
  120OSM    H1T12656   6.487   2.677  10.147 -0.2822  0.6458  1.0155
  120OSM     NF12657   6.663   2.777   9.951 -0.4794 -0.0278 -0.0947
  120OSM    HNF12658   6.588   2.796   9.888 -1.7019 -2.4240  0.5419
  120OSM    C2S12659   6.676   2.649  10.026 -0.3015 -0.0116  0.0390
  120OSM    H2S12660   6.784   2.638  10.054  0.4084  2.7387 -1.2355
  120OSM    C3S12661   6.636   2.523   9.949  0.6949 -0.0687 -0.3437
  120OSM    H3S12662   6.526   2.527   9.935  0.5901 -0.8974  0.1977
  120OSM     O312663   6.648   2.393  10.015  0.5676 -0.4583 -0.1760
  120OSM    HO312664   6.642   2.422  10.107 -0.0085 -1.3583  0.0819
  120OSM    C4S12665   6.713   2.524   9.824  0.8643 -1.1465 -0.4272
  120OSM    H4S12666   6.820   2.544   9.836  0.7021  0.6069 -1.5269
  120OSM    C5S12667   6.655   2.516   9.699  0.1394 -0.7900  0.2191
  120OSM    H5S12668   6.545   2.514   9.692  0.1286 -0.1161  0.1147
  120OSM    C6S12669   6.736   2.507   9.577 -0.2776 -0.7348  0.3873
  120OSM    H6S12670   6.737   2.396   9.562 -0.8329 -0.6496 -0.3676
  120OSM    H6T12671   6.844   2.532   9.578 -0.3176 -0.5493  0.1780
  120OSM    C7S12672   6.685   2.563   9.440  0.5684  0.4188  0.0902
  120OSM    H7S12673   6.704   2.672   9.433  1.7810  0.1794 -0.6767
  120OSM    H7T12674   6.574   2.554   9.435  0.5991  0.0935  0.0047
  120OSM    C8S12675   6.749   2.484   9.325 -0.1838 -0.0877  0.2585
  120OSM    H8S12676   6.692   2.390   9.311  1.3830 -1.1396  0.8201
  120OSM    H8T12677   6.858   2.474   9.339  0.6070  0.1261 -4.1713
  120OSM    C9S12678   6.728   2.563   9.188 -0.5143 -0.3722 -0.1309
  120OSM    H9S12679   6.795   2.651   9.193 -0.5990 -0.3730  3.2636
  120OSM    H9T12680   6.626   2.604   9.184 -0.2385  0.3334 -0.0138
  120OSM   C10S12681   6.778   2.491   9.061 -0.1215 -0.2045 -0.1525
  120OSM   H10S12682   6.703   2.409   9.055 -0.6636  0.1874  0.9958
  120OSM   H10T12683   6.876   2.442   9.080  0.3775  0.9379  0.2815
  120OSM   C11S12684   6.796   2.576   8.937  0.6148  0.5251  0.3905
  120OSM   H11S12685   6.879   2.648   8.958  0.6296 -0.0939  2.8365
  120OSM   H11T12686   6.706   2.635   8.911  1.0557  0.9296 -0.2272
  120OSM   C12S12687   6.829   2.480   8.823  0.3709 -0.5293  0.2014
  120OSM   H12S12688   6.731   2.432   8.804  0.1000  1.0547 -2.9441
  120OSM   H12T12689   6.903   2.407   8.863 -1.1848 -1.8839  0.7114
  120OSM   C13S12690   6.877   2.553   8.697 -0.1137  0.2889 -0.1189
  120OSM   H13S12691   6.959   2.620   8.727  0.8224 -0.4580 -0.9342
  120OSM   H13T12692   6.796   2.619   8.659  0.3582  0.5442 -0.6985
  120OSM   C14S12693   6.923   2.458   8.591  0.5969  0.0242  0.0704
  120OSM   H14S12694   6.829   2.408   8.559  0.9157 -1.4141  1.2877
  120OSM   H14T12695   6.973   2.372   8.641  0.2530 -0.4656 -0.4198
  120OSM   C15S12696   7.006   2.518   8.478  0.3876 -0.2135  0.0443
  120OSM   H15S12697   6.969   2.613   8.435  2.4301  0.8541  0.5384
  120OSM   H15T12698   7.011   2.439   8.400 -1.1656 -3.2011  2.7280
  120OSM   C16S12699   7.140   2.572   8.517  0.3687 -0.1584  0.2057
  120OSM   H16S12700   7.131   2.638   8.606  0.5434  0.1876 -0.0374
  120OSM   H16T12701   7.175   2.640   8.437  1.0698 -0.7688 -0.0225
  120OSM   C17S12702   7.250   2.465   8.533 -0.1430  0.1408 -0.4164
  120OSM   H17S12703   7.225   2.389   8.610  1.7055 -1.5335 -1.3764
  120OSM   H17T12704   7.346   2.507   8.570 -0.8046  0.3074  1.1960
  120OSM   C18S12705   7.289   2.383   8.411 -0.3374  0.3586  1.0144
  120OSM   H18S12706   7.199   2.342   8.360  0.2942 -2.6022  2.0544
  120OSM   H18T12707   7.357   2.297   8.432 -1.4258 -0.8128 -0.0999
  120OSM   H18U12708   7.340   2.453   8.342  1.0264 -0.8586  0.7524
  120OSM    C1F12709   6.726   2.879  10.001  0.4257 -0.2682 -0.4213
  120OSM     OF12710   6.831   2.866  10.060  0.5468  0.7381 -0.1280
  120OSM    C2F12711   6.669   3.014   9.984 -0.0921  0.8712  0.4716
  120OSM    H2F12712   6.654   3.054  10.087  0.1528  1.0964  0.4206
  120OSM    H2G12713   6.575   3.009   9.925  1.1235 -1.9696 -1.4083
  120OSM    C3F12714   6.778   3.098   9.910  0.3460 -0.2977  0.0297
  120OSM    H3F12715   6.871   3.099   9.972 -0.0718  1.0246  0.6687
  120OSM    H3G12716   6.737   3.201   9.911 -1.8760 -1.1255  2.0629
  120OSM    C4F12717   6.824   3.048   9.771 -0.7768 -0.0855  0.2604
  120OSM    H4F12718   6.886   2.957   9.788 -0.7651 -0.1282 -0.0121
  120OSM    H4G12719   6.887   3.128   9.727  0.1939 -0.1182  1.5178
  120OSM    C5F12720   6.714   3.015   9.679 -0.5447 -0.7542  0.4982
  120OSM    H5F12721   6.638   3.094   9.662 -1.9217 -2.2005 -0.4284
  120OSM    H5G12722   6.656   2.926   9.712  0.9091 -1.1829  2.0230
  120OSM    C6F12723   6.780   2.986   9.538  0.1714  0.1794 -1.0225
  120OSM    H6F12724   6.757   2.882   9.505 -0.2045  0.4066 -1.4858
  120OSM    H6G12725   6.891   2.989   9.542  0.2762 -2.2275 -0.8965
  120OSM    C7F12726   6.737   3.078   9.425 -0.1892 -0.7014 -0.2059
  120OSM    H7F12727   6.777   3.179   9.446 -0.8197 -0.3017 -0.8977
  120OSM    H7G12728   6.626   3.086   9.422 -0.0450  2.0469 -0.2895
  120OSM    C8F12729   6.786   3.030   9.287 -0.4554 -0.1413  0.1299
  120OSM    H8F12730   6.752   2.926   9.268  1.3244 -0.8093  0.4311
  120OSM    H8G12731   6.897   3.032   9.282 -0.5102  0.7663 -3.0761
  120OSM    C9F12732   6.736   3.119   9.175  0.5933 -0.7532  0.3566
  120OSM    H9F12733   6.733   3.226   9.200  1.1838 -0.2796 -1.5043
  120OSM   C10F12734   6.696   3.086   9.053  0.5070 -0.0318 -0.0160
  120OSM   H10F12735   6.686   3.166   8.979  2.0554  0.5629  0.3767
  120OSM   C11F12736   6.687   2.951   8.985 -0.5721  0.5883  0.3097
  120OSM   H11F12737   6.587   2.910   8.959  0.3488 -0.7172 -1.4173
  120OSM   H11G12738   6.738   2.877   9.050 -0.3100 -1.3202 -1.9057
  120OSM   C12F12739   6.768   2.948   8.847 -0.4473  0.4815 -0.2014
  120OSM   H12F12740   6.800   2.843   8.831 -2.2799 -0.2517  0.6083
  120OSM   H12G12741   6.862   3.005   8.863 -0.2995 -0.2468  1.7810
  120OSM   C13F12742   6.685   2.992   8.731 -0.1357  0.0555 -0.3058
  120OSM   H13F12743   6.647   3.094   8.753  2.5100  1.0801 -0.0750
  120OSM   H13G12744   6.608   2.917   8.703  0.5535 -0.0808 -1.9766
  120OSM   C14F12745   6.762   3.005   8.599 -0.3644  0.3042  0.6654
  120OSM   H14F12746   6.693   3.050   8.524  0.3777  0.0109 -0.2102
  120OSM   H14G12747   6.785   2.908   8.550  0.3020  0.0865  1.3873
  120OSM   C15F12748   6.893   3.089   8.606 -0.7531  0.5072 -0.2985
  120OSM   H15F12749   6.958   3.060   8.691 -1.0032  0.7239 -0.0302
  120OSM   H15G12750   6.883   3.200   8.613  0.3582  0.6970 -1.3811
  120OSM   C16F12751   6.977   3.060   8.476 -0.2053 -0.2935 -0.3562
  120OSM   H16F12752   6.992   2.952   8.457  0.6101 -0.2842  0.1920
  120OSM   H16G12753   7.078   3.104   8.490 -1.1691  1.7982  0.4281
  120OSM   C17F12754   6.911   3.114   8.350 -0.9723 -0.6819 -0.2494
  120OSM   H17F12755   6.885   3.220   8.369  0.3248 -0.4098  0.0848
  120OSM   H17G12756   6.816   3.060   8.332 -0.7870 -0.7460 -1.0859
  120OSM   C18F12757   6.995   3.109   8.220  0.7294 -0.7568 -0.0943
  120OSM   H18F12758   6.991   3.018   8.156 -0.4347 -0.2662 -0.7551
  120OSM   H18G12759   7.097   3.148   8.240 -0.6286  1.7688  2.6362
  120OSM   H18H12760   6.954   3.191   8.157  3.4330  0.8367  0.0481
  121OSM      N12761   0.583   5.080  10.734  0.7297 -0.3013 -0.0433
  121OSM    C1512762   0.518   4.951  10.777  0.1054 -0.4906  0.3124
  121OSM   H15A12763   0.579   4.876  10.825 -0.6705 -0.7967  0.8416
  121OSM   H15B12764   0.475   4.906  10.689 -0.2268 -0.1963  0.3237
  121OSM   H15C12765   0.442   4.971  10.850  0.6610  1.4882  0.3985
  121OSM    C1412766   0.690   5.034  10.642 -0.2013  0.0687  0.7560
  121OSM   H14A12767   0.772   5.097  10.611 -0.8393 -0.3835 -2.1858
  121OSM   H14B12768   0.650   5.005  10.546  1.1293  0.5459  0.0350
  121OSM   H14C12769   0.743   4.946  10.677 -0.7492 -0.2557  0.7843
  121OSM    C1312770   0.489   5.175  10.669 -0.5133 -0.1626  0.4238
  121OSM   H13A12771   0.536   5.266  10.634  0.8863 -0.2055  2.0898
  121OSM   H13B12772   0.416   5.197  10.746 -0.5123 -2.3651  1.1256
  121OSM   H13C12773   0.431   5.137  10.586 -0.1885  0.1632  0.0468
  121OSM    C1212774   0.653   5.153  10.850 -0.0802 -0.0718 -0.4355
  121OSM   H12A12775   0.583   5.201  10.916 -1.1585 -1.5814 -0.4380
  121OSM   H12B12776   0.710   5.230  10.801 -1.9782  1.5758 -0.1887
  121OSM    C1112777   0.740   5.077  10.949 -0.2358  0.0278 -0.2224
  121OSM   H11A12778   0.820   5.020  10.897 -0.9404  1.1907 -2.7300
  121OSM   H11B12779   0.681   5.010  11.015  0.6300 -0.5475 -0.0186
  121OSM      P12780   0.924   5.266  10.987  0.4309 -0.0142  0.6008
  121OSM    O1312781   0.904   5.411  11.030 -0.2403 -0.0097 -0.1382
  121OSM    O1412782   1.048   5.210  11.045 -0.1672 -0.4091  0.0426
  121OSM    O1112783   0.931   5.264  10.830 -0.3597  0.5855 -0.8996
  121OSM    O1212784   0.802   5.177  11.028  0.4971  0.0468  0.1045
  121OSM    C1S12785   1.045   5.216  10.759 -0.1822 -0.1807 -0.2688
  121OSM    H1S12786   1.044   5.105  10.762  1.0890 -0.2045 -0.4761
  121OSM    H1T12787   1.138   5.253  10.807  0.6457 -0.4723 -1.6106
  121OSM     NF12788   1.139   5.174  10.519 -0.2954  0.1708 -0.0005
  121OSM    HNF12789   1.227   5.220  10.505  0.2465 -0.0083  2.3788
  121OSM    C2S12790   1.046   5.250  10.600  0.6942 -0.0827 -0.0559
  121OSM    H2S12791   0.945   5.223  10.564  1.0901  0.6435 -1.8131
  121OSM    C3S12792   1.069   5.401  10.588  0.2953 -0.2093  0.1691
  121OSM    H3S12793   1.171   5.430  10.620  0.5521  1.4011 -1.9045
  121OSM     O312794   0.988   5.486  10.675  0.7862 -0.2017  0.1273
  121OSM    HO312795   0.936   5.417  10.718  0.7707  0.1087  0.6153
  121OSM    C4S12796   1.042   5.451  10.446 -0.1819 -0.1322  0.2782
  121OSM    H4S12797   0.941   5.481  10.416  1.2211  1.7987 -2.9978
  121OSM    C5S12798   1.136   5.474  10.354  0.3725 -0.2094  0.4274
  121OSM    H5S12799   1.242   5.455  10.377  0.2044  1.6996  3.4626
  121OSM    C6S12800   1.110   5.523  10.219  0.4178  0.2009 -0.7195
  121OSM    H6S12801   1.133   5.631  10.230 -0.5123  0.5580 -1.9256
  121OSM    H6T12802   1.005   5.514  10.184  0.2878  0.1505 -0.3111
  121OSM    C7S12803   1.204   5.455  10.121  0.2743 -0.0254 -0.1392
  121OSM    H7S12804   1.179   5.347  10.116  0.0172  0.0845 -1.8730
  121OSM    H7T12805   1.308   5.472  10.154  0.2419 -1.0217  0.5167
  121OSM    C8S12806   1.209   5.507   9.976  0.3026  0.1518  0.4587
  121OSM    H8S12807   1.264   5.603   9.962 -1.0546  1.1517  1.7601
  121OSM    H8T12808   1.104   5.521   9.945  0.1864 -0.2647  0.6502
  121OSM    C9S12809   1.264   5.403   9.882  0.4415 -0.0665 -0.1466
  121OSM    H9S12810   1.193   5.318   9.878 -0.1796  0.4956 -1.6160
  121OSM    H9T12811   1.368   5.373   9.909  0.7301  0.6209 -0.4646
  121OSM   C10S12812   1.255   5.457   9.731 -0.0033  0.1214 -0.2050
  121OSM   H10S12813   1.151   5.481   9.699 -0.2569 -0.8500 -0.1544
  121OSM   H10T12814   1.286   5.369   9.671 -2.5679  0.1658 -1.7482
  121OSM   C11S12815   1.342   5.579   9.693 -0.2689  0.5452 -0.0419
  121OSM   H11S12816   1.437   5.576   9.751 -1.8571  0.9567  2.7660
  121OSM   H11T12817   1.289   5.676   9.705 -2.5196 -0.6393  0.0886
  121OSM   C12S12818   1.392   5.570   9.545  0.0319 -0.8853  0.9009
  121OSM   H12S12819   1.459   5.482   9.533  0.9486  0.1955 -3.6272
  121OSM   H12T12820   1.459   5.657   9.528 -0.0427 -0.6749  1.6438
  121OSM   C13S12821   1.270   5.565   9.452 -0.1584 -0.4132 -0.0832
  121OSM   H13S12822   1.196   5.647   9.464 -0.4420 -0.6393 -0.2762
  121OSM   H13T12823   1.215   5.471   9.476 -2.0387  0.7793  0.5571
  121OSM   C14S12824   1.310   5.556   9.309 -0.0923  0.6902  0.0070
  121OSM   H14S12825   1.217   5.539   9.252 -1.4930 -1.7690  2.7510
  121OSM   H14T12826   1.377   5.468   9.293 -1.0542  0.0479 -0.5541
  121OSM   C15S12827   1.369   5.687   9.257  0.9221 -0.1691  0.6608
  121OSM   H15S12828   1.462   5.708   9.314  0.5206  0.7620  0.9823
  121OSM   H15T12829   1.298   5.772   9.269  0.0843 -0.7591  0.0588
  121OSM   C16S12830   1.390   5.683   9.103 -0.0004  0.4984 -0.3756
  121OSM   H16S12831   1.446   5.591   9.075  0.8174  0.7781  0.2910
  121OSM   H16T12832   1.442   5.778   9.079  2.2620  0.3902  3.2764
  121OSM   C17S12833   1.257   5.682   9.025 -0.1638  0.2063  0.1144
  121OSM   H17S12834   1.214   5.780   9.056  0.0233  0.3705 -0.1483
  121OSM   H17T12835   1.179   5.609   9.058  0.0625  0.5419  1.4537
  121OSM   C18S12836   1.285   5.687   8.872  0.2070 -0.2812 -0.4580
  121OSM   H18S12837   1.336   5.590   8.850 -1.3497 -1.6423  1.5218
  121OSM   H18T12838   1.340   5.779   8.845 -0.4820 -0.0355 -1.0537
  121OSM   H18U12839   1.189   5.697   8.816  0.0801 -0.7753 -0.3375
  121OSM    C1F12840   1.119   5.049  10.476  0.2206  0.8573  0.1640
  121OSM     OF12841   1.015   4.987  10.486 -0.2653 -0.7575  0.0264
  121OSM    C2F12842   1.242   4.977  10.424  0.5198 -0.2633 -0.3296
  121OSM    H2F12843   1.281   4.904  10.499  1.7155  0.3732 -0.3019
  121OSM    H2G12844   1.313   5.062  10.414 -1.5933  1.4176 -1.8843
  121OSM    C3F12845   1.219   4.893  10.298 -0.1037  0.3046 -0.3634
  121OSM    H3F12846   1.128   4.833  10.319  0.7940 -0.9781 -0.0322
  121OSM    H3G12847   1.304   4.823  10.289 -1.8637 -1.8726 -1.0549
  121OSM    C4F12848   1.201   4.974  10.169  0.0432  0.2308 -0.0467
  121OSM    H4F12849   1.272   5.059  10.157  0.2622  0.1583  0.6849
  121OSM    H4G12850   1.105   5.027  10.186  0.2374 -0.2827  3.3718
  121OSM    C5F12851   1.208   4.883  10.048  0.0776  1.1422  0.4052
  121OSM    H5F12852   1.126   4.808  10.036  1.6140 -0.6721  0.7130
  121OSM    H5G12853   1.302   4.825  10.053 -0.5221  0.1886  1.1281
  121OSM    C6F12854   1.218   4.979   9.928 -0.2372 -0.2844  0.4238
  121OSM    H6F12855   1.308   5.041   9.947  0.1767 -1.2587  1.7843
  121OSM    H6G12856   1.123   5.036   9.940  1.0467  2.1538 -0.4803
  121OSM    C7F12857   1.222   4.912   9.789 -1.0405  0.2812  0.4094
  121OSM    H7F12858   1.144   4.833   9.782 -2.2645  1.5045 -0.2268
  121OSM    H7G12859   1.314   4.853   9.766 -1.3522  0.8520 -2.7957
  121OSM    C8F12860   1.188   5.020   9.682 -0.1537  0.8598 -0.4212
  121OSM    H8F12861   1.105   5.082   9.721  1.3084  2.2602  0.5832
  121OSM    H8G12862   1.144   4.969   9.593 -0.0613  2.5093 -1.4443
  121OSM    C9F12863   1.308   5.100   9.647 -0.3784 -0.2529  0.2599
  121OSM    H9F12864   1.381   5.117   9.727  1.4782  0.7805 -1.5563
  121OSM   C10F12865   1.339   5.151   9.528 -0.2046  0.0030  0.0008
  121OSM   H10F12866   1.429   5.213   9.522 -0.2264  0.0312 -0.0332
  121OSM   C11F12867   1.279   5.143   9.389 -0.0129 -0.1354 -0.3926
  121OSM   H11F12868   1.243   5.242   9.356  0.8677  1.2219  2.4456
  121OSM   H11G12869   1.179   5.098   9.408  0.1514 -0.3457 -0.0170
  121OSM   C12F12870   1.358   5.068   9.282 -0.1257  0.0273  0.2334
  121OSM   H12F12871   1.410   4.982   9.330  0.1613 -0.8662 -1.5769
  121OSM   H12G12872   1.440   5.136   9.250  0.8092 -0.8469  0.7167
  121OSM   C13F12873   1.277   5.020   9.158 -0.3119  0.1304 -0.4044
  121OSM   H13F12874   1.170   5.002   9.181 -0.5875 -1.1742 -2.5458
  121OSM   H13G12875   1.297   4.916   9.126 -0.4060 -0.1918  0.5515
  121OSM   C14F12876   1.293   5.115   9.037  0.9100  0.0484  0.7466
  121OSM   H14F12877   1.400   5.126   9.008  0.9636  0.3806  1.0641
  121OSM   H14G12878   1.261   5.216   9.069  1.4551  0.0650  1.2601
  121OSM   C15F12879   1.194   5.074   8.925 -0.1689  0.0092  0.0705
  121OSM   H15F12880   1.095   5.062   8.975  0.6357 -2.5693  1.1946
  121OSM   H15G12881   1.240   4.988   8.872  1.5088  0.5055  0.6596
  121OSM   C16F12882   1.188   5.180   8.812  0.3859  0.1651 -0.0562
  121OSM   H16F12883   1.165   5.278   8.859 -3.2586  0.7788 -2.6732
  121OSM   H16G12884   1.101   5.155   8.748  1.4183  0.6822 -1.7342
  121OSM   C17F12885   1.312   5.204   8.732  0.1782  0.3820  0.7815
  121OSM   H17F12886   1.326   5.108   8.677  1.4071  1.7314 -1.3694
  121OSM   H17G12887   1.406   5.234   8.784  0.4578  5.2321 -1.9693
  121OSM   C18F12888   1.301   5.302   8.610 -0.2319  0.8507 -0.1643
  121OSM   H18F12889   1.382   5.291   8.534  1.1805  2.0763  1.0883
  121OSM   H18G12890   1.306   5.405   8.650  2.7627  0.3115  1.1313
  121OSM   H18H12891   1.208   5.273   8.557 -1.2196 -2.8741  3.1658
  122OSM      N12892   0.494   3.420  10.983  0.5958  0.1326 -0.0022
  122OSM    C1512893   0.385   3.506  11.023  0.8706  0.1140  0.6547
  122OSM   H15A12894   0.416   3.609  11.029  0.1851  0.3248  0.6735
  122OSM   H15B12895   0.350   3.479  11.121  0.6657  0.3012  0.6359
  122OSM   H15C12896   0.311   3.504  10.943 -0.6781  4.0674  1.7468
  122OSM    C1412897   0.613   3.445  11.073  0.5500  0.2699 -0.2142
  122OSM   H14A12898   0.589   3.406  11.171  0.2152 -0.3198 -0.5254
  122OSM   H14B12899   0.641   3.549  11.081 -2.7862  1.2586  0.1121
  122OSM   H14C12900   0.693   3.380  11.040  1.4084 -0.1549  2.4582
  122OSM    C1312901   0.463   3.277  11.006  0.8882 -0.7798  0.9161
  122OSM   H13A12902   0.386   3.227  10.949  0.4324 -0.4762  1.2631
  122OSM   H13B12903   0.433   3.264  11.109 -1.2976 -2.2333  0.1616
  122OSM   H13C12904   0.549   3.215  10.983  0.5004 -1.5036  1.3989
  122OSM    C1212905   0.531   3.446  10.838  0.4829  0.8681 -0.6887
  122OSM   H12A12906   0.594   3.366  10.800 -0.8274 -1.4731  1.6619
  122OSM   H12B12907   0.594   3.533  10.843  0.3508  0.9092  2.0869
  122OSM    C1112908   0.416   3.458  10.740 -0.5160 -0.0459 -0.5843
  122OSM   H11A12909   0.467   3.486  10.645  1.4368  0.5900  0.5889
  122OSM   H11B12910   0.347   3.542  10.759  2.2753  2.0374  0.9919
  122OSM      P12911   0.427   3.210  10.647 -0.1014  0.0307 -0.0393
  122OSM    O1312912   0.518   3.148  10.744  0.2348  0.6201 -0.1091
  122OSM    O1412913   0.317   3.126  10.590 -0.0870 -0.1317  0.2274
  122OSM    O1112914   0.513   3.276  10.535 -0.9216  0.3486  0.7006
  122OSM    O1212915   0.346   3.331  10.717 -0.6401  0.0451  0.4435
  122OSM    C1S12916   0.549   3.204  10.419  0.4986  0.1335  0.5291
  122OSM    H1S12917   0.500   3.106  10.404 -2.2372  1.7389 -2.3603
  122OSM    H1T12918   0.658   3.184  10.422  0.4213 -0.2210  1.1045
  122OSM     NF12919   0.522   3.224  10.176 -0.3910 -0.0916  0.1349
  122OSM    HNF12920   0.608   3.187  10.143 -0.3021 -0.6756  0.9761
  122OSM    C2S12921   0.520   3.300  10.299 -0.8931 -0.1627  0.2147
  122OSM    H2S12922   0.421   3.350  10.304 -0.0971  1.6573 -1.0800
  122OSM    C3S12923   0.633   3.409  10.299 -0.6673 -0.0510  0.7328
  122OSM    H3S12924   0.728   3.361  10.332 -0.4647  0.4043  0.8147
  122OSM     O312925   0.617   3.517  10.390 -0.1445  0.0491  0.1487
  122OSM    HO312926   0.567   3.467  10.455  1.9711  0.2189  2.0136
  122OSM    C4S12927   0.650   3.463  10.162 -0.0276 -0.5237 -0.6799
  122OSM    H4S12928   0.561   3.523  10.137  0.0183  0.7378  1.8888
  122OSM    C5S12929   0.749   3.452  10.067  0.5381 -0.6793  0.3378
  122OSM    H5S12930   0.833   3.383  10.083  2.7094  2.0669  1.6276
  122OSM    C6S12931   0.748   3.517   9.929  0.2033 -0.5472 -0.0570
  122OSM    H6S12932   0.812   3.608   9.939 -0.5371 -0.2423  2.7200
  122OSM    H6T12933   0.644   3.553   9.916  0.9991  1.8054 -0.4160
  122OSM    C7S12934   0.798   3.425   9.817 -0.3529 -0.1048 -0.0001
  122OSM    H7S12935   0.735   3.335   9.835 -2.5992  1.7045  1.9607
  122OSM    H7T12936   0.903   3.388   9.822 -0.1607  0.4365  0.0619
  122OSM    C8S12937   0.772   3.496   9.683 -0.4719  0.6022 -0.0033
  122OSM    H8S12938   0.812   3.599   9.675 -2.9116  1.5573 -0.4681
  122OSM    H8T12939   0.663   3.515   9.685 -0.6037  0.0451 -1.3703
  122OSM    C9S12940   0.796   3.420   9.558  0.2227  0.7421  0.4097
  122OSM    H9S12941   0.751   3.319   9.551  0.5236  0.4561  2.2504
  122OSM    H9T12942   0.906   3.414   9.538  0.0615 -0.1108 -0.3075
  122OSM   C10S12943   0.752   3.503   9.433 -0.2949 -0.0233  0.0590
  122OSM   H10S12944   0.815   3.594   9.437 -1.4301  0.7499  1.2355
  122OSM   H10T12945   0.650   3.536   9.459  0.2113  0.9815  0.8602
  122OSM   C11S12946   0.758   3.422   9.307 -0.7991 -0.6139 -0.4061
  122OSM   H11S12947   0.687   3.337   9.316 -0.6590 -0.5968  1.1290
  122OSM   H11T12948   0.858   3.374   9.309 -0.0908  0.8104  0.4054
  122OSM   C12S12949   0.732   3.498   9.178  0.1779 -0.1142 -0.2432
  122OSM   H12S12950   0.773   3.601   9.182 -2.5830  1.0539 -0.4046
  122OSM   H12T12951   0.625   3.508   9.151  0.5029  2.8177 -0.7865
  122OSM   C13S12952   0.796   3.423   9.061  0.2963  0.2379  0.5019
  122OSM   H13S12953   0.752   3.322   9.045  1.2108 -0.3874  1.7861
  122OSM   H13T12954   0.905   3.407   9.075  0.6262 -0.0607 -1.9663
  122OSM   C14S12955   0.773   3.505   8.933 -0.2850  0.0341 -0.8405
  122OSM   H14S12956   0.855   3.479   8.863 -1.6208 -4.0361 -1.1402
  122OSM   H14T12957   0.774   3.614   8.950  0.1555  0.3549 -2.6853
  122OSM   C15S12958   0.637   3.469   8.863  0.1959  0.2734  0.3400
  122OSM   H15S12959   0.549   3.501   8.924 -0.1793  1.6480 -0.8490
  122OSM   H15T12960   0.632   3.359   8.851  2.5608  0.1397  0.2969
  122OSM   C16S12961   0.635   3.531   8.719 -0.4313  0.0422  0.1221
  122OSM   H16S12962   0.718   3.483   8.662 -0.4073  1.2772 -0.9324
  122OSM   H16T12963   0.660   3.639   8.726 -0.2801 -0.1134  3.0491
  122OSM   C17S12964   0.509   3.507   8.643  0.0602 -0.2350  0.6745
  122OSM   H17S12965   0.492   3.578   8.559  0.6240 -1.3571 -0.4302
  122OSM   H17T12966   0.422   3.523   8.710  0.2533 -0.3913  0.9649
  122OSM   C18S12967   0.494   3.368   8.592 -0.1436  0.0997 -0.4762
  122OSM   H18S12968   0.549   3.296   8.657 -0.3105 -1.9545 -2.4749
  122OSM   H18T12969   0.539   3.365   8.490 -2.7544 -1.1767 -1.7031
  122OSM   H18U12970   0.388   3.336   8.582  0.0205 -0.1514 -1.5088
  122OSM    C1F12971   0.406   3.149  10.145 -0.6565 -0.7613  0.4481
  122OSM     OF12972   0.311   3.161  10.221  0.8210  0.1642  0.3744
  122OSM    C2F12973   0.399   3.046  10.033 -0.5123  0.0851 -0.3259
  122OSM    H2F12974   0.337   3.088   9.951  1.9095  1.4114 -1.6169
  122OSM    H2G12975   0.341   2.963  10.079 -2.2975  0.4716 -1.7636
  122OSM    C3F12976   0.542   3.000   9.982 -0.3664 -0.3925  0.3138
  122OSM    H3F12977   0.538   2.889   9.975  2.6227 -0.6643  1.6007
  122OSM    H3G12978   0.627   3.018  10.051 -0.2905  2.5552 -0.4185
  122OSM    C4F12979   0.576   3.058   9.849 -0.4918  0.2419  0.4490
  122OSM    H4F12980   0.565   3.168   9.841  0.4129  0.2951 -0.2829
  122OSM    H4G12981   0.491   3.021   9.786 -0.6816  0.2071  0.7242
  122OSM    C5F12982   0.711   3.005   9.792  0.1898 -0.0207  0.0716
  122OSM    H5F12983   0.695   2.895   9.800  1.2506 -0.0462  2.9012
  122OSM    H5G12984   0.802   3.034   9.849  1.7095 -1.5484 -1.4395
  122OSM    C6F12985   0.750   3.044   9.647 -0.1451 -0.0006  0.0871
  122OSM    H6F12986   0.858   3.022   9.630 -0.2945 -1.4249  0.8248
  122OSM    H6G12987   0.747   3.155   9.648  2.4073  0.1278 -0.0090
  122OSM    C7F12988   0.656   2.996   9.540  0.3800 -0.0352 -0.6069
  122OSM    H7F12989   0.560   3.051   9.554  0.4924  1.2155 -3.8015
  122OSM    H7G12990   0.649   2.886   9.548 -0.1842  0.0345 -0.0734
  122OSM    C8F12991   0.707   3.030   9.395  0.4806 -0.0132 -1.1444
  122OSM    H8F12992   0.729   3.138   9.395  0.6794 -0.0109  1.3156
  122OSM    H8G12993   0.617   3.011   9.332 -0.0693  0.2073 -0.4346
  122OSM    C9F12994   0.821   2.936   9.355 -0.3098 -0.0700 -0.8189
  122OSM    H9F12995   0.808   2.831   9.384 -3.0731  0.1564 -0.9029
  122OSM   C10F12996   0.924   2.977   9.274 -0.1614 -1.1657 -0.7438
  122OSM   H10F12997   1.007   2.909   9.250  0.4322 -0.3627 -1.0156
  122OSM   C11F12998   0.949   3.117   9.214 -0.4464  0.2144 -0.1128
  122OSM   H11F12999   0.988   3.177   9.298  1.4687 -0.5293 -0.4062
  122OSM   H11G13000   0.853   3.163   9.183 -0.0393  1.2107  0.0904
  122OSM   C12F13001   1.038   3.129   9.094 -0.4489 -0.0691  0.1897
  122OSM   H12F13002   1.140   3.095   9.124  0.3309  0.8092 -1.3170
  122OSM   H12G13003   1.049   3.238   9.074 -2.9315  0.5130  1.6123
  122OSM   C13F13004   0.995   3.049   8.969  0.5540 -0.7179 -0.2856
  122OSM   H13F13005   0.901   3.098   8.937  0.6563  1.5934  2.5078
  122OSM   H13G13006   0.968   2.947   9.004 -1.3957 -0.7059 -1.6254
  122OSM   C14F13007   1.101   3.045   8.855  0.6852  0.0725 -0.4160
  122OSM   H14F13008   1.193   2.999   8.896  1.6126  1.2049 -1.1377
  122OSM   H14G13009   1.126   3.151   8.834  0.9988  0.5425  2.0779
  122OSM   C15F13010   1.063   2.969   8.730  0.6223  0.3579 -0.2505
  122OSM   H15F13011   1.017   2.876   8.767  0.5144  0.0845 -1.0515
  122OSM   H15G13012   1.148   2.945   8.662 -0.5620 -1.4960 -1.1330
  122OSM   C16F13013   0.954   3.031   8.639  0.2211 -0.6227  0.1641
  122OSM   H16F13014   0.860   3.054   8.693 -0.3756 -1.7059 -0.3672
  122OSM   H16G13015   0.929   2.958   8.559  0.6548  1.4429 -1.9648
  122OSM   C17F13016   0.984   3.161   8.570  0.0054  0.1683  0.0974
  122OSM   H17F13017   1.074   3.158   8.505  0.3321 -0.2384  0.5567
  122OSM   H17G13018   1.014   3.240   8.643  0.7993  0.3202 -0.3741
  122OSM   C18F13019   0.881   3.217   8.469 -0.5125 -0.8111  0.1584
  122OSM   H18F13020   0.934   3.300   8.417 -1.4276 -0.3096 -0.0013
  122OSM   H18G13021   0.783   3.243   8.514 -2.1416  0.2419 -3.6067
  122OSM   H18H13022   0.855   3.148   8.386 -0.7666 -1.3234  0.6634
  123OSM      N13023   5.173   1.991   5.914 -0.1688  0.7344  0.5183
  123OSM    C1513024   5.035   1.990   5.859 -0.4129  0.4926  0.3435
  123OSM   H15A13025   5.004   1.887   5.852  1.4328 -0.0312 -1.2738
  123OSM   H15B13026   5.015   2.034   5.762  0.0613 -1.3036 -0.6216
  123OSM   H15C13027   4.981   2.048   5.932 -0.5436  2.7347 -1.3860
  123OSM    C1413028   5.186   1.912   6.042  0.3418  0.4013  0.2187
  123OSM   H14A13029   5.144   1.815   6.023 -1.9929  1.4022 -0.1740
  123OSM   H14B13030   5.124   1.955   6.119  0.6808 -1.0308  1.3186
  123OSM   H14C13031   5.292   1.908   6.065  0.7699  0.9157 -1.5137
  123OSM    C1313032   5.270   1.931   5.808 -0.6901  0.2747 -0.0963
  123OSM   H13A13033   5.372   1.946   5.841 -1.3441  0.1768  2.1538
  123OSM   H13B13034   5.247   1.970   5.710  0.2214 -1.9213 -1.2530
  123OSM   H13C13035   5.255   1.825   5.797  0.1054 -0.2966  3.2029
  123OSM    C1213036   5.224   2.139   5.933 -0.5758  0.1172  0.7477
  123OSM   H12A13037   5.220   2.184   5.835 -0.7052 -2.1123 -0.3423
  123OSM   H12B13038   5.325   2.119   5.964  0.1462  3.1771  0.6465
  123OSM    C1113039   5.174   2.234   6.038 -0.4874 -0.0850  0.4703
  123OSM   H11A13040   5.217   2.334   6.016 -1.7987  0.5818  0.8051
  123OSM   H11B13041   5.219   2.197   6.132  0.8583  1.7392  0.5816
  123OSM      P13042   4.949   2.320   5.954  0.3851  0.4790  0.3477
  123OSM    O1313043   5.033   2.360   5.833  0.3556 -0.2704 -0.2766
  123OSM    O1413044   4.822   2.246   5.928  0.5394  0.0224  0.1302
  123OSM    O1113045   4.919   2.458   6.031 -0.3132  0.1072  0.4161
  123OSM    O1213046   5.032   2.230   6.046  0.6854 -0.4011  0.0559
  123OSM    C1S13047   4.880   2.448   6.164 -0.3733  0.8740 -1.0613
  123OSM    H1S13048   4.821   2.356   6.183  0.2477  0.5992 -0.4562
  123OSM    H1T13049   4.813   2.532   6.195 -3.4611 -2.4140  2.2817
  123OSM     NF13050   4.943   2.449   6.404 -0.6527 -0.0257 -0.0465
  123OSM    HNF13051   4.965   2.517   6.474 -1.3632  0.1714  0.0006
  123OSM    C2S13052   4.996   2.464   6.267  0.0235  0.1188  0.1931
  123OSM    H2S13053   5.073   2.388   6.242 -0.5086 -1.6267  3.3026
  123OSM    C3S13054   5.063   2.605   6.254 -0.0263  0.3732 -0.0206
  123OSM    H3S13055   4.984   2.681   6.270 -0.6004 -0.2635  0.2547
  123OSM     O313056   5.115   2.634   6.122  0.2235  0.2512  0.2531
  123OSM    HO313057   5.073   2.572   6.063 -1.3931 -1.0821  2.6516
  123OSM    C4S13058   5.175   2.616   6.353 -0.1274 -0.2976  0.2356
  123OSM    H4S13059   5.160   2.681   6.441  3.1562 -0.7902  1.2831
  123OSM    C5S13060   5.290   2.549   6.357  0.3292  0.3162 -0.3868
  123OSM    H5S13061   5.320   2.462   6.297  0.3594 -1.5784  2.2022
  123OSM    C6S13062   5.391   2.565   6.460 -0.6534 -0.1622 -0.4158
  123OSM    H6S13063   5.418   2.672   6.471  1.1593 -0.7167  1.1187
  123OSM    H6T13064   5.488   2.517   6.435  0.4348  0.1384  2.7167
  123OSM    C7S13065   5.348   2.527   6.605 -0.0553 -0.4629 -0.0011
  123OSM    H7S13066   5.319   2.420   6.597 -0.2122 -0.3607 -0.9502
  123OSM    H7T13067   5.262   2.586   6.642 -0.3451 -0.6779 -0.3345
  123OSM    C8S13068   5.455   2.528   6.718  0.3762  0.4955 -0.0066
  123OSM    H8S13069   5.486   2.633   6.732 -0.1932  0.4375  1.9101
  123OSM    H8T13070   5.546   2.475   6.682 -0.1518 -1.8306  1.8068
  123OSM    C9S13071   5.405   2.465   6.850 -0.4297  0.0449  0.1524
  123OSM    H9S13072   5.396   2.354   6.844 -1.8089  0.2129 -1.7535
  123OSM    H9T13073   5.306   2.508   6.875 -2.4186 -3.6461 -0.6057
  123OSM   C10S13074   5.496   2.498   6.975  0.0893  0.6443 -0.6810
  123OSM   H10S13075   5.470   2.606   6.988  0.8405  0.9456 -1.5663
  123OSM   H10T13076   5.606   2.496   6.966  0.0560 -0.7420 -0.8670
  123OSM   C11S13077   5.464   2.417   7.103 -0.1363  0.2171 -0.0610
  123OSM   H11S13078   5.502   2.312   7.097 -2.9520 -0.9056  0.2269
  123OSM   H11T13079   5.353   2.415   7.103 -0.1711 -0.2012 -2.0522
  123OSM   C12S13080   5.497   2.480   7.241  0.6175 -0.0031  0.3657
  123OSM   H12S13081   5.445   2.578   7.251 -0.7184 -0.7546  0.9860
  123OSM   H12T13082   5.604   2.507   7.242  0.3258  1.3682 -1.0014
  123OSM   C13S13083   5.458   2.389   7.358  0.2031 -0.2486 -0.7591
  123OSM   H13S13084   5.477   2.285   7.324 -1.9077 -0.8202 -0.3225
  123OSM   H13T13085   5.351   2.400   7.383 -0.0189 -2.1868 -0.6871
  123OSM   C14S13086   5.544   2.399   7.488 -0.0135  0.7979  0.2332
  123OSM   H14S13087   5.647   2.383   7.453 -1.0857 -0.7468 -2.4435
  123OSM   H14T13088   5.532   2.322   7.568 -1.0708 -0.4080 -1.0417
  123OSM   C15S13089   5.527   2.535   7.551  0.0410 -0.1863  0.3735
  123OSM   H15S13090   5.427   2.531   7.598 -0.0640  1.5048  0.3540
  123OSM   H15T13091   5.521   2.617   7.476 -1.1225  0.3352  1.0125
  123OSM   C16S13092   5.630   2.584   7.654 -0.7626 -0.0611  0.3913
  123OSM   H16S13093   5.705   2.650   7.606 -1.5550 -1.0591 -2.4814
  123OSM   H16T13094   5.694   2.500   7.688  2.1636  2.2918  1.0153
  123OSM   C17S13095   5.578   2.656   7.775 -0.4523  0.3455 -1.1455
  123OSM   H17S13096   5.479   2.620   7.811 -0.5728 -0.3239 -2.1135
  123OSM   H17T13097   5.574   2.766   7.761 -0.3777  0.2534 -1.9254
  123OSM   C18S13098   5.668   2.635   7.897  0.2049 -0.5060 -0.2171
  123OSM   H18S13099   5.635   2.714   7.968  0.5846  0.2439 -0.8614
  123OSM   H18T13100   5.772   2.659   7.868 -0.1826 -0.6137 -1.7634
  123OSM   H18U13101   5.647   2.537   7.946 -0.6209  0.1401  0.7779
  123OSM    C1F13102   4.890   2.340   6.456  0.2541 -0.6075 -0.8589
  123OSM     OF13103   4.873   2.242   6.386 -0.0089 -0.2923 -0.1290
  123OSM    C2F13104   4.858   2.335   6.602  0.5839 -0.2157 -0.1630
  123OSM    H2F13105   4.761   2.384   6.626 -0.2706 -2.5547  1.5135
  123OSM    H2G13106   4.941   2.391   6.651 -0.7472  0.6139  1.2326
  123OSM    C3F13107   4.843   2.190   6.649 -0.3942 -0.2801  0.4333
  123OSM    H3F13108   4.914   2.125   6.594  0.8438  0.3897  1.1866
  123OSM    H3G13109   4.745   2.152   6.614 -0.1127  0.5422 -1.3389
  123OSM    C4F13110   4.852   2.176   6.802 -0.6125  0.1851  1.2790
  123OSM    H4F13111   4.813   2.079   6.837 -2.3366  1.3190  2.6875
  123OSM    H4G13112   4.796   2.263   6.842 -0.8312  0.8040 -0.2733
  123OSM    C5F13113   4.999   2.185   6.840 -1.2956  0.0887  0.6200
  123OSM    H5F13114   5.048   2.280   6.812 -0.2713  0.2930  2.8958
  123OSM    H5G13115   5.057   2.100   6.797 -0.6735  0.9792 -0.3424
  123OSM    C6F13116   5.009   2.190   7.001  0.0171 -0.1306 -0.7555
  123OSM    H6F13117   4.980   2.089   7.037 -1.0508 -0.5269 -2.5599
  123OSM    H6G13118   4.926   2.257   7.033  1.0666  1.0711 -0.4765
  123OSM    C7F13119   5.153   2.212   7.060 -0.2155  0.0224  0.3389
  123OSM    H7F13120   5.189   2.314   7.036  0.8057 -0.8054 -2.0104
  123OSM    H7G13121   5.214   2.137   7.005 -2.0466 -0.8542 -0.5899
  123OSM    C8F13122   5.171   2.192   7.212  0.2201 -0.1753 -0.2760
  123OSM    H8F13123   5.110   2.270   7.262  0.9899 -0.5338  1.2742
  123OSM    H8G13124   5.278   2.215   7.227  0.1588  0.9695 -1.4880
  123OSM    C9F13125   5.142   2.053   7.254  0.4703  0.4047 -0.4928
  123OSM    H9F13126   5.202   1.973   7.208  1.2141  0.2993  0.6212
  123OSM   C10F13127   5.050   2.010   7.336 -0.2752 -0.1014  0.4805
  123OSM   H10F13128   5.048   1.903   7.361  0.2987  0.2373  2.0939
  123OSM   C11F13129   4.956   2.105   7.414 -0.1297 -0.1927 -0.3887
  123OSM   H11F13130   4.880   2.042   7.464  2.4960 -2.4374  1.0517
  123OSM   H11G13131   4.906   2.181   7.351  1.0201  0.5989 -0.3808
  123OSM   C12F13132   5.027   2.200   7.527  0.2674 -0.4228  0.4122
  123OSM   H12F13133   4.943   2.265   7.560  1.0742  1.7681 -1.5327
  123OSM   H12G13134   5.107   2.266   7.488  0.4085 -0.1439  1.1494
  123OSM   C13F13135   5.091   2.118   7.644 -0.0597 -0.1630  0.4965
  123OSM   H13F13136   5.147   2.029   7.607 -0.2231 -0.5097  1.0850
  123OSM   H13G13137   5.008   2.082   7.708  0.5733 -1.3259  0.6909
  123OSM   C14F13138   5.176   2.213   7.724 -0.0674  0.0929 -0.9316
  123OSM   H14F13139   5.110   2.283   7.779 -2.1337 -2.3190 -0.1279
  123OSM   H14G13140   5.239   2.268   7.651 -2.0839  2.2875 -1.1692
  123OSM   C15F13141   5.278   2.164   7.829  0.6714 -0.4034  0.5002
  123OSM   H15F13142   5.380   2.145   7.788 -0.4607 -1.9504 -1.8610
  123OSM   H15G13143   5.256   2.065   7.876  0.2099 -0.6591 -0.2319
  123OSM   C16F13144   5.282   2.258   7.942  0.1639 -0.3054 -0.3135
  123OSM   H16F13145   5.195   2.257   8.012  1.2612  1.9944  1.2017
  123OSM   H16G13146   5.290   2.362   7.902  1.0465 -0.6672 -1.1079
  123OSM   C17F13147   5.404   2.233   8.031  0.0610 -0.1914 -0.0734
  123OSM   H17F13148   5.490   2.244   7.962 -1.3168 -0.3050 -1.8632
  123OSM   H17G13149   5.409   2.128   8.068 -1.1375 -0.7628 -1.4486
  123OSM   C18F13150   5.422   2.337   8.151  0.4738  0.5618  0.8314
  123OSM   H18F13151   5.452   2.432   8.102  3.4817 -1.1949 -1.0953
  123OSM   H18G13152   5.510   2.313   8.214  0.2479 -0.5191  0.7518
  123OSM   H18H13153   5.334   2.342   8.219  1.6282 -3.7456  3.0130
  124OSM      N13154   1.575   6.306   6.339  0.1462  0.2343 -0.7323
  124OSM    C1513155   1.433   6.242   6.373 -0.2922  0.4173  0.0453
  124OSM   H15A13156   1.397   6.187   6.288  0.2162 -2.5262  1.6095
  124OSM   H15B13157   1.370   6.329   6.385  0.9964  1.8273 -2.3623
  124OSM   H15C13158   1.438   6.176   6.458  0.9624 -2.9604 -2.4326
  124OSM    C1413159   1.611   6.357   6.474  0.0441  0.0838 -1.1359
  124OSM   H14A13160   1.526   6.407   6.518  0.0614 -0.8297 -0.0299
  124OSM   H14B13161   1.691   6.429   6.461 -0.5917  0.8080 -1.1016
  124OSM   H14C13162   1.652   6.274   6.529  1.8462 -0.7589 -3.5815
  124OSM    C1313163   1.668   6.198   6.317 -0.3734  0.4894  0.5365
  124OSM   H13A13164   1.658   6.113   6.383  0.3877 -0.5147 -0.6030
  124OSM   H13B13165   1.773   6.223   6.307 -0.5900  0.7399 -1.6503
  124OSM   H13C13166   1.648   6.154   6.221  0.1059  0.3904  0.4785
  124OSM    C1213167   1.569   6.402   6.232  0.4914 -0.5689  0.5662
  124OSM   H12A13168   1.482   6.463   6.249  0.7412 -0.4301  1.3729
  124OSM   H12B13169   1.561   6.357   6.134 -2.0635  0.0242  0.4372
  124OSM    C1113170   1.683   6.507   6.224  0.0593 -0.3380 -0.2468
  124OSM   H11A13171   1.679   6.560   6.127  0.2513 -0.8186 -0.5188
  124OSM   H11B13172   1.772   6.441   6.223 -0.4265 -1.0550  1.2149
  124OSM      P13173   1.555   6.701   6.360 -0.4340  0.5433 -0.0377
  124OSM    O1313174   1.604   6.842   6.340 -0.0790 -0.4733 -0.0959
  124OSM    O1413175   1.436   6.651   6.289  0.0110  0.3914 -0.4748
  124OSM    O1113176   1.537   6.673   6.517  0.4852  0.0340 -0.0470
  124OSM    O1213177   1.680   6.606   6.326 -0.3647 -0.2375  0.1582
  124OSM    C1S13178   1.615   6.754   6.610  0.1479  0.3414  0.9566
  124OSM    H1S13179   1.601   6.862   6.587 -0.8315 -0.0556 -0.3956
  124OSM    H1T13180   1.721   6.724   6.600  0.0221  0.3887 -0.8988
  124OSM     NF13181   1.656   6.820   6.847  0.8052 -0.4086 -0.0624
  124OSM    HNF13182   1.728   6.787   6.908 -0.1552 -1.5296  0.5150
  124OSM    C2S13183   1.571   6.744   6.762  0.5643  0.1292  0.0477
  124OSM    H2S13184   1.473   6.796   6.762  0.8264  0.6332  0.0208
  124OSM    C3S13185   1.558   6.593   6.800  0.2282  0.5768  0.2710
  124OSM    H3S13186   1.659   6.550   6.782 -1.3052 -3.4038  0.1689
  124OSM     O313187   1.473   6.510   6.716  0.3564 -0.2192  0.0947
  124OSM    HO313188   1.461   6.573   6.645 -1.8948 -0.2834  0.3550
  124OSM    C4S13189   1.531   6.568   6.945  0.0376 -0.4185 -0.2052
  124OSM    H4S13190   1.622   6.544   7.002  0.1020  0.5659  0.1172
  124OSM    C5S13191   1.411   6.550   7.008  0.9226  0.7370  0.5305
  124OSM    H5S13192   1.314   6.562   6.958 -0.0029 -2.4370  1.3023
  124OSM    C6S13193   1.388   6.517   7.153  0.6214  0.4025  0.6471
  124OSM    H6S13194   1.284   6.483   7.176  1.3204 -1.1124  1.7513
  124OSM    H6T13195   1.413   6.605   7.216  2.2900  0.9687 -0.7544
  124OSM    C7S13196   1.474   6.393   7.198  0.0993  0.5998 -0.1226
  124OSM    H7S13197   1.581   6.420   7.195  0.2916 -0.0438  0.6665
  124OSM    H7T13198   1.453   6.317   7.120 -0.8939 -1.7452  2.2871
  124OSM    C8S13199   1.442   6.339   7.335  0.4891  0.2572 -0.2878
  124OSM    H8S13200   1.477   6.235   7.354  0.6482  0.1932 -0.8980
  124OSM    H8T13201   1.332   6.324   7.346  0.7432 -3.3081 -1.2404
  124OSM    C9S13202   1.512   6.431   7.442  0.1701  0.3679  0.4624
  124OSM    H9S13203   1.438   6.514   7.454 -2.1149 -1.1507 -1.9954
  124OSM    H9T13204   1.614   6.466   7.416 -0.4938  1.7623 -0.3835
  124OSM   C10S13205   1.529   6.354   7.570  0.7015 -0.7171 -0.5486
  124OSM   H10S13206   1.600   6.271   7.551  1.5916 -0.1867  0.2963
  124OSM   H10T13207   1.429   6.317   7.601 -0.5565  2.3945 -0.4765
  124OSM   C11S13208   1.594   6.442   7.679 -0.7319 -0.3112 -0.1594
  124OSM   H11S13209   1.519   6.510   7.724  0.0782  0.7380 -0.3731
  124OSM   H11T13210   1.688   6.477   7.632 -1.0697 -1.5994 -1.8880
  124OSM   C12S13211   1.655   6.356   7.795  0.3260  0.2969  0.4447
  124OSM   H12S13212   1.734   6.297   7.744  0.1355 -0.9678  1.5627
  124OSM   H12T13213   1.563   6.297   7.812  0.7284  0.3192  3.1263
  124OSM   C13S13214   1.705   6.439   7.904 -0.5904 -0.2245 -0.5160
  124OSM   H13S13215   1.766   6.522   7.862 -0.1976 -0.3022 -0.1029
  124OSM   H13T13216   1.768   6.380   7.974 -0.3464  0.7558  0.1073
  124OSM   C14S13217   1.594   6.494   7.996  0.4805 -0.1444 -1.1140
  124OSM   H14S13218   1.532   6.402   8.001  0.0859 -0.0093 -2.8408
  124OSM   H14T13219   1.543   6.577   7.943  0.6758  1.0715  0.5220
  124OSM   C15S13220   1.638   6.539   8.131  0.1747 -0.8608  0.1007
  124OSM   H15S13221   1.709   6.624   8.125  2.5063 -2.7579 -0.9167
  124OSM   H15T13222   1.679   6.449   8.182 -1.5513 -1.5645  0.3038
  124OSM   C16S13223   1.525   6.583   8.226  0.4582 -0.0001 -0.6627
  124OSM   H16S13224   1.442   6.510   8.237 -1.5619  2.2667  0.0446
  124OSM   H16T13225   1.471   6.678   8.205  0.1693 -0.4764 -2.1801
  124OSM   C17S13226   1.571   6.587   8.373 -0.1260 -0.8001 -0.7304
  124OSM   H17S13227   1.620   6.685   8.393 -2.3643 -0.0103  1.4385
  124OSM   H17T13228   1.640   6.507   8.407  1.6126  1.2697  0.8878
  124OSM   C18S13229   1.452   6.595   8.466 -0.0925 -0.0042 -0.0882
  124OSM   H18S13230   1.407   6.494   8.477  0.1281  0.0275  1.3954
  124OSM   H18T13231   1.374   6.664   8.427  1.2298  0.5185 -1.9565
  124OSM   H18U13232   1.475   6.636   8.567 -0.2454 -1.9033  0.7611
  124OSM    C1F13233   1.649   6.953   6.854  0.0237 -0.1008  0.7982
  124OSM     OF13234   1.559   7.009   6.792  0.2963 -0.5402  0.0170
  124OSM    C2F13235   1.765   7.023   6.920 -0.4017  0.1610  0.7643
  124OSM    H2F13236   1.824   7.075   6.841  0.5701  1.1834  2.1274
  124OSM    H2G13237   1.833   6.947   6.962  2.7724  2.1370 -0.4288
  124OSM    C3F13238   1.721   7.119   7.031  0.6138  0.3423  0.1867
  124OSM    H3F13239   1.809   7.163   7.083 -0.7791  1.9300  1.2739
  124OSM    H3G13240   1.659   7.056   7.099  1.6106 -0.6893  0.1733
  124OSM    C4F13241   1.634   7.233   6.991  0.1464  0.1705  0.4789
  124OSM    H4F13242   1.535   7.195   6.959  0.7449 -0.6882 -0.3795
  124OSM    H4G13243   1.680   7.264   6.895 -1.3596  1.6965  0.2014
  124OSM    C5F13244   1.615   7.340   7.090  0.1448 -0.0330 -0.4133
  124OSM    H5F13245   1.534   7.408   7.055  1.9108  1.9782 -0.7687
  124OSM    H5G13246   1.706   7.396   7.118 -0.6044  0.8798  0.2799
  124OSM    C6F13247   1.576   7.286   7.228 -0.4311 -0.6906  0.5000
  124OSM    H6F13248   1.652   7.213   7.261 -0.0112  0.0091  1.1268
  124OSM    H6G13249   1.492   7.216   7.208 -1.4076  0.5494  0.1023
  124OSM    C7F13250   1.547   7.394   7.337 -0.3274 -0.2189 -0.1171
  124OSM    H7F13251   1.451   7.446   7.320 -0.1828  0.9060  2.1395
  124OSM    H7G13252   1.612   7.484   7.346 -0.2004 -0.1304 -1.5603
  124OSM    C8F13253   1.538   7.333   7.476  0.3993  0.1853 -0.2923
  124OSM    H8F13254   1.463   7.251   7.477  0.3700  0.1197  2.6497
  124OSM    H8G13255   1.487   7.403   7.546 -2.0236 -1.0999 -0.6629
  124OSM    C9F13256   1.659   7.291   7.549 -0.6477 -0.3978  0.9683
  124OSM    H9F13257   1.718   7.219   7.490  2.1015  1.5172  1.1671
  124OSM   C10F13258   1.709   7.328   7.667  0.1803  0.4223  0.1443
  124OSM   H10F13259   1.804   7.288   7.706 -1.0908 -1.2710  1.6732
  124OSM   C11F13260   1.668   7.432   7.761  0.1525 -0.1007 -0.3766
  124OSM   H11F13261   1.562   7.465   7.754  0.3678  0.2109 -3.0050
  124OSM   H11G13262   1.724   7.527   7.747 -0.9505  0.3995 -1.5382
  124OSM   C12F13263   1.696   7.394   7.912 -0.1562 -0.4061  0.1585
  124OSM   H12F13264   1.803   7.380   7.937 -0.2918  0.4814  1.3113
  124OSM   H12G13265   1.646   7.300   7.943 -3.4266  1.6894  1.8355
  124OSM   C13F13266   1.660   7.515   8.002  0.1484 -0.5076 -0.6379
  124OSM   H13F13267   1.556   7.547   7.981  0.5338  0.5661 -0.9930
  124OSM   H13G13268   1.717   7.607   7.976  0.8026 -1.2420 -1.8930
  124OSM   C14F13269   1.672   7.477   8.153  0.1190  0.1079  0.0647
  124OSM   H14F13270   1.778   7.447   8.167 -0.2754 -0.9319  0.9110
  124OSM   H14G13271   1.604   7.390   8.167 -0.1173 -0.4062 -3.3356
  124OSM   C15F13272   1.643   7.588   8.262 -0.3139  0.0457 -0.2388
  124OSM   H15F13273   1.550   7.647   8.247 -0.4331  0.5049  1.8968
  124OSM   H15G13274   1.733   7.652   8.266 -1.0154  1.0269  3.1118
  124OSM   C16F13275   1.614   7.517   8.400 -0.4588 -0.1728 -0.1420
  124OSM   H16F13276   1.653   7.573   8.488 -0.7465 -1.9989  1.2063
  124OSM   H16G13277   1.677   7.425   8.400 -0.3401 -0.1055  1.0281
  124OSM   C17F13278   1.469   7.493   8.431  0.7385  0.4191  0.2483
  124OSM   H17F13279   1.424   7.419   8.361  0.1008 -1.7550  2.7852
  124OSM   H17G13280   1.406   7.583   8.415 -2.2951 -1.8144 -1.4102
  124OSM   C18F13281   1.442   7.443   8.572  1.2786 -0.3430  0.0899
  124OSM   H18F13282   1.492   7.497   8.655 -0.7782  0.7445  0.6818
  124OSM   H18G13283   1.466   7.335   8.580 -1.7734 -1.0843  0.3738
  124OSM   H18H13284   1.332   7.447   8.583  1.1095 -0.1785 -1.4718
  125OSM      N13285   1.446   1.178   6.455  0.6001 -0.4035 -0.6110
  125OSM    C1513286   1.379   1.131   6.590 -0.0055 -0.3170  0.0063
  125OSM   H15A13287   1.436   1.162   6.676  0.2162 -1.9243  0.4759
  125OSM   H15B13288   1.375   1.023   6.597  0.1396 -0.5848 -2.7485
  125OSM   H15C13289   1.284   1.182   6.602  1.0272  1.0504  3.6060
  125OSM    C1413290   1.589   1.138   6.447  0.5265 -0.1388 -0.0766
  125OSM   H14A13291   1.609   1.035   6.471  2.6474  0.0752 -0.6865
  125OSM   H14B13292   1.641   1.206   6.513  0.1387  0.3572 -0.2755
  125OSM   H14C13293   1.626   1.173   6.352  1.3534 -1.7182 -0.3686
  125OSM    C1313294   1.362   1.119   6.349  0.2589  0.0360 -0.4879
  125OSM   H13A13295   1.400   1.163   6.258 -0.9183  2.0502 -0.0652
  125OSM   H13B13296   1.260   1.150   6.359  0.5990  1.4179 -1.0098
  125OSM   H13C13297   1.371   1.011   6.352 -2.4656 -0.2281  0.7710
  125OSM    C1213298   1.432   1.332   6.454 -0.4195 -0.1234  0.0167
  125OSM   H12A13299   1.476   1.366   6.362 -1.1240  3.4491  0.8664
  125OSM   H12B13300   1.491   1.361   6.540 -1.7295  0.0555  0.8742
  125OSM    C1113301   1.290   1.397   6.467  0.0241  0.5116  0.1816
  125OSM   H11A13302   1.299   1.496   6.517  2.6487  1.5504 -2.0643
  125OSM   H11B13303   1.227   1.333   6.532  2.0058 -1.1105  0.6111
  125OSM      P13304   1.252   1.546   6.244 -0.0413  0.1583  0.0360
  125OSM    O1313305   1.394   1.601   6.239 -0.7450 -0.0599 -0.0002
  125OSM    O1413306   1.191   1.514   6.114  0.3366  0.0342 -0.0973
  125OSM    O1113307   1.158   1.648   6.311 -0.1078  0.3223  0.3654
  125OSM    O1213308   1.234   1.413   6.342  0.5147  0.1256 -0.0018
  125OSM    C1S13309   1.026   1.628   6.346 -0.3016 -0.4439  0.0667
  125OSM    H1S13310   0.984   1.534   6.305  0.2014 -0.3339 -0.7149
  125OSM    H1T13311   0.968   1.712   6.302 -0.3389 -1.5483 -2.1346
  125OSM     NF13312   0.870   1.591   6.516  0.6451  0.1798 -0.4320
  125OSM    HNF13313   0.803   1.664   6.503  1.4754  0.9710 -0.3766
  125OSM    C2S13314   1.006   1.625   6.500 -0.4252 -0.1559  0.1849
  125OSM    H2S13315   1.076   1.553   6.548  1.1448  1.1870  0.0144
  125OSM    C3S13316   1.050   1.758   6.564  1.2558  0.2631 -0.5053
  125OSM    H3S13317   0.988   1.836   6.514 -0.1177 -2.0288 -2.5562
  125OSM     O313318   1.187   1.793   6.542  0.1915  0.2157 -0.4141
  125OSM    HO313319   1.206   1.718   6.485  1.1247 -0.5122  0.8170
  125OSM    C4S13320   1.013   1.758   6.715  0.1346 -0.2835  0.7308
  125OSM    H4S13321   0.910   1.791   6.737  0.6329  0.6294  1.8205
  125OSM    C5S13322   1.087   1.699   6.814 -0.1846  0.2632 -0.7266
  125OSM    H5S13323   1.186   1.654   6.799  1.8100  4.0084  0.1532
  125OSM    C6S13324   1.052   1.699   6.956  0.6798 -0.0671  0.1945
  125OSM    H6S13325   1.111   1.773   7.015 -0.6192  0.8223  0.4085
  125OSM    H6T13326   1.079   1.600   6.998 -2.5162 -1.3112 -0.4136
  125OSM    C7S13327   0.904   1.716   6.998 -0.2240  0.1777 -0.1750
  125OSM    H7S13328   0.829   1.666   6.933  1.5951 -1.6874 -0.9666
  125OSM    H7T13329   0.874   1.822   6.987  0.3799  0.2786 -0.9458
  125OSM    C8S13330   0.889   1.682   7.140  0.3326 -0.0351 -0.4250
  125OSM    H8S13331   0.944   1.589   7.167  0.2823  1.0950  4.3277
  125OSM    H8T13332   0.780   1.672   7.161  0.5811 -0.3473  0.7726
  125OSM    C9S13333   0.932   1.795   7.237 -0.4808 -0.0669 -0.4027
  125OSM    H9S13334   0.889   1.890   7.198 -1.7658 -0.0814  0.8589
  125OSM    H9T13335   1.041   1.813   7.231 -0.7077  1.6609 -0.0018
  125OSM   C10S13336   0.897   1.787   7.390  0.1140 -0.0296 -0.6104
  125OSM   H10S13337   0.788   1.802   7.407  0.0478 -0.7701 -0.3521
  125OSM   H10T13338   0.953   1.869   7.440  0.1890 -1.4163  1.7122
  125OSM   C11S13339   0.945   1.657   7.454 -0.2321  0.2779  0.7732
  125OSM   H11S13340   1.049   1.633   7.423  0.0102  0.9165  1.0725
  125OSM   H11T13341   0.896   1.574   7.399  1.6133  0.0299 -0.5913
  125OSM   C12S13342   0.929   1.657   7.602 -0.3528  0.4143 -0.1976
  125OSM   H12S13343   0.824   1.683   7.629 -0.1479  0.5224  0.5035
  125OSM   H12T13344   0.999   1.726   7.655  0.8745  0.3824 -1.7133
  125OSM   C13S13345   0.948   1.520   7.666  0.1421  0.6096 -0.8266
  125OSM   H13S13346   1.055   1.497   7.683 -0.1568 -0.7388 -0.6399
  125OSM   H13T13347   0.904   1.448   7.593 -0.2980  1.0673 -1.0166
  125OSM   C14S13348   0.888   1.492   7.804 -0.3731 -0.0276  0.1242
  125OSM   H14S13349   0.918   1.389   7.832  2.9195  0.7739 -0.0396
  125OSM   H14T13350   0.779   1.510   7.794 -0.9243 -2.5926  0.6811
  125OSM   C15S13351   0.950   1.584   7.910  0.4855 -0.4263  0.3356
  125OSM   H15S13352   0.961   1.690   7.878  0.9367 -0.7233 -0.5016
  125OSM   H15T13353   1.057   1.555   7.922  0.2969 -0.4903  2.1387
  125OSM   C16S13354   0.885   1.583   8.046 -0.2440 -0.0191  0.2514
  125OSM   H16S13355   0.776   1.596   8.033  0.2166  2.8330 -1.7399
  125OSM   H16T13356   0.928   1.671   8.100  1.9224  0.3120 -1.8391
  125OSM   C17S13357   0.916   1.450   8.118  0.8021 -0.4396  0.2838
  125OSM   H17S13358   0.864   1.379   8.051 -2.5586  1.0614  1.1021
  125OSM   H17T13359   0.865   1.469   8.215 -2.1224  0.6006 -1.3292
  125OSM   C18S13360   1.063   1.417   8.144  0.5497 -0.9304 -0.5811
  125OSM   H18S13361   1.120   1.496   8.197  0.0026 -1.0393  0.1971
  125OSM   H18T13362   1.115   1.392   8.049 -0.5828 -0.0347 -1.4608
  125OSM   H18U13363   1.074   1.327   8.209 -1.3766  0.4063  1.7474
  125OSM    C1F13364   0.823   1.468   6.544 -1.1580 -0.3933  0.5737
  125OSM     OF13365   0.903   1.382   6.579 -0.2369  0.1279  0.7911
  125OSM    C2F13366   0.684   1.430   6.516  0.3489  0.0946 -0.0203
  125OSM    H2F13367   0.687   1.372   6.421  0.6430  0.7075 -0.3874
  125OSM    H2G13368   0.616   1.517   6.510 -2.5193 -1.8750  1.3597
  125OSM    C3F13369   0.632   1.326   6.616 -0.2532  0.2698  0.1152
  125OSM    H3F13370   0.688   1.230   6.606  0.0676  0.2001  2.1063
  125OSM    H3G13371   0.525   1.301   6.599 -0.4689  1.2011  0.0944
  125OSM    C4F13372   0.626   1.369   6.766  0.5502  0.3578 -1.2446
  125OSM    H4F13373   0.727   1.403   6.797  0.0556  0.1758  0.7338
  125OSM    H4G13374   0.599   1.279   6.825  0.1334  0.5931 -1.0661
  125OSM    C5F13375   0.524   1.480   6.799  0.0966  0.0270 -0.4279
  125OSM    H5F13376   0.425   1.477   6.748  1.3217  0.1145 -2.9996
  125OSM    H5G13377   0.562   1.578   6.764 -0.8903  0.1071 -1.3429
  125OSM    C6F13378   0.490   1.482   6.949  0.0210  0.1064 -0.2255
  125OSM    H6F13379   0.587   1.498   7.001 -0.4410 -0.7415  0.9670
  125OSM    H6G13380   0.443   1.383   6.971  0.8133 -0.6194 -1.6746
  125OSM    C7F13381   0.397   1.607   6.983 -0.1736 -0.0326 -0.3679
  125OSM    H7F13382   0.301   1.587   6.931 -1.0750 -0.8525  1.5347
  125OSM    H7G13383   0.435   1.703   6.943 -2.4814  1.2578  0.3726
  125OSM    C8F13384   0.371   1.625   7.132  0.5679  0.1208 -0.4382
  125OSM    H8F13385   0.458   1.609   7.199  0.3511 -0.3588 -0.2647
  125OSM    H8G13386   0.292   1.559   7.173  0.8482  0.7737  1.2593
  125OSM    C9F13387   0.324   1.767   7.176  0.2953 -0.1341 -1.0064
  125OSM    H9F13388   0.264   1.816   7.099 -1.3332 -0.3782  0.0657
  125OSM   C10F13389   0.363   1.830   7.293 -0.5708 -0.0582 -0.3380
  125OSM   H10F13390   0.317   1.928   7.312 -0.5205 -0.1768  0.4118
  125OSM   C11F13391   0.455   1.774   7.402  0.6812  0.3243 -0.0023
  125OSM   H11F13392   0.548   1.833   7.404  0.0074  1.4179 -0.4134
  125OSM   H11G13393   0.465   1.664   7.388 -1.4452  0.1619 -0.7014
  125OSM   C12F13394   0.396   1.790   7.548  0.7460 -0.0642  0.4592
  125OSM   H12F13395   0.307   1.724   7.552  0.0840  0.3173 -3.6146
  125OSM   H12G13396   0.357   1.892   7.568 -2.1892 -0.9632 -0.1658
  125OSM   C13F13397   0.479   1.747   7.665 -0.7048 -0.2536  0.1982
  125OSM   H13F13398   0.575   1.802   7.663 -0.3576 -0.8560 -1.3950
  125OSM   H13G13399   0.505   1.640   7.672  2.2239  0.3859  0.1480
  125OSM   C14F13400   0.412   1.784   7.792 -0.6138 -0.1855 -0.9277
  125OSM   H14F13401   0.304   1.758   7.795  0.0078 -3.0423  0.6698
  125OSM   H14G13402   0.417   1.894   7.801 -0.5081 -0.3109  0.7444
  125OSM   C15F13403   0.477   1.709   7.914  0.8008 -0.5577 -0.0795
  125OSM   H15F13404   0.587   1.716   7.920  0.6967  0.0224  1.9931
  125OSM   H15G13405   0.450   1.602   7.907  1.8813 -0.7469 -2.6912
  125OSM   C16F13406   0.421   1.756   8.049 -0.0627 -0.4630  0.3394
  125OSM   H16F13407   0.311   1.744   8.047 -0.2768  1.2309  0.0499
  125OSM   H16G13408   0.424   1.866   8.064 -1.2512 -0.4889  0.8079
  125OSM   C17F13409   0.476   1.685   8.167  0.1042 -0.7546  0.2837
  125OSM   H17F13410   0.420   1.736   8.248  1.0683  3.1492 -1.2546
  125OSM   H17G13411   0.585   1.703   8.176  0.2821  0.4005 -2.7718
  125OSM   C18F13412   0.457   1.535   8.168  0.0362 -0.0451  0.1222
  125OSM   H18F13413   0.353   1.496   8.175 -0.0352 -0.0199 -0.6871
  125OSM   H18G13414   0.517   1.486   8.248  0.0722 -0.8373 -0.3826
  125OSM   H18H13415   0.492   1.483   8.076  1.9181 -0.6170  1.1068
  126OSM      N13416   5.424   0.522   6.346 -0.5083 -0.2743 -0.1628
  126OSM    C1513417   5.435   0.673   6.388  0.1051  0.0557 -0.3866
  126OSM   H15A13418   5.411   0.739   6.306  0.8264  0.3266 -0.3834
  126OSM   H15B13419   5.531   0.696   6.432 -0.9833  0.5943  1.8673
  126OSM   H15C13420   5.360   0.687   6.465  0.1955  2.5183 -0.6670
  126OSM    C1413421   5.293   0.486   6.289  0.3065  0.2360 -0.5942
  126OSM   H14A13422   5.275   0.380   6.277  1.4306 -0.0832  0.3673
  126OSM   H14B13423   5.290   0.539   6.195 -0.7889  0.4843 -0.4331
  126OSM   H14C13424   5.213   0.518   6.354 -0.1346 -0.1180 -0.9494
  126OSM    C1313425   5.530   0.503   6.248  0.0962 -0.4338 -0.1321
  126OSM   H13A13426   5.541   0.584   6.178  2.2607  0.2521  0.9166
  126OSM   H13B13427   5.504   0.414   6.192 -2.2383  0.1981 -0.1731
  126OSM   H13C13428   5.620   0.489   6.306  1.6178  0.7738 -2.1076
  126OSM    C1213429   5.453   0.434   6.469  0.1127  0.0261  0.5572
  126OSM   H12A13430   5.475   0.335   6.433 -1.3029  0.0883 -0.5687
  126OSM   H12B13431   5.360   0.420   6.522 -0.4326 -0.5976 -0.5119
  126OSM    C1113432   5.573   0.480   6.560 -0.0376 -0.1263  0.5630
  126OSM   H11A13433   5.576   0.435   6.661  0.2750  0.9941  1.0707
  126OSM   H11B13434   5.573   0.586   6.591  1.4027  0.7655 -2.1237
  126OSM      P13435   5.771   0.323   6.494 -0.0149  0.0508 -0.3161
  126OSM    O1313436   5.694   0.224   6.422 -0.0941  0.5224  0.0542
  126OSM    O1413437   5.908   0.348   6.449 -0.2138 -0.1423  0.1212
  126OSM    O1113438   5.763   0.283   6.638  0.1006 -0.3895 -0.6917
  126OSM    O1213439   5.693   0.460   6.491  0.0489  0.3916  0.4800
  126OSM    C1S13440   5.836   0.343   6.745  0.3683 -0.2481 -0.3909
  126OSM    H1S13441   5.855   0.451   6.725  3.8437 -0.0150  2.8701
  126OSM    H1T13442   5.933   0.292   6.761  0.2470 -0.1458  0.8131
  126OSM     NF13443   5.825   0.413   6.976  0.2530  0.3630  0.8681
  126OSM    HNF13444   5.879   0.357   7.037  0.8647  0.3530  0.3301
  126OSM    C2S13445   5.757   0.336   6.878  0.3969 -0.0785  1.0926
  126OSM    H2S13446   5.663   0.380   6.839 -0.8703 -2.3647  1.3471
  126OSM    C3S13447   5.729   0.191   6.916  1.0676  0.2568 -0.0325
  126OSM    H3S13448   5.824   0.137   6.936  0.7319 -0.5059 -0.4857
  126OSM     O313449   5.680   0.115   6.807  0.1855  0.3986  0.0470
  126OSM    HO313450   5.717   0.161   6.731 -1.5860  0.8852 -0.5670
  126OSM    C4S13451   5.648   0.183   7.046  0.0035 -0.8874  0.0716
  126OSM    H4S13452   5.714   0.199   7.133  0.4845 -0.7110 -0.3185
  126OSM    C5S13453   5.517   0.179   7.060  0.2704  0.2023 -0.0096
  126OSM    H5S13454   5.462   0.208   6.969 -2.2824 -0.5767  1.1938
  126OSM    C6S13455   5.452   0.199   7.196 -0.4072  0.4093 -0.0488
  126OSM    H6S13456   5.342   0.202   7.186 -0.8270 -1.8719  2.6028
  126OSM    H6T13457   5.489   0.292   7.245  0.9678  0.1746 -0.5822
  126OSM    C7S13458   5.487   0.089   7.297 -0.1190 -1.0850  0.2547
  126OSM    H7S13459   5.596   0.068   7.295  0.5685  2.0683 -0.5889
  126OSM    H7T13460   5.433  -0.005   7.274  0.1657 -1.1117 -0.3199
  126OSM    C8S13461   5.454   0.123   7.446 -0.0405  0.0324  0.4316
  126OSM    H8S13462   5.347   0.151   7.451 -0.2771 -0.6271 -0.7046
  126OSM    H8T13463   5.523   0.205   7.476  1.1874 -0.3657 -1.1802
  126OSM    C9S13464   5.477   0.008   7.546  0.2359  0.4536 -0.8359
  126OSM    H9S13465   5.506   0.058   7.640  1.8783 -1.2168 -0.4013
  126OSM    H9T13466   5.551  -0.071   7.521  0.0468 -0.0663  0.2022
  126OSM   C10S13467   5.342  -0.060   7.571 -0.4459  0.4012 -0.3130
  126OSM   H10S13468   5.276  -0.079   7.484  0.1377  1.2688 -0.9643
  126OSM   H10T13469   5.283   0.008   7.636 -0.8205  2.7253 -2.9091
  126OSM   C11S13470   5.359  -0.195   7.636  0.1529  0.2054 -0.1066
  126OSM   H11S13471   5.412  -0.190   7.733  2.2432 -2.5460 -0.9859
  126OSM   H11T13472   5.430  -0.251   7.571 -0.5245 -2.0342  0.9819
  126OSM   C12S13473   5.234  -0.269   7.678 -0.0278 -0.2289  0.4052
  126OSM   H12S13474   5.190  -0.318   7.589 -1.6397  0.2083  0.9239
  126OSM   H12T13475   5.162  -0.193   7.714  0.4417  1.2471 -1.6230
  126OSM   C13S13476   5.258  -0.378   7.786 -0.1406  0.0534 -0.3055
  126OSM   H13S13477   5.342  -0.442   7.753 -1.8926 -1.6289 -1.7349
  126OSM   H13T13478   5.165  -0.438   7.794  1.3434 -2.1467  1.6971
  126OSM   C14S13479   5.286  -0.320   7.927 -0.2679 -0.2260 -0.7493
  126OSM   H14S13480   5.193  -0.281   7.974  0.7255 -0.6735  1.7847
  126OSM   H14T13481   5.365  -0.243   7.936  0.0646 -0.3781 -2.1414
  126OSM   C15S13482   5.329  -0.441   8.016  0.0395  0.1103  0.1866
  126OSM   H15S13483   5.434  -0.468   7.990 -0.2665 -1.3014  0.3329
  126OSM   H15T13484   5.279  -0.534   7.983  2.3186 -0.8869 -0.6633
  126OSM   C16S13485   5.326  -0.421   8.168  0.1215  0.1600  0.0124
  126OSM   H16S13486   5.371  -0.321   8.187 -1.2102  0.4506  1.9153
  126OSM   H16T13487   5.383  -0.493   8.232 -1.0023 -0.7803 -0.0208
  126OSM   C17S13488   5.182  -0.427   8.232  0.3146 -0.7209 -0.1952
  126OSM   H17S13489   5.100  -0.371   8.183  0.9514 -0.6705 -1.2384
  126OSM   H17T13490   5.195  -0.385   8.334 -1.6646 -1.4894  0.4121
  126OSM   C18S13491   5.127  -0.565   8.255 -0.0653  0.1372  0.0038
  126OSM   H18S13492   5.040  -0.550   8.323 -0.8665  1.4341 -1.2475
  126OSM   H18T13493   5.209  -0.614   8.310  0.7121 -0.9458 -2.0075
  126OSM   H18U13494   5.087  -0.617   8.165  2.4835 -0.2654 -0.9575
  126OSM    C1F13495   5.843   0.543   6.971  0.0132 -0.8280  0.4682
  126OSM     OF13496   5.765   0.608   6.897 -0.0781  0.3874 -0.0338
  126OSM    C2F13497   5.950   0.607   7.052 -0.8720  0.4700  0.3920
  126OSM    H2F13498   6.044   0.550   7.035 -0.5571  1.2041 -0.4304
  126OSM    H2G13499   5.936   0.590   7.161  0.4762 -2.1819  0.2378
  126OSM    C3F13500   5.985   0.755   7.017  0.5574  0.1127  0.2060
  126OSM    H3F13501   5.893   0.817   7.006  0.3617  0.0931  1.6277
  126OSM    H3G13502   6.014   0.759   6.910 -0.4619  1.6269 -0.0524
  126OSM    C4F13503   6.096   0.812   7.103  0.0175 -0.0011  0.8768
  126OSM    H4F13504   6.127   0.909   7.059 -1.7924 -0.4363 -1.5512
  126OSM    H4G13505   6.178   0.737   7.106 -1.0932 -1.3086  0.2118
  126OSM    C5F13506   6.062   0.846   7.251 -0.0374 -0.1669 -0.0744
  126OSM    H5F13507   6.158   0.883   7.291 -0.9606  0.0885  2.0356
  126OSM    H5G13508   6.045   0.748   7.300 -3.2153 -0.6637 -1.8532
  126OSM    C6F13509   5.955   0.954   7.271 -0.4083 -0.3684  0.1866
  126OSM    H6F13510   5.861   0.920   7.224  0.8903 -1.6082 -1.6601
  126OSM    H6G13511   5.980   1.052   7.227 -1.5764  0.0746  0.4667
  126OSM    C7F13512   5.916   0.964   7.420 -0.2816  0.1937 -0.5149
  126OSM    H7F13513   5.927   0.862   7.462 -1.9245  0.8879  1.7797
  126OSM    H7G13514   5.811   0.998   7.434 -0.8875 -2.5838  3.3973
  126OSM    C8F13515   6.018   1.047   7.499 -0.0560  0.0566 -0.3191
  126OSM    H8F13516   6.016   1.148   7.454  0.2608  1.0225  1.7061
  126OSM    H8G13517   6.116   0.995   7.491  0.7673  1.6689 -1.0643
  126OSM    C9F13518   5.978   1.059   7.643 -0.1463 -0.1525 -0.2866
  126OSM    H9F13519   5.876   1.099   7.657 -0.0517  1.1035 -2.7170
  126OSM   C10F13520   6.037   1.005   7.748  0.0573  0.3755  0.4848
  126OSM   H10F13521   5.992   1.024   7.846 -0.0646 -0.7457  0.6690
  126OSM   C11F13522   6.161   0.926   7.749  0.4991  0.4611 -0.1542
  126OSM   H11F13523   6.242   0.978   7.695 -1.7611  1.6846 -2.5783
  126OSM   H11G13524   6.158   0.822   7.709  1.5520  1.3256 -2.6390
  126OSM   C12F13525   6.205   0.905   7.901  0.3827 -0.3661  0.6908
  126OSM   H12F13526   6.181   0.993   7.964 -0.3518  0.6806 -0.9631
  126OSM   H12G13527   6.315   0.898   7.901  0.5955  2.2308  1.9578
  126OSM   C13F13528   6.131   0.804   7.978 -0.2136  0.1184  0.0028
  126OSM   H13F13529   6.158   0.708   7.929  1.8225  0.3588  0.5570
  126OSM   H13G13530   6.020   0.817   7.984 -0.2542 -0.0583 -0.3411
  126OSM   C14F13531   6.172   0.806   8.125 -0.4220  0.2846 -0.4664
  126OSM   H14F13532   6.137   0.902   8.169  0.6139  0.3456  0.2769
  126OSM   H14G13533   6.283   0.809   8.132 -0.4892  0.8274  0.7651
  126OSM   C15F13534   6.124   0.685   8.199  0.6721 -0.2143  0.4390
  126OSM   H15F13535   6.169   0.589   8.166  0.6001 -0.4317  0.9713
  126OSM   H15G13536   6.017   0.666   8.178  0.8201 -1.2611  0.6142
  126OSM   C16F13537   6.135   0.702   8.350  0.6351 -0.4324  0.6439
  126OSM   H16F13538   6.096   0.804   8.369 -1.1249 -1.0596  0.6005
  126OSM   H16G13539   6.237   0.693   8.392  1.6616  1.0910 -1.3297
  126OSM   C17F13540   6.057   0.600   8.425 -0.7043 -0.3409  0.1126
  126OSM   H17F13541   6.081   0.502   8.378 -0.2577  1.2686 -3.3720
  126OSM   H17G13542   5.950   0.613   8.401 -0.9361  0.6862  1.5860
  126OSM   C18F13543   6.075   0.605   8.573 -0.3563  0.4593  0.6249
  126OSM   H18F13544   6.025   0.698   8.608 -1.0322  0.0287  0.8153
  126OSM   H18G13545   6.183   0.614   8.597 -0.3451  0.6140  0.5195
  126OSM   H18H13546   6.034   0.512   8.617  1.8491 -0.8100  0.1456
  127OSM      N13547   1.082   5.952   5.798  0.0667 -0.0486  0.2415
  127OSM    C1513548   1.138   5.869   5.684  0.4676  0.3589  0.4912
  127OSM   H15A13549   1.132   5.763   5.701 -0.2894 -0.0840 -2.0716
  127OSM   H15B13550   1.243   5.892   5.674  0.2550  1.2041  0.1226
  127OSM   H15C13551   1.077   5.885   5.597 -2.2526 -1.0850  2.0109
  127OSM    C1413552   1.119   6.095   5.781 -0.0777 -0.0642 -0.0048
  127OSM   H14A13553   1.110   6.154   5.871 -1.2542 -1.4606  0.8571
  127OSM   H14B13554   1.054   6.133   5.703  0.1954  1.1894  0.3547
  127OSM   H14C13555   1.218   6.109   5.742 -0.2172  0.2484 -0.2503
  127OSM    C1313556   0.930   5.932   5.804 -0.1749 -1.2226 -0.3124
  127OSM   H13A13557   0.907   5.832   5.836  0.2098 -0.7720  1.5520
  127OSM   H13B13558   0.893   5.961   5.707 -4.3152  1.1206  1.6895
  127OSM   H13C13559   0.896   6.003   5.878  2.7389  0.4799 -0.4269
  127OSM    C1213560   1.141   5.890   5.930  0.3657  0.1283  0.5330
  127OSM   H12A13561   1.249   5.897   5.929  0.4071 -0.1287 -1.6957
  127OSM   H12B13562   1.112   5.786   5.933 -0.6726  0.3402 -0.7719
  127OSM    C1113563   1.098   5.959   6.059 -0.1435 -0.0056 -0.6802
  127OSM   H11A13564   1.124   6.067   6.056 -1.0353  0.2205 -0.4510
  127OSM   H11B13565   1.167   5.924   6.139 -0.5629  1.2099  0.2603
  127OSM      P13566   0.912   5.793   6.129  0.1476 -0.4135 -0.7417
  127OSM    O1313567   0.782   5.787   6.059  0.2406  0.2178  0.0069
  127OSM    O1413568   1.015   5.699   6.089 -0.2298  0.4766 -0.4856
  127OSM    O1113569   0.869   5.775   6.280 -0.2419 -0.0782 -0.5856
  127OSM    O1213570   0.969   5.941   6.105  1.0662 -0.3957 -0.3882
  127OSM    C1S13571   0.891   5.869   6.385 -0.6410  0.3586  0.3854
  127OSM    H1S13572   0.814   5.950   6.387  0.0995  1.0969  2.8402
  127OSM    H1T13573   0.991   5.918   6.380 -1.1868  1.4058 -2.5823
  127OSM     NF13574   0.898   5.911   6.629 -0.9592  0.6328 -0.7438
  127OSM    HNF13575   0.980   5.909   6.684 -2.3500 -1.0836  1.4195
  127OSM    C2S13576   0.890   5.802   6.532 -0.1536 -0.3945  0.1063
  127OSM    H2S13577   0.791   5.752   6.538  0.3800 -1.6666 -0.9900
  127OSM    C3S13578   0.991   5.689   6.546 -1.2651 -0.3492  0.1512
  127OSM    H3S13579   1.088   5.741   6.558 -1.1391  0.0511 -2.1416
  127OSM     O313580   1.000   5.612   6.431  0.3915 -0.1258 -0.2753
  127OSM    HO313581   0.944   5.663   6.371  0.4246  0.2214 -0.0146
  127OSM    C4S13582   0.979   5.612   6.674 -0.1648 -0.6362  0.6713
  127OSM    H4S13583   1.043   5.649   6.756 -1.5111 -0.2932  1.6060
  127OSM    C5S13584   0.900   5.509   6.702 -0.1249  0.1602  0.8270
  127OSM    H5S13585   0.833   5.470   6.624 -0.2915  0.0849  1.0099
  127OSM    C6S13586   0.894   5.437   6.831 -0.2983 -0.2891 -0.2601
  127OSM    H6S13587   0.897   5.329   6.808 -1.7700 -0.2387 -0.8219
  127OSM    H6T13588   0.789   5.445   6.868  0.3183 -1.3046  1.8445
  127OSM    C7S13589   0.989   5.471   6.949  0.1778  0.6904  0.2037
  127OSM    H7S13590   0.979   5.577   6.982  2.1142  0.3182  2.1777
  127OSM    H7T13591   1.094   5.449   6.924 -0.0590 -0.6129  0.3163
  127OSM    C8S13592   0.954   5.401   7.085 -0.1352 -0.6250 -0.9924
  127OSM    H8S13593   1.007   5.303   7.086  0.3818 -0.3729  1.5860
  127OSM    H8T13594   0.845   5.386   7.096 -0.0582  0.4051  1.9483
  127OSM    C9S13595   1.012   5.473   7.211  0.4422  0.0758 -0.1712
  127OSM    H9S13596   0.967   5.574   7.221  0.7098  0.0310  2.2231
  127OSM    H9T13597   1.123   5.475   7.205  0.4137  0.0149 -0.7541
  127OSM   C10S13598   0.983   5.402   7.345 -0.0594 -0.3441  0.5618
  127OSM   H10S13599   1.032   5.303   7.333 -0.3395 -0.2780 -1.6660
  127OSM   H10T13600   0.873   5.397   7.330  0.4275 -0.8916 -5.0339
  127OSM   C11S13601   1.038   5.486   7.464 -0.2902  0.7709 -0.2474
  127OSM   H11S13602   1.016   5.595   7.455 -0.5841  0.6892 -0.5322
  127OSM   H11T13603   1.148   5.472   7.468 -0.5563 -1.6719  2.5230
  127OSM   C12S13604   0.985   5.444   7.597 -0.0596  0.6268  0.4043
  127OSM   H12S13605   0.995   5.333   7.596  2.1516  0.7864 -0.4870
  127OSM   H12T13606   0.876   5.464   7.597 -0.0611  0.8900 -1.8848
  127OSM   C13S13607   1.052   5.507   7.717 -0.2099  0.0291 -0.1855
  127OSM   H13S13608   1.024   5.614   7.729  1.8636  0.5435  0.5283
  127OSM   H13T13609   1.162   5.505   7.702 -0.0143 -0.9675  1.2102
  127OSM   C14S13610   0.999   5.439   7.845  0.0709 -0.3920 -0.8545
  127OSM   H14S13611   1.018   5.330   7.849  2.5736  0.0332  1.2093
  127OSM   H14T13612   0.894   5.473   7.862  0.7462  2.1893 -1.3056
  127OSM   C15S13613   1.064   5.499   7.971  0.3320  0.3865  0.3118
  127OSM   H15S13614   1.032   5.606   7.973  0.2078  0.3407  0.8614
  127OSM   H15T13615   1.175   5.503   7.964  0.2372  1.4386 -1.2632
  127OSM   C16S13616   1.025   5.430   8.099  0.1603  0.1565 -0.0036
  127OSM   H16S13617   1.030   5.322   8.073 -1.3447  0.1549 -0.3789
  127OSM   H16T13618   0.915   5.447   8.107 -0.3366 -2.2081 -0.9249
  127OSM   C17S13619   1.103   5.465   8.229 -0.3641 -1.3753  0.3320
  127OSM   H17S13620   1.110   5.575   8.225 -0.2590 -1.3383  1.3247
  127OSM   H17T13621   1.205   5.421   8.218  0.9348  1.7627 -1.5064
  127OSM   C18S13622   1.038   5.438   8.360 -0.2997  0.6452  0.4947
  127OSM   H18S13623   1.101   5.465   8.448  0.5119  0.8391 -0.1253
  127OSM   H18T13624   1.022   5.330   8.381  0.4696  0.2359 -0.9324
  127OSM   H18U13625   0.942   5.493   8.368  0.5671  2.4613 -0.9624
  127OSM    C1F13626   0.805   5.993   6.652  0.3388 -0.8609  0.0416
  127OSM     OF13627   0.693   6.002   6.599 -0.7513  0.3670 -0.5256
  127OSM    C2F13628   0.840   6.086   6.761  0.2343  0.8479  0.0889
  127OSM    H2F13629   0.900   6.174   6.729  0.7538 -0.0709 -1.5535
  127OSM    H2G13630   0.904   6.026   6.830 -1.0833 -1.2704 -0.4428
  127OSM    C3F13631   0.722   6.121   6.854 -0.6265 -0.0359  0.3320
  127OSM    H3F13632   0.680   6.022   6.881  0.8372 -0.7020  0.2839
  127OSM    H3G13633   0.644   6.187   6.810 -0.7514 -0.5014 -0.1514
  127OSM    C4F13634   0.770   6.198   6.982 -0.1401  0.1126  0.2529
  127OSM    H4F13635   0.815   6.294   6.949 -1.1061  2.1851  4.2715
  127OSM    H4G13636   0.854   6.136   7.019 -0.4479 -0.4237  0.0781
  127OSM    C5F13637   0.652   6.208   7.081  0.1560 -0.1647  0.0262
  127OSM    H5F13638   0.599   6.115   7.111 -1.1308  0.1248 -1.2272
  127OSM    H5G13639   0.579   6.267   7.022  1.8175  1.8270 -0.1697
  127OSM    C6F13640   0.685   6.282   7.210 -0.5441  0.3091 -0.4197
  127OSM    H6F13641   0.737   6.376   7.184 -0.4483  0.0661 -1.1146
  127OSM    H6G13642   0.742   6.214   7.278  0.3705  1.1325 -0.3461
  127OSM    C7F13643   0.567   6.314   7.298 -0.2107  0.1249 -0.6850
  127OSM    H7F13644   0.533   6.222   7.349 -2.0012  1.5658  0.8672
  127OSM    H7G13645   0.491   6.351   7.227  2.0632  1.9018 -2.3498
  127OSM    C8F13646   0.597   6.435   7.389  0.7547 -0.8237  0.0312
  127OSM    H8F13647   0.503   6.489   7.414  0.6860 -0.1436 -1.5744
  127OSM    H8G13648   0.646   6.509   7.324  3.4682 -2.4711  0.0413
  127OSM    C9F13649   0.682   6.389   7.505 -0.0930  0.4490  0.2016
  127OSM    H9F13650   0.742   6.301   7.477 -1.0381 -0.5427  1.1827
  127OSM   C10F13651   0.680   6.435   7.630  0.1298 -0.4714  0.3475
  127OSM   H10F13652   0.747   6.384   7.701 -0.2079 -3.0310 -1.0737
  127OSM   C11F13653   0.597   6.557   7.682 -0.0062  1.0607  0.8318
  127OSM   H11F13654   0.539   6.604   7.601  1.7243 -0.0970 -1.1896
  127OSM   H11G13655   0.670   6.629   7.725 -0.8861  1.6822  1.3132
  127OSM   C12F13656   0.493   6.503   7.785 -0.1902  0.0777 -0.3981
  127OSM   H12F13657   0.411   6.442   7.743 -0.8862  0.0687  0.9360
  127OSM   H12G13658   0.448   6.599   7.817 -0.4452  0.1240 -0.8905
  127OSM   C13F13659   0.554   6.433   7.909 -0.8156  0.5209 -0.0405
  127OSM   H13F13660   0.624   6.348   7.898  0.8441  1.7883  0.3822
  127OSM   H13G13661   0.478   6.393   7.980  0.6113 -1.6800  0.3290
  127OSM   C14F13662   0.644   6.532   7.986 -0.6589 -0.0228  0.0921
  127OSM   H14F13663   0.576   6.607   8.033 -1.0155 -2.0150  3.0010
  127OSM   H14G13664   0.705   6.594   7.916  0.8029 -1.5563 -0.0445
  127OSM   C15F13665   0.730   6.470   8.098 -0.2291  0.5612  0.3750
  127OSM   H15F13666   0.815   6.532   8.133  1.9295 -2.5857  1.2102
  127OSM   H15G13667   0.779   6.382   8.051  0.9068  1.5176 -0.2934
  127OSM   C16F13668   0.646   6.411   8.213 -0.0921  0.8969 -0.2259
  127OSM   H16F13669   0.554   6.359   8.181  0.8563 -0.2149 -1.2451
  127OSM   H16G13670   0.622   6.498   8.278 -0.7518  1.6179 -1.4014
  127OSM   C17F13671   0.726   6.315   8.306 -0.5466  0.3132 -0.6572
  127OSM   H17F13672   0.801   6.383   8.353 -1.7465 -0.3710  2.4866
  127OSM   H17G13673   0.779   6.238   8.246  1.7511 -1.1345  2.8318
  127OSM   C18F13674   0.644   6.258   8.416  0.3682  0.5407 -0.2091
  127OSM   H18F13675   0.704   6.187   8.477 -1.4414  0.5107  1.6352
  127OSM   H18G13676   0.554   6.214   8.368  0.8965 -1.4879  0.5708
  127OSM   H18H13677   0.604   6.336   8.484  0.0806 -0.5068  0.8670
  128OSM      N13678   1.000   1.793   5.787  0.9638  0.1503  0.0327
  128OSM    C1513679   1.073   1.664   5.786 -0.2275  0.2940 -0.2214
  128OSM   H15A13680   1.080   1.620   5.688  0.6162 -0.8402  0.3228
  128OSM   H15B13681   1.022   1.594   5.850 -1.3256  0.5856 -0.7568
  128OSM   H15C13682   1.172   1.678   5.828 -0.4841  1.0945  0.1428
  128OSM    C1413683   1.082   1.889   5.715 -0.0972  0.4758 -0.1974
  128OSM   H14A13684   1.176   1.911   5.764  1.7664 -3.4816 -1.4851
  128OSM   H14B13685   1.038   1.984   5.692  2.0790  2.3328  2.6157
  128OSM   H14C13686   1.121   1.851   5.622  1.9947  0.0616  0.7699
  128OSM    C1313687   0.882   1.789   5.698  1.0298 -0.2193 -0.2967
  128OSM   H13A13688   0.909   1.742   5.605  1.6009  0.1791 -0.3391
  128OSM   H13B13689   0.833   1.885   5.688 -0.6721 -0.9760  0.3944
  128OSM   H13C13690   0.812   1.722   5.746  0.6138  0.8113  0.5652
  128OSM    C1213691   0.961   1.840   5.930  0.0323 -0.6158  0.4658
  128OSM   H12A13692   0.888   1.773   5.973 -0.9713 -0.9792 -1.6538
  128OSM   H12B13693   0.914   1.938   5.925 -2.7214 -1.8244  0.7576
  128OSM    C1113694   1.087   1.857   6.018 -0.3548 -0.0808  0.2217
  128OSM   H11A13695   1.144   1.762   6.009 -1.1076 -0.4652 -0.5607
  128OSM   H11B13696   1.044   1.868   6.120  0.3326  0.7186  0.4390
  128OSM      P13697   1.112   2.116   6.021 -0.5472 -0.0646  0.2637
  128OSM    O1313698   1.222   2.214   5.994  0.1474  0.3926 -0.1459
  128OSM    O1413699   0.989   2.142   5.947 -0.6465  0.2493 -0.8364
  128OSM    O1113700   1.079   2.109   6.180  0.0487 -0.3773  0.2862
  128OSM    O1213701   1.171   1.969   5.993  0.7244  0.4235 -1.0560
  128OSM    C1S13702   1.196   2.084   6.262 -0.5545 -0.8160  0.3113
  128OSM    H1S13703   1.292   2.136   6.239  0.8082 -2.6048  1.5621
  128OSM    H1T13704   1.201   1.975   6.283  1.1018 -0.9581 -0.6346
  128OSM     NF13705   1.273   2.069   6.485 -0.1231  0.7259 -0.1254
  128OSM    HNF13706   1.241   1.992   6.539 -2.3820  0.1393 -2.1243
  128OSM    C2S13707   1.177   2.144   6.408  0.4023  0.1712  0.0565
  128OSM    H2S13708   1.214   2.248   6.401  1.7977 -0.2693  0.5649
  128OSM    C3S13709   1.022   2.133   6.450  0.2341 -0.2926  0.2116
  128OSM    H3S13710   0.979   2.035   6.422  1.3239 -0.3932 -1.2112
  128OSM     O313711   0.945   2.229   6.388 -0.0783 -0.6714  0.2799
  128OSM    HO313712   0.982   2.256   6.304  1.3180  1.3790  1.4500
  128OSM    C4S13713   1.006   2.159   6.600 -0.6767 -0.7407  0.3477
  128OSM    H4S13714   1.099   2.198   6.643 -1.4557  0.3511  1.1194
  128OSM    C5S13715   0.900   2.123   6.677  0.5431  0.4226 -0.7595
  128OSM    H5S13716   0.822   2.061   6.631  0.7584  0.4409 -1.1587
  128OSM    C6S13717   0.899   2.142   6.834 -0.3927 -0.2438  0.3102
  128OSM    H6S13718   0.997   2.173   6.876 -0.2233 -0.2961 -0.0459
  128OSM    H6T13719   0.872   2.046   6.882 -1.1046 -0.1579  0.0896
  128OSM    C7S13720   0.807   2.253   6.882  0.3965  0.2629 -0.3101
  128OSM    H7S13721   0.702   2.218   6.886  0.9035 -1.3454 -0.3673
  128OSM    H7T13722   0.813   2.340   6.814  3.9243 -0.3249 -0.9534
  128OSM    C8S13723   0.846   2.292   7.024 -0.0119 -0.3447  0.2412
  128OSM    H8S13724   0.777   2.379   7.034 -1.2743 -0.8391 -3.0795
  128OSM    H8T13725   0.949   2.335   7.019 -1.0716  2.2039 -2.0335
  128OSM    C9S13726   0.830   2.189   7.133  0.7845 -0.1687  0.0630
  128OSM    H9S13727   0.918   2.124   7.149 -0.1581 -1.1362  1.6126
  128OSM    H9T13728   0.745   2.123   7.104  2.7793 -2.0008 -1.9327
  128OSM   C10S13729   0.802   2.247   7.275  0.3842 -0.1590 -0.8074
  128OSM   H10S13730   0.702   2.296   7.284 -0.2573 -1.7772  3.3830
  128OSM   H10T13731   0.875   2.330   7.284 -0.5774  0.6750 -0.4396
  128OSM   C11S13732   0.810   2.139   7.392  0.1262 -0.7910  0.2704
  128OSM   H11S13733   0.898   2.071   7.396  0.3584 -0.5171 -0.1387
  128OSM   H11T13734   0.731   2.067   7.363 -1.0001  1.1340 -1.7701
  128OSM   C12S13735   0.794   2.192   7.531 -0.5040  0.1567 -0.3969
  128OSM   H12S13736   0.702   2.252   7.543 -0.0020  0.6191  1.3601
  128OSM   H12T13737   0.888   2.250   7.544 -0.5904  0.2679 -0.2713
  128OSM   C13S13738   0.809   2.070   7.626  1.0818 -0.7683  0.0313
  128OSM   H13S13739   0.913   2.034   7.641  0.8061 -1.2970  0.7116
  128OSM   H13T13740   0.755   1.991   7.570  1.5141 -0.9370 -0.1519
  128OSM   C14S13741   0.740   2.096   7.756  0.1722  0.0420  0.7953
  128OSM   H14S13742   0.630   2.102   7.744  0.0442 -0.6529  1.5419
  128OSM   H14T13743   0.778   2.184   7.813 -0.2677  0.0545  1.0701
  128OSM   C15S13744   0.762   1.985   7.858  0.3415 -0.1769 -0.3284
  128OSM   H15S13745   0.869   1.956   7.863  0.9005  1.7965 -0.0579
  128OSM   H15T13746   0.708   1.892   7.829 -0.9255 -0.6797  3.1309
  128OSM   C16S13747   0.728   2.030   7.998  1.2962  0.8686 -0.1085
  128OSM   H16S13748   0.618   2.039   7.998  1.1452 -0.5157  1.4691
  128OSM   H16T13749   0.776   2.127   8.025 -0.0631  0.9208  2.4392
  128OSM   C17S13750   0.786   1.938   8.101  0.6942  0.1474 -0.3840
  128OSM   H17S13751   0.880   1.888   8.070  0.1551  0.5601 -2.8378
  128OSM   H17T13752   0.708   1.859   8.109 -0.1379  0.9388 -0.4593
  128OSM   C18S13753   0.803   1.995   8.248  0.0225  0.5118  0.2157
  128OSM   H18S13754   0.864   1.928   8.312  0.0170 -0.8836 -1.1884
  128OSM   H18T13755   0.713   2.006   8.312 -0.6831 -1.5552 -0.3605
  128OSM   H18U13756   0.843   2.099   8.238 -2.2283  1.5453  1.3733
  128OSM    C1F13757   1.407   2.094   6.472  0.4723 -0.0692 -0.4694
  128OSM     OF13758   1.447   2.206   6.453 -0.1017 -0.0991 -0.2856
  128OSM    C2F13759   1.499   1.976   6.477  0.3234 -0.1049  0.1717
  128OSM    H2F13760   1.579   1.962   6.402 -0.2235 -1.9084 -0.1391
  128OSM    H2G13761   1.440   1.882   6.467 -1.6862  1.2028 -1.0832
  128OSM    C3F13762   1.568   1.979   6.616 -0.2409  1.1151 -0.2591
  128OSM    H3F13763   1.611   2.079   6.633  1.7756  0.2210  0.2285
  128OSM    H3G13764   1.652   1.907   6.619 -0.6672  0.6416  0.6454
  128OSM    C4F13765   1.475   1.934   6.733  0.7021 -0.0725 -0.5036
  128OSM    H4F13766   1.421   1.845   6.693 -0.8484  1.3426 -1.7683
  128OSM    H4G13767   1.400   2.014   6.752  2.4982  1.2243  1.5249
  128OSM    C5F13768   1.553   1.917   6.862 -0.3511  0.1469 -0.2200
  128OSM    H5F13769   1.617   2.005   6.885  0.9720 -0.6137 -0.8932
  128OSM    H5G13770   1.621   1.830   6.855  0.9521  1.0167  0.8916
  128OSM    C6F13771   1.463   1.884   6.984 -0.1996 -0.2511 -0.3023
  128OSM    H6F13772   1.527   1.875   7.075 -1.0061  3.9726  0.8947
  128OSM    H6G13773   1.430   1.779   6.973  3.2067 -1.4451 -0.2286
  128OSM    C7F13774   1.348   1.981   7.011 -0.0151 -0.3371 -0.0032
  128OSM    H7F13775   1.270   1.964   6.934  0.3836  1.9387 -0.9845
  128OSM    H7G13776   1.380   2.086   7.000 -2.0682  0.0735 -3.4284
  128OSM    C8F13777   1.297   1.963   7.153  0.0503  0.2534 -0.1629
  128OSM    H8F13778   1.283   1.855   7.176 -1.2997  0.1412 -1.3466
  128OSM    H8G13779   1.198   2.013   7.163  0.8655  1.7858  0.7120
  128OSM    C9F13780   1.392   2.025   7.253 -0.0463  0.1190 -0.1980
  128OSM    H9F13781   1.492   1.980   7.258 -0.5977 -1.2312 -0.6597
  128OSM   C10F13782   1.368   2.126   7.342 -0.2200 -0.0132 -0.2076
  128OSM   H10F13783   1.454   2.153   7.405  1.7938 -1.1076 -2.3340
  128OSM   C11F13784   1.245   2.212   7.360  0.9874 -0.1921 -0.2438
  128OSM   H11F13785   1.151   2.171   7.318  0.8238 -1.0733  0.9461
  128OSM   H11G13786   1.255   2.308   7.303 -1.8889 -0.4416 -1.3229
  128OSM   C12F13787   1.200   2.235   7.510  0.4106  0.1910  0.5353
  128OSM   H12F13788   1.097   2.275   7.502  0.5610  0.4213 -0.3184
  128OSM   H12G13789   1.269   2.309   7.557  2.0420 -1.8906  1.6117
  128OSM   C13F13790   1.191   2.110   7.594  0.2413  0.3706  0.0007
  128OSM   H13F13791   1.292   2.064   7.587  0.5152  1.0951 -0.8564
  128OSM   H13G13792   1.110   2.039   7.566  0.0051  0.3830  0.6219
  128OSM   C14F13793   1.164   2.144   7.747  0.1840  0.5968  0.1404
  128OSM   H14F13794   1.062   2.189   7.755  0.0989  0.0903  2.3676
  128OSM   H14G13795   1.246   2.207   7.786  1.8642 -1.1893 -0.3238
  128OSM   C15F13796   1.162   2.009   7.822  0.4859 -0.6432  0.8080
  128OSM   H15F13797   1.239   1.935   7.791 -2.5081 -3.6406 -0.0289
  128OSM   H15G13798   1.072   1.948   7.802  1.0634 -0.7188 -2.0198
  128OSM   C16F13799   1.154   2.029   7.973 -0.3488  0.6354 -0.4187
  128OSM   H16F13800   1.052   2.064   7.997 -0.2279  0.9102 -0.3010
  128OSM   H16G13801   1.228   2.106   8.005 -1.2006  0.0754  3.3397
  128OSM   C17F13802   1.184   1.897   8.049 -0.9328 -0.0157 -0.5620
  128OSM   H17F13803   1.292   1.885   8.025 -0.8595  0.0158 -0.2570
  128OSM   H17G13804   1.117   1.814   8.019  0.7406 -0.7427 -2.5552
  128OSM   C18F13805   1.178   1.926   8.203  0.1063 -0.1806  0.2365
  128OSM   H18F13806   1.235   1.850   8.262  0.7681 -1.0820 -1.4852
  128OSM   H18G13807   1.077   1.924   8.248 -0.6017 -0.1681 -1.2897
  128OSM   H18H13808   1.237   2.017   8.226  0.1856 -0.0423 -0.5039
  129OSM      N13809   6.756   0.110   6.010  0.2699  0.4984 -0.1422
  129OSM    C1513810   6.633   0.050   6.069  0.7805  0.6363  0.0284
  129OSM   H15A13811   6.644  -0.055   6.091  3.1449  0.3158 -2.2149
  129OSM   H15B13812   6.560   0.077   5.994  1.0973  0.9123 -0.1864
  129OSM   H15C13813   6.599   0.101   6.158 -1.6164 -1.9694  0.7215
  129OSM    C1413814   6.788   0.047   5.880 -0.0756 -0.2286 -0.6039
  129OSM   H14A13815   6.786  -0.061   5.887 -1.3080 -0.2574 -1.0951
  129OSM   H14B13816   6.886   0.081   5.849  0.5681  0.2836  1.8223
  129OSM   H14C13817   6.711   0.068   5.807 -1.1883  0.6467  0.7826
  129OSM    C1313818   6.719   0.253   5.994 -0.9689 -0.1613 -0.2106
  129OSM   H13A13819   6.699   0.293   6.093  1.8930  1.0121  0.0016
  129OSM   H13B13820   6.635   0.272   5.929 -1.4791 -0.9306  0.2205
  129OSM   H13C13821   6.801   0.316   5.961  1.0718 -0.9969  2.8459
  129OSM    C1213822   6.869   0.079   6.108 -0.2269 -0.3880 -0.1842
  129OSM   H12A13823   6.833   0.107   6.206  0.8749  2.9752 -0.6113
  129OSM   H12B13824   6.962   0.131   6.092  0.1431 -0.6521  1.0435
  129OSM    C1113825   6.920  -0.070   6.106 -0.0021 -0.9856 -0.2920
  129OSM   H11A13826   7.005  -0.067   6.177 -1.4447 -0.1424  1.4846
  129OSM   H11B13827   6.951  -0.105   6.005  0.1434  0.5540 -0.8055
  129OSM      P13828   6.813  -0.305   6.148 -0.2103  0.2678  0.4898
  129OSM    O1313829   6.689  -0.367   6.210  0.2080  0.1526  0.2315
  129OSM    O1413830   6.835  -0.326   6.001 -0.5122  0.2343  0.4062
  129OSM    O1113831   6.940  -0.346   6.238  0.2131 -0.5475  0.0549
  129OSM    O1213832   6.817  -0.147   6.172  0.1309  0.0867  0.0496
  129OSM    C1S13833   6.973  -0.284   6.366  0.1494  0.4948 -0.3484
  129OSM    H1S13834   6.909  -0.195   6.387 -0.2002 -0.0396  0.9164
  129OSM    H1T13835   7.081  -0.258   6.371  0.2193  0.0909  0.2538
  129OSM     NF13836   6.938  -0.306   6.608 -0.7449 -0.1211 -0.0145
  129OSM    HNF13837   7.014  -0.331   6.667 -0.0858  0.0134 -0.7727
  129OSM    C2S13838   6.945  -0.379   6.492  0.6072 -0.2029 -0.5664
  129OSM    H2S13839   6.844  -0.425   6.483  0.4513 -0.1023  0.5736
  129OSM    C3S13840   7.049  -0.491   6.486  0.0352 -0.2027  0.2688
  129OSM    H3S13841   7.151  -0.447   6.492  0.4970 -1.3048  0.8061
  129OSM     O313842   7.047  -0.565   6.365 -0.4332 -0.4151  0.2149
  129OSM    HO313843   6.989  -0.513   6.309  2.5344 -0.1876 -3.0119
  129OSM    C4S13844   7.028  -0.581   6.607 -0.0651  0.3373 -0.1531
  129OSM    H4S13845   7.106  -0.560   6.682  1.7473 -2.0095 -1.2464
  129OSM    C5S13846   6.938  -0.679   6.635 -0.1153 -0.8602  0.3115
  129OSM    H5S13847   6.862  -0.694   6.556 -0.7300 -0.2158  0.7725
  129OSM    C6S13848   6.926  -0.752   6.768  0.3831 -0.2171 -0.2155
  129OSM    H6S13849   6.931  -0.859   6.738  1.4701  0.0969 -1.2195
  129OSM    H6T13850   6.828  -0.725   6.812  1.2223 -1.2525  2.4867
  129OSM    C7S13851   7.045  -0.730   6.867 -0.3903 -0.3492 -0.0591
  129OSM    H7S13852   7.062  -0.624   6.897  1.3417 -0.9126  1.1603
  129OSM    H7T13853   7.137  -0.764   6.815  0.1508 -0.2930  0.8250
  129OSM    C8S13854   7.028  -0.807   6.997 -0.0373 -0.4169 -0.2189
  129OSM    H8S13855   7.020  -0.912   6.964 -1.4361 -0.1495 -0.8381
  129OSM    H8T13856   6.934  -0.787   7.054  0.2562 -2.1993  0.9562
  129OSM    C9S13857   7.138  -0.775   7.094 -0.0990  0.4064 -0.7040
  129OSM    H9S13858   7.128  -0.673   7.136 -0.2603  0.7174 -1.4804
  129OSM    H9T13859   7.239  -0.763   7.049  0.2134 -0.5398 -0.2812
  129OSM   C10S13860   7.147  -0.890   7.194 -0.3713  0.3738 -0.4104
  129OSM   H10S13861   7.228  -0.871   7.267 -1.3425  1.8865  0.3326
  129OSM   H10T13862   7.171  -0.983   7.138 -0.7031  1.3858 -2.3446
  129OSM   C11S13863   7.024  -0.925   7.268 -0.0919 -0.3218 -0.1292
  129OSM   H11S13864   6.937  -0.950   7.205 -1.2069  2.1218  0.3291
  129OSM   H11T13865   6.988  -0.839   7.329 -1.8568 -1.1653  0.0976
  129OSM   C12S13866   7.061  -1.039   7.369 -0.0446  1.0594 -0.1960
  129OSM   H12S13867   7.150  -1.014   7.431  0.1207  1.1513 -0.4655
  129OSM   H12T13868   7.081  -1.130   7.308 -1.0314  0.4129  0.4336
  129OSM   C13S13869   6.941  -1.080   7.445  1.0026  0.0301  0.4903
  129OSM   H13S13870   6.863  -1.119   7.377  2.5648 -0.9936 -0.7863
  129OSM   H13T13871   6.885  -1.005   7.506 -0.7625  0.9372 -2.0650
  129OSM   C14S13872   6.973  -1.187   7.546  0.4208 -0.4921 -0.6165
  129OSM   H14S13873   7.044  -1.142   7.619 -1.2201  1.2355 -0.0185
  129OSM   H14T13874   7.010  -1.272   7.485 -1.8013 -1.1602 -1.1041
  129OSM   C15S13875   6.852  -1.247   7.618  0.4855 -0.3724  0.0111
  129OSM   H15S13876   6.874  -1.352   7.647  1.6700 -0.2271 -0.3044
  129OSM   H15T13877   6.763  -1.255   7.552  0.7300  0.6514 -0.4645
  129OSM   C16S13878   6.800  -1.164   7.743 -0.3645 -0.4965 -0.2384
  129OSM   H16S13879   6.696  -1.190   7.769 -1.0999  1.5193 -0.9717
  129OSM   H16T13880   6.797  -1.054   7.723  0.1638 -0.4259  0.0492
  129OSM   C17S13881   6.908  -1.176   7.856  0.2174 -0.1598  0.6602
  129OSM   H17S13882   7.003  -1.129   7.823 -1.1140  3.2721  1.3022
  129OSM   H17T13883   6.918  -1.284   7.879  1.1682 -0.6282 -1.6843
  129OSM   C18S13884   6.868  -1.121   7.985  0.4216 -0.0775 -0.6123
  129OSM   H18S13885   6.865  -1.010   7.984 -1.4332 -0.0793  0.3726
  129OSM   H18T13886   6.952  -1.145   8.053  0.7618 -1.5281 -1.5103
  129OSM   H18U13887   6.774  -1.160   8.031  0.2378 -1.2645 -1.9306
  129OSM    C1F13888   6.849  -0.214   6.642  0.6128 -0.0552  0.4771
  129OSM     OF13889   6.747  -0.200   6.569 -1.0074  0.2587 -0.4453
  129OSM    C2F13890   6.877  -0.136   6.772  0.0291  0.4560  0.5545
  129OSM    H2F13891   6.964  -0.069   6.761 -0.1589  0.6804  0.4181
  129OSM    H2G13892   6.905  -0.211   6.849 -1.3133  0.2894  0.9069
  129OSM    C3F13893   6.756  -0.049   6.820  0.2133 -0.3796 -0.6186
  129OSM    H3F13894   6.660  -0.106   6.825 -1.4444  2.3128  3.1329
  129OSM    H3G13895   6.742   0.038   6.753 -1.0563  0.3394  0.5095
  129OSM    C4F13896   6.765  -0.000   6.964 -0.3467 -0.4208  0.3401
  129OSM    H4F13897   6.850   0.065   6.992 -0.9155 -0.4335  2.2381
  129OSM    H4G13898   6.773  -0.085   7.035 -1.5345  1.4190  2.8387
  129OSM    C5F13899   6.635   0.077   6.991  0.6198  0.7790  0.1131
  129OSM    H5F13900   6.553   0.002   6.994  1.8747 -0.6125  1.1959
  129OSM    H5G13901   6.615   0.146   6.906 -0.1261 -0.9883 -1.2004
  129OSM    C6F13902   6.622   0.140   7.132 -0.4826 -0.2575 -0.3784
  129OSM    H6F13903   6.521   0.186   7.130  0.1876  1.2594  0.1471
  129OSM    H6G13904   6.696   0.220   7.152  0.7378 -1.5576  0.4593
  129OSM    C7F13905   6.621   0.028   7.237  0.0891  0.0393  0.0525
  129OSM    H7F13906   6.711  -0.037   7.244 -0.1251 -0.1420  1.6554
  129OSM    H7G13907   6.537  -0.037   7.203 -1.7462  2.5441 -0.4996
  129OSM    C8F13908   6.572   0.077   7.378 -0.3543 -0.2219 -0.4662
  129OSM    H8F13909   6.524  -0.007   7.434 -0.9510 -1.0337 -2.1374
  129OSM    H8G13910   6.498   0.159   7.360  0.5773  0.6740 -0.2750
  129OSM    C9F13911   6.704   0.125   7.435  0.2313  0.3875 -0.2746
  129OSM    H9F13912   6.760   0.209   7.390  0.3468  0.6675  0.3902
  129OSM   C10F13913   6.747   0.095   7.557 -0.4235  0.1740  0.2356
  129OSM   H10F13914   6.845   0.134   7.588 -0.2125  0.7492 -1.0799
  129OSM   C11F13915   6.680   0.011   7.664  0.7130 -0.6683  0.4248
  129OSM   H11F13916   6.732  -0.087   7.673 -1.1496 -1.8289 -0.7904
  129OSM   H11G13917   6.574  -0.009   7.639  0.0168  0.8253  1.9618
  129OSM   C12F13918   6.691   0.080   7.803  0.4574 -0.1983  0.2215
  129OSM   H12F13919   6.640   0.179   7.799  0.0562 -0.4163 -0.2819
  129OSM   H12G13920   6.796   0.109   7.822  0.4214  0.8171 -0.9977
  129OSM   C13F13921   6.629   0.005   7.918  0.4336 -0.1421 -0.7256
  129OSM   H13F13922   6.668  -0.099   7.914 -1.2626 -0.7731 -2.1170
  129OSM   H13G13923   6.519  -0.009   7.920  0.5972 -1.6076  2.1542
  129OSM   C14F13924   6.672   0.069   8.055  0.2319 -0.2605  0.6878
  129OSM   H14F13925   6.606   0.153   8.085  0.6084  0.2074  0.2464
  129OSM   H14G13926   6.778   0.102   8.041  0.7378 -2.1915 -0.4606
  129OSM   C15F13927   6.670  -0.040   8.167  0.7216 -0.2545  0.0531
  129OSM   H15F13928   6.701  -0.144   8.142  2.3071  0.1245  0.3185
  129OSM   H15G13929   6.562  -0.042   8.193  0.0085 -1.1128 -2.6092
  129OSM   C16F13930   6.748   0.008   8.288 -0.5346 -0.0976 -0.0352
  129OSM   H16F13931   6.857   0.018   8.271 -0.2614 -2.1226  0.1988
  129OSM   H16G13932   6.733  -0.072   8.365 -0.5379 -0.4696 -0.4200
  129OSM   C17F13933   6.690   0.128   8.359  0.0552  0.4099  0.3682
  129OSM   H17F13934   6.582   0.107   8.373 -0.0306 -0.8341 -1.6971
  129OSM   H17G13935   6.693   0.221   8.298  1.2571  1.6415  2.1867
  129OSM   C18F13936   6.760   0.149   8.492 -0.7056  0.4902 -0.1585
  129OSM   H18F13937   6.866   0.176   8.477 -0.9465  1.2942 -0.4324
  129OSM   H18G13938   6.743   0.077   8.575  0.9450  0.8415  0.5209
  129OSM   H18H13939   6.708   0.237   8.534 -3.6578 -0.2646 -1.8803
  130OSM      N13940   2.872   1.819   6.106 -0.1233 -0.4516 -0.2069
  130OSM    C1513941   2.984   1.741   6.047  0.0902 -0.4792  0.2448
  130OSM   H15A13942   3.064   1.801   6.007 -0.2842  0.8728  1.4346
  130OSM   H15B13943   2.947   1.669   5.975 -2.3351  1.1889 -0.2918
  130OSM   H15C13944   3.025   1.675   6.121 -0.7018 -0.9342  0.2964
  130OSM    C1413945   2.800   1.902   6.001  0.4520  0.1548 -1.1108
  130OSM   H14A13946   2.725   1.967   6.045  1.8148  0.7972  0.3577
  130OSM   H14B13947   2.749   1.841   5.928  0.3124 -0.2756 -0.6658
  130OSM   H14C13948   2.857   1.980   5.953 -0.5004  0.7473 -1.3047
  130OSM    C1313949   2.776   1.731   6.177  0.9233 -0.2761  0.4670
  130OSM   H13A13950   2.706   1.796   6.227  0.3860 -0.7787  0.3800
  130OSM   H13B13951   2.810   1.668   6.258  0.5387  0.9295  1.5900
  130OSM   H13C13952   2.722   1.672   6.104  0.0375  0.2932  0.6515
  130OSM    C1213953   2.924   1.915   6.219 -0.3835  0.5982 -0.1352
  130OSM   H12A13954   2.999   1.975   6.171 -1.4570 -0.1715 -2.9946
  130OSM   H12B13955   2.973   1.847   6.288 -0.7589 -0.7568 -1.1552
  130OSM    C1113956   2.826   1.996   6.304  0.2214 -0.9105 -1.1237
  130OSM   H11A13957   2.881   2.063   6.374  0.8038 -0.3296 -2.1274
  130OSM   H11B13958   2.768   1.930   6.373  0.4972 -0.8024 -0.7818
  130OSM      P13959   2.796   2.218   6.172 -0.6611 -0.6998 -0.1558
  130OSM    O1313960   2.943   2.204   6.142 -0.6056  0.3438  0.1592
  130OSM    O1413961   2.713   2.263   6.058 -0.4151  0.1714 -0.0020
  130OSM    O1113962   2.773   2.313   6.298  0.5163 -0.3829  0.1081
  130OSM    O1213963   2.747   2.078   6.226  0.2264  0.0696 -0.0766
  130OSM    C1S13964   2.646   2.345   6.344 -0.7182  0.3938 -0.3681
  130OSM    H1S13965   2.563   2.309   6.279  0.7686  0.2674 -2.2814
  130OSM    H1T13966   2.621   2.453   6.355 -2.6312 -0.1574  1.3977
  130OSM     NF13967   2.472   2.310   6.531 -0.3730 -0.3765  0.2704
  130OSM    HNF13968   2.438   2.397   6.567 -1.9296 -0.7381 -0.2391
  130OSM    C2S13969   2.616   2.298   6.490  0.4128  0.0760  0.3547
  130OSM    H2S13970   2.636   2.190   6.480  0.9203  0.2503 -0.5956
  130OSM    C3S13971   2.717   2.360   6.594 -0.7262  0.1552 -0.0156
  130OSM    H3S13972   2.706   2.471   6.594 -0.5477  0.1742  0.1541
  130OSM     O313973   2.858   2.344   6.562 -0.0601 -0.5816  0.1693
  130OSM    HO313974   2.859   2.328   6.468  0.9584  1.6096 -0.2632
  130OSM    C4S13975   2.693   2.321   6.736  0.2246  0.2816  0.3860
  130OSM    H4S13976   2.639   2.398   6.792  2.6973  1.9188  0.7068
  130OSM    C5S13977   2.721   2.209   6.808  0.4621  0.3375 -0.1479
  130OSM    H5S13978   2.778   2.126   6.763  0.2305 -0.0398  0.2415
  130OSM    C6S13979   2.682   2.179   6.947  0.0097 -0.4694  0.1482
  130OSM    H6S13980   2.757   2.108   6.989  0.1441 -0.6019 -0.3107
  130OSM    H6T13981   2.582   2.131   6.949  1.1978 -3.1262 -0.0843
  130OSM    C7S13982   2.669   2.301   7.035  0.0910 -0.0452  0.8962
  130OSM    H7S13983   2.582   2.359   6.997 -1.5761 -1.8609  1.8165
  130OSM    H7T13984   2.756   2.368   7.021 -0.1541  0.2056  0.5609
  130OSM    C8S13985   2.651   2.287   7.185 -1.3347 -0.7903 -0.0711
  130OSM    H8S13986   2.710   2.201   7.225  0.3363 -0.2261 -1.2067
  130OSM    H8T13987   2.545   2.256   7.193 -1.2074 -0.8211  2.1241
  130OSM    C9S13988   2.677   2.405   7.272  0.1868 -0.1301 -0.5907
  130OSM    H9S13989   2.611   2.489   7.241  1.2429  0.4907 -1.2083
  130OSM    H9T13990   2.781   2.442   7.278  0.6258 -1.5240  1.2205
  130OSM   C10S13991   2.642   2.376   7.418 -0.5672 -0.3552  0.4558
  130OSM   H10S13992   2.648   2.268   7.446  2.0256 -0.3586  0.1281
  130OSM   H10T13993   2.538   2.406   7.445 -0.9141 -0.1306 -1.0691
  130OSM   C11S13994   2.744   2.437   7.519  1.1699  0.3499  0.0814
  130OSM   H11S13995   2.741   2.547   7.526 -1.1614  0.3091  0.5250
  130OSM   H11T13996   2.843   2.407   7.478  1.6121  2.6786 -0.6617
  130OSM   C12S13997   2.729   2.385   7.659  0.2827  0.1942 -0.0026
  130OSM   H12S13998   2.747   2.276   7.675 -1.4677  0.0090  0.9912
  130OSM   H12T13999   2.628   2.412   7.698  0.5090  1.5259 -0.2998
  130OSM   C13S14000   2.832   2.449   7.759  0.3230  0.4867  0.9513
  130OSM   H13S14001   2.824   2.559   7.759 -2.6903  0.3584  0.8420
  130OSM   H13T14002   2.926   2.425   7.705 -1.2758 -0.2545 -1.6890
  130OSM   C14S14003   2.806   2.395   7.901  0.2298 -0.2783  0.0146
  130OSM   H14S14004   2.890   2.326   7.922 -0.0987 -0.3409  1.1701
  130OSM   H14T14005   2.718   2.328   7.899 -0.1064  0.1751 -1.2145
  130OSM   C15S14006   2.787   2.508   8.013  0.3173 -0.3279  0.4197
  130OSM   H15S14007   2.876   2.574   8.015 -0.1350  0.3640 -0.8239
  130OSM   H15T14008   2.775   2.453   8.108 -1.2556 -0.2699  0.2856
  130OSM   C16S14009   2.664   2.599   7.988  0.1092 -0.2153 -0.0101
  130OSM   H16S14010   2.674   2.647   7.889 -1.2510 -1.2172 -0.6643
  130OSM   H16T14011   2.665   2.684   8.060  2.3719  0.1434 -0.3720
  130OSM   C17S14012   2.526   2.534   7.994  0.0670 -0.1567  0.3013
  130OSM   H17S14013   2.518   2.477   7.898 -1.6205 -1.6021  1.2170
  130OSM   H17T14014   2.451   2.610   7.962  1.1486  0.0960 -1.8188
  130OSM   C18S14015   2.490   2.458   8.122  0.3005  0.1467 -0.4585
  130OSM   H18S14016   2.396   2.399   8.120  0.3156 -0.0249  1.6910
  130OSM   H18T14017   2.485   2.539   8.197  2.1683  1.0924 -1.2942
  130OSM   H18U14018   2.569   2.387   8.154  1.2173  0.0889 -2.6691
  130OSM    C1F14019   2.373   2.241   6.478 -0.5354  0.0571  0.1485
  130OSM     OF14020   2.396   2.160   6.391 -0.7601 -0.3053 -0.4234
  130OSM    C2F14021   2.235   2.282   6.528 -0.3048  0.2984  0.2842
  130OSM    H2F14022   2.158   2.221   6.476  1.0253  0.9269 -2.6439
  130OSM    H2G14023   2.220   2.386   6.492  2.2220  1.0541  1.1889
  130OSM    C3F14024   2.219   2.288   6.680 -0.0378 -0.4170 -0.3130
  130OSM    H3F14025   2.292   2.349   6.738  1.4426 -2.2843 -0.1212
  130OSM    H3G14026   2.247   2.187   6.715  2.0864  0.0156 -0.6635
  130OSM    C4F14027   2.076   2.337   6.714  0.5575 -0.2246 -0.1518
  130OSM    H4F14028   2.001   2.270   6.670  0.0400  0.4209 -0.2724
  130OSM    H4G14029   2.071   2.439   6.669  2.3501 -0.7205 -1.5746
  130OSM    C5F14030   2.054   2.361   6.868 -0.4161 -0.3991 -0.1472
  130OSM    H5F14031   2.094   2.275   6.925 -0.6596 -1.0012 -0.8765
  130OSM    H5G14032   1.946   2.372   6.895  0.0633 -0.4747  1.9318
  130OSM    C6F14033   2.126   2.486   6.918  0.4618  0.4408 -0.0433
  130OSM    H6F14034   2.115   2.574   6.851  1.3269 -0.5671 -1.5920
  130OSM    H6G14035   2.233   2.461   6.931  0.3832 -0.2291 -0.5847
  130OSM    C7F14036   2.075   2.535   7.053  0.4283  0.2580 -0.5240
  130OSM    H7F14037   1.970   2.572   7.050  0.5702  0.8999  1.5035
  130OSM    H7G14038   2.135   2.625   7.079 -0.7521  1.0783 -0.5875
  130OSM    C8F14039   2.066   2.433   7.167 -0.1344  0.9721  0.1291
  130OSM    H8F14040   1.989   2.354   7.158  2.3579 -2.2509  3.8003
  130OSM    H8G14041   2.043   2.485   7.263 -1.3625  1.0619 -0.1955
  130OSM    C9F14042   2.201   2.370   7.185 -0.2167  0.0654 -0.5651
  130OSM    H9F14043   2.251   2.347   7.090  1.9621  0.7960  0.3221
  130OSM   C10F14044   2.276   2.342   7.290  0.2896  0.0039 -0.1631
  130OSM   H10F14045   2.375   2.299   7.273  0.3210 -0.6027  1.4004
  130OSM   C11F14046   2.238   2.360   7.437 -0.5988  0.1817 -0.4873
  130OSM   H11F14047   2.133   2.394   7.449 -0.2679  1.3761 -0.8792
  130OSM   H11G14048   2.310   2.427   7.488 -0.3164  0.0526 -0.7157
  130OSM   C12F14049   2.253   2.227   7.514 -0.7261  0.3581  0.4676
  130OSM   H12F14050   2.352   2.178   7.501 -1.3477 -0.9550  0.4989
  130OSM   H12G14051   2.174   2.156   7.482 -0.5298 -0.0414  0.8466
  130OSM   C13F14052   2.219   2.239   7.666 -0.1996 -0.1306  0.5306
  130OSM   H13F14053   2.147   2.323   7.670 -1.0719 -0.6307 -2.3570
  130OSM   H13G14054   2.317   2.263   7.711  1.8954 -1.1311 -3.1137
  130OSM   C14F14055   2.181   2.113   7.733  0.3381 -0.5733 -0.1721
  130OSM   H14F14056   2.272   2.051   7.714  0.7035  0.3981 -1.7896
  130OSM   H14G14057   2.092   2.071   7.682  1.1541 -2.6059 -0.0649
  130OSM   C15F14058   2.160   2.140   7.880  0.4133  0.5362 -0.3828
  130OSM   H15F14059   2.088   2.225   7.879  0.6879  0.8026 -2.3888
  130OSM   H15G14060   2.255   2.176   7.927 -0.6008  2.7919  0.1087
  130OSM   C16F14061   2.120   2.022   7.971 -0.3485 -0.0909  0.6461
  130OSM   H16F14062   2.201   1.946   7.972 -0.0045  0.1807 -1.7806
  130OSM   H16G14063   2.029   1.979   7.925  0.0826  0.3073 -0.6051
  130OSM   C17F14064   2.102   2.069   8.115 -0.2713 -0.6312  0.3396
  130OSM   H17F14065   2.210   2.090   8.135 -0.4825  1.0838 -0.2232
  130OSM   H17G14066   2.065   1.983   8.175 -0.5109 -0.2512  0.7420
  130OSM   C18F14067   2.008   2.190   8.133  0.0089  0.0781  0.4465
  130OSM   H18F14068   1.906   2.162   8.099 -0.2220  0.2959  0.9543
  130OSM   H18G14069   2.061   2.278   8.089  0.1343 -0.0585  0.3218
  130OSM   H18H14070   2.001   2.208   8.242 -1.1763  1.8749  0.1264
  131OSM      N14071   0.162   3.349   5.590 -0.4969 -0.0797 -0.1747
  131OSM    C1514072   0.071   3.466   5.574  0.0561  0.6294  0.2929
  131OSM   H15A14073  -0.007   3.444   5.504 -0.0695 -1.5795  1.0591
  131OSM   H15B14074   0.125   3.553   5.540  2.7233 -1.8640 -2.4694
  131OSM   H15C14075   0.038   3.504   5.670  2.5773  1.8065  0.7724
  131OSM    C1414076   0.190   3.295   5.446 -0.0297 -0.5272  0.2971
  131OSM   H14A14077   0.098   3.267   5.397 -0.3922 -0.1152  0.7392
  131OSM   H14B14078   0.250   3.205   5.452  0.6210 -0.0194  4.2884
  131OSM   H14C14079   0.250   3.360   5.384 -0.6156 -1.0675 -0.8794
  131OSM    C1314080   0.297   3.394   5.638  0.0907 -0.3234 -0.1464
  131OSM   H13A14081   0.343   3.476   5.585 -0.3122  0.3085  0.4693
  131OSM   H13B14082   0.368   3.315   5.657  0.9785  0.5565  0.2837
  131OSM   H13C14083   0.280   3.440   5.734  1.1531  0.5657 -0.3611
  131OSM    C1214084   0.100   3.239   5.681  0.3289 -0.8582 -0.0130
  131OSM   H12A14085   0.172   3.158   5.680  2.1538  0.6353 -2.3376
  131OSM   H12B14086   0.007   3.200   5.642 -1.1475  3.4116 -1.3273
  131OSM    C1114087   0.082   3.284   5.826 -0.0921 -0.1110  0.0892
  131OSM   H11A14088   0.009   3.214   5.873  1.0714 -0.0225  2.1587
  131OSM   H11B14089   0.019   3.375   5.824 -1.5994 -1.1143 -1.7953
  131OSM      P14090   0.294   3.182   5.930 -0.3839  0.6130  0.2463
  131OSM    O1314091   0.215   3.059   5.942  0.5582 -0.3652  0.2878
  131OSM    O1414092   0.406   3.175   5.836  0.1413 -0.0742  0.1411
  131OSM    O1114093   0.357   3.215   6.073  0.4507 -0.1253  0.0964
  131OSM    O1214094   0.200   3.300   5.898 -0.8231 -0.2632 -0.0673
  131OSM    C1S14095   0.276   3.274   6.175  0.7324  0.0612 -0.0853
  131OSM    H1S14096   0.210   3.191   6.207  1.0300 -0.1213  0.0682
  131OSM    H1T14097   0.227   3.368   6.144 -1.8908 -1.3233 -0.4817
  131OSM     NF14098   0.291   3.373   6.398 -0.1475 -0.0150  0.1850
  131OSM    HNF14099   0.280   3.471   6.405 -1.1445 -0.2196  2.1115
  131OSM    C2S14100   0.372   3.324   6.290  0.1567 -0.0587  0.0011
  131OSM    H2S14101   0.428   3.236   6.328  2.9910  0.5024 -2.4377
  131OSM    C3S14102   0.465   3.440   6.249 -0.0239 -0.1071  0.3708
  131OSM    H3S14103   0.397   3.518   6.209  0.3322  1.9296  3.3487
  131OSM     O314104   0.548   3.409   6.140 -0.3842 -0.1952 -0.4032
  131OSM    HO314105   0.505   3.338   6.093  0.5357 -2.2823  1.7161
  131OSM    C4S14106   0.546   3.487   6.361 -0.2712 -0.1679  0.4332
  131OSM    H4S14107   0.626   3.415   6.386 -1.9558 -2.2575  0.0482
  131OSM    C5S14108   0.552   3.604   6.421  0.1010 -1.1729  0.6786
  131OSM    H5S14109   0.488   3.679   6.373  0.3298 -2.3643 -1.6751
  131OSM    C6S14110   0.648   3.647   6.525 -0.8903  0.1499 -0.7623
  131OSM    H6S14111   0.691   3.744   6.492 -0.6880  0.3350  0.0243
  131OSM    H6T14112   0.736   3.580   6.522  1.2650  2.7984 -0.8358
  131OSM    C7S14113   0.586   3.667   6.667 -0.3917  0.1933  0.4333
  131OSM    H7S14114   0.526   3.576   6.685 -1.1357  0.6594  0.3326
  131OSM    H7T14115   0.528   3.762   6.669  0.7861  0.9308  1.5486
  131OSM    C8S14116   0.707   3.684   6.764  0.2999  1.1699  0.7882
  131OSM    H8S14117   0.768   3.771   6.730  0.3581  0.2985 -1.5408
  131OSM    H8T14118   0.773   3.597   6.743  0.9172  2.0600 -1.1618
  131OSM    C9S14119   0.669   3.701   6.905  0.5642  0.6277  0.8611
  131OSM    H9S14120   0.601   3.614   6.917  1.0920  0.0206 -0.4103
  131OSM    H9T14121   0.599   3.786   6.917 -1.8044 -1.1042 -0.0357
  131OSM   C10S14122   0.786   3.714   7.003 -0.6352  0.1379 -0.3360
  131OSM   H10S14123   0.833   3.812   6.979 -0.8721  0.1924 -0.5830
  131OSM   H10T14124   0.853   3.626   6.997  1.9384  2.0474 -1.9327
  131OSM   C11S14125   0.730   3.721   7.144 -0.6507  0.0569 -0.3504
  131OSM   H11S14126   0.663   3.632   7.151  0.2686 -0.5767  0.6417
  131OSM   H11T14127   0.671   3.812   7.167  0.7138  0.6530  0.9627
  131OSM   C12S14128   0.832   3.715   7.263 -0.0483 -0.0822  0.8759
  131OSM   H12S14129   0.917   3.782   7.239 -0.1880  0.0645  0.7908
  131OSM   H12T14130   0.879   3.614   7.266  1.9954  0.6359 -2.0304
  131OSM   C13S14131   0.762   3.746   7.399  0.3881 -0.6332  0.4129
  131OSM   H13S14132   0.666   3.692   7.385 -0.8371  1.5674 -0.0014
  131OSM   H13T14133   0.741   3.853   7.421 -3.6315 -1.4233  1.2332
  131OSM   C14S14134   0.841   3.685   7.515 -0.1644  0.0729  1.1040
  131OSM   H14S14135   0.945   3.723   7.508 -0.9744  2.1075 -2.5726
  131OSM   H14T14136   0.859   3.576   7.503 -1.1401 -0.1149  1.2551
  131OSM   C15S14137   0.769   3.701   7.657  0.8747  0.2123 -0.1762
  131OSM   H15S14138   0.704   3.611   7.654  1.5667 -0.2725 -0.7978
  131OSM   H15T14139   0.709   3.794   7.672 -1.2157 -1.2783  1.2226
  131OSM   C16S14140   0.865   3.695   7.776  0.4463 -0.5139 -0.0862
  131OSM   H16S14141   0.944   3.769   7.750 -1.0573  0.7546 -1.2418
  131OSM   H16T14142   0.918   3.597   7.781  3.3127  0.9504  0.1670
  131OSM   C17S14143   0.803   3.722   7.918  1.0843 -0.2223  0.0477
  131OSM   H17S14144   0.731   3.643   7.949  0.4575 -1.5263 -4.1417
  131OSM   H17T14145   0.745   3.816   7.904  1.7404  0.3048  0.8145
  131OSM   C18S14146   0.908   3.743   8.022  0.0234 -0.4227 -0.2050
  131OSM   H18S14147   0.873   3.775   8.123  0.0884 -1.1225  0.0448
  131OSM   H18T14148   0.985   3.815   7.987  0.4054 -2.0084 -2.9162
  131OSM   H18U14149   0.961   3.647   8.037  3.1207  1.4117  1.6665
  131OSM    C1F14150   0.228   3.286   6.485 -0.1270  0.8906 -0.5322
  131OSM     OF14151   0.274   3.170   6.503  0.5365 -0.0916  0.3727
  131OSM    C2F14152   0.106   3.334   6.560  0.6673  0.5789 -0.3398
  131OSM    H2F14153   0.007   3.315   6.515  0.3912  1.6842 -0.2354
  131OSM    H2G14154   0.112   3.445   6.557  1.8536  0.5346 -0.0368
  131OSM    C3F14155   0.114   3.298   6.714  0.0439  0.6028 -0.0535
  131OSM    H3F14156   0.219   3.320   6.743  1.1334 -2.6147 -1.1821
  131OSM    H3G14157   0.103   3.188   6.726 -0.0203  0.7702  1.6697
  131OSM    C4F14158   0.017   3.384   6.797  1.0172  1.0741 -0.3394
  131OSM    H4F14159  -0.092   3.376   6.777  0.8727 -0.8925  1.0364
  131OSM    H4G14160   0.029   3.490   6.765 -2.5059  1.2432 -1.5052
  131OSM    C5F14161   0.048   3.368   6.952  0.1892 -0.3108  0.0172
  131OSM    H5F14162  -0.039   3.318   6.999  0.1639 -1.1771 -0.9115
  131OSM    H5G14163   0.046   3.470   6.996  2.4258  0.0627 -0.6489
  131OSM    C6F14164   0.167   3.292   6.998 -0.1514  0.3301 -0.4048
  131OSM    H6F14165   0.261   3.344   6.969 -0.7651  0.6965 -1.7976
  131OSM    H6G14166   0.164   3.191   6.951 -0.9765 -0.3158  0.9679
  131OSM    C7F14167   0.167   3.266   7.151  0.5320 -1.1868  0.2291
  131OSM    H7F14168   0.255   3.201   7.173  0.5668 -1.0702  0.4321
  131OSM    H7G14169   0.077   3.209   7.183  0.7204 -1.0682  0.9733
  131OSM    C8F14170   0.181   3.394   7.237 -0.0558  0.0333  0.3885
  131OSM    H8F14171   0.103   3.466   7.206 -0.9572  0.0046  2.4789
  131OSM    H8G14172   0.282   3.434   7.213  0.5720  0.2122  3.0647
  131OSM    C9F14173   0.159   3.366   7.379  0.2525 -0.0334 -0.0002
  131OSM    H9F14174   0.102   3.275   7.402  0.8637 -0.0623  1.4802
  131OSM   C10F14175   0.222   3.426   7.486  0.4331  0.0610  0.0928
  131OSM   H10F14176   0.187   3.381   7.580 -1.1655 -0.8239 -0.8694
  131OSM   C11F14177   0.324   3.539   7.489 -0.4730  0.3555  0.0628
  131OSM   H11F14178   0.359   3.570   7.388 -1.3728  0.9654 -0.0700
  131OSM   H11G14179   0.419   3.506   7.537 -0.6801 -1.5527 -0.7638
  131OSM   C12F14180   0.301   3.667   7.567 -0.1621  0.8244  0.1683
  131OSM   H12F14181   0.203   3.703   7.529 -0.8380 -0.7946  0.3125
  131OSM   H12G14182   0.377   3.744   7.541  0.3118 -0.2133 -1.6589
  131OSM   C13F14183   0.295   3.648   7.720  0.0506 -0.3542 -0.0261
  131OSM   H13F14184   0.226   3.563   7.741 -1.6584  0.9547 -0.1428
  131OSM   H13G14185   0.253   3.737   7.772 -1.0206 -0.8055 -0.0841
  131OSM   C14F14186   0.428   3.624   7.792  0.4229  0.7647 -0.1165
  131OSM   H14F14187   0.501   3.698   7.753 -0.7266  1.4935 -0.9582
  131OSM   H14G14188   0.449   3.515   7.782  2.8519  1.2074 -0.4066
  131OSM   C15F14189   0.426   3.651   7.935 -0.7175 -0.0221 -0.2556
  131OSM   H15F14190   0.414   3.760   7.956  1.0338  0.0551  0.5284
  131OSM   H15G14191   0.521   3.613   7.978 -1.3747 -1.0351  0.3418
  131OSM   C16F14192   0.320   3.581   8.014 -0.2375  0.6481 -0.6743
  131OSM   H16F14193   0.334   3.474   7.990  0.0565  0.1817  1.4199
  131OSM   H16G14194   0.217   3.612   7.985  0.0550  1.0388 -1.3186
  131OSM   C17F14195   0.346   3.585   8.167  0.2415 -0.4118 -0.0241
  131OSM   H17F14196   0.347   3.693   8.191  1.0928 -0.1668 -1.0870
  131OSM   H17G14197   0.451   3.553   8.187  0.1401  1.1269  3.8607
  131OSM   C18F14198   0.247   3.496   8.245  0.1983  0.0057  0.6865
  131OSM   H18F14199   0.247   3.393   8.205 -0.1249  1.4483 -3.5998
  131OSM   H18G14200   0.148   3.547   8.239  0.8597  1.2659 -0.2153
  131OSM   H18H14201   0.275   3.504   8.352 -0.3469  1.2979  0.7533
  132OSM      N14202   3.089   5.546   6.046 -0.5306 -0.5217  0.2852
  132OSM    C1514203   3.192   5.435   6.024 -0.1817 -0.5146 -0.1194
  132OSM   H15A14204   3.157   5.341   6.064  3.2294 -1.1112  1.8211
  132OSM   H15B14205   3.289   5.460   6.064 -0.1399 -1.8090  0.6654
  132OSM   H15C14206   3.207   5.427   5.917 -0.8096  1.5150 -0.3931
  132OSM    C1414207   3.143   5.682   6.008 -0.2709  0.0519  0.1519
  132OSM   H14A14208   3.205   5.727   6.084 -1.3074 -1.8619  2.2602
  132OSM   H14B14209   3.056   5.747   6.008  0.2200  0.7288 -0.6957
  132OSM   H14C14210   3.184   5.671   5.909  0.5387 -2.1139  0.6833
  132OSM    C1314211   2.970   5.503   5.960 -0.5078 -0.1009  0.3464
  132OSM   H13A14212   2.990   5.501   5.854  0.2706  1.3929  0.4278
  132OSM   H13B14213   2.902   5.585   5.977 -0.8334  0.2102 -2.1281
  132OSM   H13C14214   2.934   5.408   5.996 -0.5731 -1.3107 -2.6238
  132OSM    C1214215   3.056   5.541   6.192  0.6114 -0.2585 -0.1927
  132OSM   H12A14216   3.148   5.552   6.249  1.4184 -1.0316 -1.3050
  132OSM   H12B14217   3.017   5.444   6.219 -0.9107 -0.5347 -3.1025
  132OSM    C1114218   2.949   5.642   6.241 -0.0940 -0.2762 -0.1796
  132OSM   H11A14219   2.987   5.746   6.242 -1.2775  0.1646 -0.3613
  132OSM   H11B14220   2.950   5.609   6.347  1.3274  1.6802  0.4660
  132OSM      P14221   2.701   5.601   6.246  0.1082  0.1884  0.2776
  132OSM    O1314222   2.595   5.665   6.170 -0.9491 -0.4625  0.0867
  132OSM    O1414223   2.683   5.460   6.286 -0.6811 -0.0246  0.2996
  132OSM    O1114224   2.717   5.685   6.387  0.3729  0.0535  0.5766
  132OSM    O1214225   2.831   5.629   6.168 -0.5315  0.1794 -0.4889
  132OSM    C1S14226   2.599   5.708   6.462  0.2258  0.2688 -0.2141
  132OSM    H1S14227   2.552   5.613   6.497 -0.0398  0.5619  0.2354
  132OSM    H1T14228   2.520   5.762   6.404 -0.9690 -0.5177  0.6239
  132OSM     NF14229   2.481   5.831   6.648  0.0183  0.1495  0.4217
  132OSM    HNF14230   2.433   5.913   6.619  1.3196  1.2264  1.2075
  132OSM    C2S14231   2.612   5.797   6.592  0.4261  0.5948  0.5451
  132OSM    H2S14232   2.655   5.735   6.674  1.8263 -0.8657 -1.2160
  132OSM    C3S14233   2.695   5.921   6.565 -0.3699 -0.1279 -0.0133
  132OSM    H3S14234   2.638   6.009   6.526  0.5220  0.0284 -0.9995
  132OSM     O314235   2.796   5.904   6.471  0.5322  1.0525  0.0484
  132OSM    HO314236   2.779   5.817   6.432 -0.6371  1.9347 -1.5611
  132OSM    C4S14237   2.760   5.973   6.690 -0.4030 -0.4746  0.7267
  132OSM    H4S14238   2.740   6.078   6.716 -2.4688 -0.3875 -0.9257
  132OSM    C5S14239   2.858   5.914   6.762 -0.8771  0.4095 -0.0032
  132OSM    H5S14240   2.898   5.816   6.733  1.4580  1.4569 -0.5468
  132OSM    C6S14241   2.908   5.988   6.882 -0.6111  0.3305 -0.2875
  132OSM    H6S14242   2.881   6.094   6.898 -1.8866 -0.2464  1.6939
  132OSM    H6T14243   3.018   6.001   6.878 -0.6203  0.2195 -1.2368
  132OSM    C7S14244   2.882   5.909   7.012  0.1116 -0.3363 -0.2705
  132OSM    H7S14245   2.929   5.808   7.003 -0.8216 -0.8289  0.2694
  132OSM    H7T14246   2.776   5.892   7.039 -0.1124 -0.3778 -1.1400
  132OSM    C8S14247   2.938   5.984   7.140 -0.0986  0.5457 -0.2152
  132OSM    H8S14248   2.909   6.091   7.133 -0.9198  0.3723  0.3555
  132OSM    H8T14249   3.048   5.973   7.145 -0.3225 -1.7367  2.0638
  132OSM    C9S14250   2.883   5.922   7.273 -0.7588 -0.0061 -0.1915
  132OSM    H9S14251   2.909   5.817   7.300 -3.0809 -0.6409 -0.1888
  132OSM    H9T14252   2.772   5.921   7.266 -0.8242  0.1209  0.8169
  132OSM   C10S14253   2.916   6.011   7.388 -0.4761  0.2623  0.0892
  132OSM   H10S14254   2.853   6.098   7.361  0.2211  1.4270  2.0620
  132OSM   H10T14255   3.021   6.044   7.394  0.0014 -0.8728 -1.3280
  132OSM   C11S14256   2.864   5.960   7.527 -0.3661 -0.1237  0.2804
  132OSM   H11S14257   2.910   5.868   7.567  0.0459  0.2966  0.7786
  132OSM   H11T14258   2.756   5.940   7.509 -0.3928  0.8178 -0.7593
  132OSM   C12S14259   2.882   6.068   7.630 -0.4751 -0.3343  0.8833
  132OSM   H12S14260   2.837   6.164   7.596  1.4191 -0.2614 -1.7290
  132OSM   H12T14261   2.991   6.088   7.639  0.2471 -1.9519 -2.5909
  132OSM   C13S14262   2.832   6.030   7.768  0.0644 -0.8849  0.4643
  132OSM   H13S14263   2.865   5.932   7.810 -0.5546 -1.7505 -0.9792
  132OSM   H13T14264   2.722   6.018   7.782  0.1009 -1.9482 -0.0244
  132OSM   C14S14265   2.900   6.130   7.868  0.6252 -0.0332 -0.9240
  132OSM   H14S14266   2.851   6.218   7.822 -1.0152 -0.8702 -0.8438
  132OSM   H14T14267   3.011   6.137   7.866  0.8633 -0.8675  2.5227
  132OSM   C15S14268   2.852   6.109   8.014 -0.7144 -0.2453  0.0976
  132OSM   H15S14269   2.741   6.109   8.015 -0.7251 -1.3120 -0.1536
  132OSM   H15T14270   2.880   6.192   8.083 -2.1567 -0.3227  0.8142
  132OSM   C16S14271   2.890   5.970   8.080  0.3513 -0.2705  0.2373
  132OSM   H16S14272   2.993   5.931   8.067  0.4091  0.3140 -1.3266
  132OSM   H16T14273   2.823   5.892   8.039 -0.2345 -0.5572  1.6764
  132OSM   C17S14274   2.859   5.965   8.228  0.1406  0.3134  0.2973
  132OSM   H17S14275   2.749   5.972   8.243 -0.2227 -2.3022 -0.6244
  132OSM   H17T14276   2.913   6.047   8.281 -0.3827  0.9825 -0.1905
  132OSM   C18S14277   2.895   5.836   8.310  0.2333 -0.2661  0.8019
  132OSM   H18S14278   2.862   5.849   8.415  2.4446 -0.9516  1.6484
  132OSM   H18T14279   3.006   5.823   8.303  0.4866  1.9176 -0.0402
  132OSM   H18U14280   2.851   5.741   8.274  1.7089  0.2737 -2.8853
  132OSM    C1F14281   2.401   5.744   6.714 -0.6898 -0.1968 -0.3392
  132OSM     OF14282   2.440   5.636   6.743 -0.5209 -0.0309  0.2069
  132OSM    C2F14283   2.259   5.790   6.730  0.9828  0.5807 -0.8230
  132OSM    H2F14284   2.204   5.708   6.781 -0.3787  1.7210 -0.3866
  132OSM    H2G14285   2.210   5.798   6.630 -1.1606  2.2070  0.2684
  132OSM    C3F14286   2.245   5.922   6.808 -0.2194  0.4660  0.7071
  132OSM    H3F14287   2.288   5.998   6.740  0.0502 -0.0045  0.3429
  132OSM    H3G14288   2.314   5.921   6.895 -0.1283  1.9578  0.6664
  132OSM    C4F14289   2.100   5.971   6.841 -0.5692 -0.2918  0.1542
  132OSM    H4F14290   2.054   5.905   6.918  0.1758 -1.2943 -0.2278
  132OSM    H4G14291   2.038   5.963   6.749  0.5021  0.2643 -0.6342
  132OSM    C5F14292   2.083   6.115   6.893 -0.0929 -0.6035 -0.2274
  132OSM    H5F14293   1.973   6.128   6.887 -0.9868 -5.5950  0.8609
  132OSM    H5G14294   2.131   6.189   6.826  2.0317 -0.8558  0.9404
  132OSM    C6F14295   2.128   6.136   7.039 -0.0917  0.2551  0.8400
  132OSM    H6F14296   2.235   6.109   7.033 -0.4725 -1.3071  0.5785
  132OSM    H6G14297   2.066   6.062   7.093 -1.7136 -0.2287 -1.5369
  132OSM    C7F14298   2.101   6.288   7.086  0.3811 -0.6006  0.3183
  132OSM    H7F14299   2.130   6.350   6.999  0.2302 -1.0460 -0.0520
  132OSM    H7G14300   2.179   6.315   7.161  2.0550  0.5334 -1.7171
  132OSM    C8F14301   1.957   6.302   7.143  0.2812  0.7183 -0.4347
  132OSM    H8F14302   1.880   6.249   7.082  0.4658 -1.0370  0.8049
  132OSM    H8G14303   1.928   6.409   7.135 -0.6192  0.3684 -2.8647
  132OSM    C9F14304   1.953   6.257   7.289 -0.2243 -0.2022  0.1699
  132OSM    H9F14305   1.928   6.150   7.291  2.1204 -0.8521 -1.1384
  132OSM   C10F14306   2.005   6.315   7.402 -0.9335  0.1046 -0.4574
  132OSM   H10F14307   1.961   6.269   7.492 -0.3370 -0.5042 -0.4655
  132OSM   C11F14308   2.081   6.443   7.411 -0.0812 -0.3291 -0.7194
  132OSM   H11F14309   2.074   6.499   7.315 -3.0737  1.1504  0.2286
  132OSM   H11G14310   2.185   6.408   7.426 -0.3147 -0.8664 -0.3169
  132OSM   C12F14311   2.059   6.541   7.527 -0.4077 -0.5727  0.1596
  132OSM   H12F14312   1.968   6.600   7.505  0.7137  1.4045  0.5146
  132OSM   H12G14313   2.136   6.622   7.526  1.6470 -2.3970  1.7841
  132OSM   C13F14314   2.057   6.487   7.668  0.0028 -0.6159  0.1952
  132OSM   H13F14315   2.155   6.436   7.677 -0.2419 -1.3185 -0.9411
  132OSM   H13G14316   1.982   6.407   7.690 -0.1392 -0.0838  1.7919
  132OSM   C14F14317   2.059   6.588   7.779 -0.1858  0.0120 -1.1558
  132OSM   H14F14318   1.971   6.655   7.781  0.7332  1.3396 -2.6561
  132OSM   H14G14319   2.142   6.661   7.774 -0.0691  0.0885  0.8834
  132OSM   C15F14320   2.072   6.520   7.921  0.5854 -0.1930  0.1427
  132OSM   H15F14321   2.164   6.466   7.949 -0.2480 -1.3839  0.6794
  132OSM   H15G14322   1.982   6.460   7.949  0.5834  0.6937  2.2262
  132OSM   C16F14323   2.083   6.633   8.031  0.1191 -0.8071  0.2801
  132OSM   H16F14324   2.022   6.719   7.996 -1.0556 -1.4157  0.7590
  132OSM   H16G14325   2.182   6.677   8.056 -0.8935  1.6578  0.1919
  132OSM   C17F14326   2.021   6.584   8.166  0.2485 -0.7487 -0.1324
  132OSM   H17F14327   1.922   6.538   8.146 -0.0511 -1.0485  1.9074
  132OSM   H17G14328   2.000   6.663   8.241 -0.9666 -0.5649 -0.6403
  132OSM   C18F14329   2.110   6.485   8.241 -0.1729 -0.4899  0.3400
  132OSM   H18F14330   2.214   6.518   8.261 -0.1951 -1.1506  1.6275
  132OSM   H18G14331   2.111   6.387   8.190  0.6096 -0.1421 -0.3350
  132OSM   H18H14332   2.070   6.468   8.343 -0.4909 -0.4617  0.2205
  133OSM      N14333   3.438   4.900   6.010  0.0550  0.2757 -0.3757
  133OSM    C1514334   3.448   4.822   6.140  0.5774 -0.4997  0.2743
  133OSM   H15A14335   3.516   4.868   6.210 -0.1229 -1.2462  1.4677
  133OSM   H15B14336   3.490   4.725   6.118  1.3594  0.1456 -1.3035
  133OSM   H15C14337   3.347   4.807   6.175 -0.1186 -0.5263 -1.6312
  133OSM    C1414338   3.571   4.884   5.934 -0.7369  0.1124 -0.0777
  133OSM   H14A14339   3.585   4.778   5.918  2.7397  0.4451 -0.0784
  133OSM   H14B14340   3.661   4.909   5.988 -0.4043  0.6895 -0.8919
  133OSM   H14C14341   3.578   4.920   5.833 -1.0381  1.5846  0.4039
  133OSM    C1314342   3.324   4.836   5.926 -0.5225 -0.2625 -0.0431
  133OSM   H13A14343   3.320   4.891   5.833  0.0116 -0.7297 -0.3509
  133OSM   H13B14344   3.227   4.844   5.971 -0.7675  0.3657 -0.6615
  133OSM   H13C14345   3.347   4.731   5.914 -2.0120 -0.6396  0.1744
  133OSM    C1214346   3.429   5.049   6.042  0.2298 -0.1748 -0.9026
  133OSM   H12A14347   3.432   5.098   5.946 -0.8470 -0.0834 -0.9055
  133OSM   H12B14348   3.523   5.066   6.092 -0.4702 -3.4452  1.8403
  133OSM    C1114349   3.307   5.097   6.127  0.5249  0.2277  0.2927
  133OSM   H11A14350   3.322   5.196   6.174  2.3354 -0.2527  0.8338
  133OSM   H11B14351   3.318   5.033   6.217 -1.0911  1.1667  1.1901
  133OSM      P14352   3.040   5.075   6.129  0.0120  0.0440 -0.1831
  133OSM    O1314353   2.957   5.180   6.080 -0.0732 -0.3015 -0.1131
  133OSM    O1414354   2.980   4.944   6.122 -0.1373  0.7336 -0.1949
  133OSM    O1114355   3.070   5.109   6.280 -0.2221  0.2584  0.1893
  133OSM    O1214356   3.185   5.078   6.056  0.1305  0.1724  0.1752
  133OSM    C1S14357   2.973   5.064   6.377 -0.2876 -0.5560  0.1291
  133OSM    H1S14358   2.995   4.957   6.399 -0.0727 -0.9041 -1.6039
  133OSM    H1T14359   2.865   5.078   6.354 -1.3067 -1.6736  3.6031
  133OSM     NF14360   2.908   5.078   6.612 -0.4204 -0.6694 -0.2786
  133OSM    HNF14361   2.822   5.123   6.635 -0.8137 -0.3634 -2.1816
  133OSM    C2S14362   2.994   5.139   6.514 -0.6113 -1.3048 -0.2620
  133OSM    H2S14363   3.101   5.123   6.542 -0.2648 -2.4083 -2.0393
  133OSM    C3S14364   2.977   5.292   6.494 -1.1718  0.7776 -0.4884
  133OSM    H3S14365   2.870   5.310   6.470 -2.0291 -1.6407  1.1450
  133OSM     O314366   3.056   5.340   6.386  0.0457 -1.1329 -0.4322
  133OSM    HO314367   3.084   5.258   6.345  0.5471 -0.7287 -0.9201
  133OSM    C4S14368   3.003   5.366   6.614  0.3843 -0.3937 -0.5837
  133OSM    H4S14369   3.108   5.359   6.647  0.0260 -0.8423  0.4981
  133OSM    C5S14370   2.924   5.462   6.668  0.6950  0.0996  0.0486
  133OSM    H5S14371   2.837   5.500   6.612  0.6804  1.8040  1.1562
  133OSM    C6S14372   2.960   5.542   6.787  0.1639 -0.9649  0.2997
  133OSM    H6S14373   2.870   5.587   6.834  1.2854 -0.1714  1.7487
  133OSM    H6T14374   3.020   5.628   6.752 -1.0666 -0.5288 -0.8386
  133OSM    C7S14375   3.024   5.473   6.906 -0.6336 -0.0682  0.3796
  133OSM    H7S14376   3.127   5.435   6.887  0.0459  1.5592  0.5912
  133OSM    H7T14377   2.954   5.393   6.936 -1.6964  0.3337 -0.9042
  133OSM    C8S14378   3.026   5.576   7.017 -0.2826 -0.1620 -0.0778
  133OSM    H8S14379   2.926   5.618   7.043 -0.6513 -0.2724 -1.2404
  133OSM    H8T14380   3.095   5.658   6.989  1.1023 -1.5751 -0.9804
  133OSM    C9S14381   3.088   5.503   7.145  0.3209 -0.1842 -0.3253
  133OSM    H9S14382   3.186   5.453   7.128 -0.0162 -0.9051 -0.1876
  133OSM    H9T14383   3.019   5.422   7.177 -1.3266  0.5254 -1.8999
  133OSM   C10S14384   3.090   5.600   7.264 -0.7811 -0.3266 -0.7247
  133OSM   H10S14385   2.987   5.590   7.306 -0.3589 -2.1197 -0.0335
  133OSM   H10T14386   3.098   5.703   7.224  0.9852 -1.2002 -2.7864
  133OSM   C11S14387   3.192   5.571   7.371  0.5332  0.5773 -0.1398
  133OSM   H11S14388   3.296   5.597   7.339  0.7502  0.6588  0.6179
  133OSM   H11T14389   3.200   5.464   7.400 -0.6569  0.1868 -1.1531
  133OSM   C12S14390   3.169   5.657   7.507 -0.1475 -0.4297  0.4877
  133OSM   H12S14391   3.074   5.631   7.557  0.7890 -0.3214  2.4040
  133OSM   H12T14392   3.173   5.766   7.485 -0.2672 -0.7254 -1.1565
  133OSM   C13S14393   3.289   5.636   7.603  0.5507  0.4689 -0.2043
  133OSM   H13S14394   3.382   5.636   7.541  2.8045 -0.4945  2.9009
  133OSM   H13T14395   3.275   5.528   7.624 -0.1852  0.3686 -1.1759
  133OSM   C14S14396   3.299   5.726   7.723  0.4240  0.6764 -0.4923
  133OSM   H14S14397   3.316   5.832   7.694 -1.4974  0.8841 -1.0688
  133OSM   H14T14398   3.376   5.675   7.784  0.2508  0.3643 -0.5319
  133OSM   C15S14399   3.164   5.726   7.794 -0.1037 -0.1116  0.8068
  133OSM   H15S14400   3.090   5.788   7.740  0.9401  0.5091  0.0523
  133OSM   H15T14401   3.169   5.779   7.891 -1.8978 -0.1395  0.9515
  133OSM   C16S14402   3.115   5.586   7.848  0.2851  0.6386  0.4239
  133OSM   H16S14403   3.185   5.552   7.926 -1.2325  1.0258  2.0169
  133OSM   H16T14404   3.120   5.509   7.769 -0.2273 -0.7381  1.6947
  133OSM   C17S14405   2.974   5.589   7.899  0.4704 -0.1586 -0.0168
  133OSM   H17S14406   2.913   5.623   7.813  0.2845 -0.1098  0.1339
  133OSM   H17T14407   2.952   5.659   7.983  1.4150  1.9056 -1.3998
  133OSM   C18S14408   2.939   5.442   7.928  0.8866  0.0961  0.3217
  133OSM   H18S14409   2.960   5.376   7.842  0.3629 -0.4476  0.6084
  133OSM   H18T14410   2.832   5.429   7.951  1.5256 -1.9120  2.5264
  133OSM   H18U14411   2.994   5.405   8.017 -0.3997 -0.9166  0.7199
  133OSM    C1F14412   2.923   4.946   6.649 -0.1149  1.1585 -0.1314
  133OSM     OF14413   3.027   4.891   6.616  0.4359 -0.1166  0.2887
  133OSM    C2F14414   2.821   4.868   6.726  0.3289 -0.2983 -0.1166
  133OSM    H2F14415   2.790   4.788   6.657 -0.3527  0.2902 -0.5074
  133OSM    H2G14416   2.737   4.939   6.743  0.9154 -0.0659  2.1752
  133OSM    C3F14417   2.877   4.810   6.861  0.4382  0.2765  0.0063
  133OSM    H3F14418   2.982   4.772   6.857  0.6723  0.8804  0.1552
  133OSM    H3G14419   2.824   4.717   6.889 -0.1589  1.5283  3.5306
  133OSM    C4F14420   2.864   4.917   6.968  0.0401 -0.1820  0.2227
  133OSM    H4F14421   2.757   4.929   6.992 -0.4797  0.2239 -2.0526
  133OSM    H4G14422   2.901   5.017   6.935 -0.2361 -0.1239  0.0819
  133OSM    C5F14423   2.933   4.880   7.097  0.3421  0.0691  0.2503
  133OSM    H5F14424   3.044   4.883   7.090  0.2412  0.5633 -1.7289
  133OSM    H5G14425   2.900   4.780   7.131  0.7165 -0.6742 -1.4896
  133OSM    C6F14426   2.877   4.972   7.214 -0.4813 -0.1776 -0.1157
  133OSM    H6F14427   2.766   4.970   7.219 -0.5609  1.2688 -0.8326
  133OSM    H6G14428   2.891   5.081   7.199 -2.1426  0.0775  0.0036
  133OSM    C7F14429   2.947   4.941   7.354  0.5306  0.6378 -1.1008
  133OSM    H7F14430   3.045   4.890   7.345  0.2168 -0.0810 -0.5464
  133OSM    H7G14431   2.885   4.872   7.415  0.6820 -0.6830 -2.3961
  133OSM    C8F14432   2.985   5.074   7.430  0.4527  0.1375  0.1712
  133OSM    H8F14433   3.044   5.136   7.359 -1.2591  2.8463  0.9381
  133OSM    H8G14434   3.052   5.050   7.515  0.6585 -1.1054 -0.3105
  133OSM    C9F14435   2.862   5.148   7.469 -0.5115  0.1611  0.4945
  133OSM    H9F14436   2.791   5.174   7.388  0.1912  1.4598  0.2671
  133OSM   C10F14437   2.832   5.176   7.597 -0.1444 -0.2140  0.4428
  133OSM   H10F14438   2.735   5.223   7.616 -0.7744 -0.1198 -2.5936
  133OSM   C11F14439   2.927   5.139   7.711 -0.4872 -0.0471  0.2250
  133OSM   H11F14440   2.997   5.222   7.736  0.5193 -0.3238 -1.5262
  133OSM   H11G14441   2.991   5.052   7.685  1.0667  1.4626 -1.3022
  133OSM   C12F14442   2.845   5.100   7.831  0.3242 -0.2019 -0.8069
  133OSM   H12F14443   2.768   5.024   7.804  0.9630 -0.9271 -0.6116
  133OSM   H12G14444   2.779   5.188   7.850 -1.1848 -1.0954 -1.6735
  133OSM   C13F14445   2.936   5.080   7.947 -0.0305  0.1508 -1.0501
  133OSM   H13F14446   2.875   5.074   8.039  1.3860 -0.8952 -0.1491
  133OSM   H13G14447   3.009   5.164   7.948  0.1261  0.0071 -0.3931
  133OSM   C14F14448   3.022   4.949   7.945 -0.8130 -0.3836 -0.6436
  133OSM   H14F14449   3.095   4.953   7.861 -0.1922  2.3830 -0.0723
  133OSM   H14G14450   2.948   4.867   7.930  0.6468 -1.5122 -2.0548
  133OSM   C15F14451   3.104   4.918   8.072 -0.1352 -0.2500  0.0748
  133OSM   H15F14452   3.045   4.907   8.165 -0.6052  0.1466 -0.1770
  133OSM   H15G14453   3.176   5.002   8.082 -1.5528  1.1558 -1.0605
  133OSM   C16F14454   3.183   4.781   8.060 -0.2062  0.3358  0.1464
  133OSM   H16F14455   3.249   4.791   7.971 -2.5874 -0.9568 -1.9052
  133OSM   H16G14456   3.113   4.700   8.032 -0.7096  0.6932  0.3460
  133OSM   C17F14457   3.261   4.751   8.189 -0.2362 -0.5393  0.0855
  133OSM   H17F14458   3.185   4.726   8.266  1.7242 -1.4928  1.8018
  133OSM   H17G14459   3.319   4.839   8.223  1.2442 -1.7760  0.8771
  133OSM   C18F14460   3.359   4.635   8.194 -0.3144  0.1361  0.7970
  133OSM   H18F14461   3.313   4.536   8.171  1.0917 -0.3582 -0.0314
  133OSM   H18G14462   3.412   4.645   8.291 -1.7004  2.7675  1.3617
  133OSM   H18H14463   3.443   4.645   8.121 -1.1270 -0.3753 -0.2280
  134OSM      N14464   3.031   2.562   6.179 -0.1218  0.0016  0.0760
  134OSM    C1514465   3.004   2.518   6.041 -0.5602  0.6650  0.2761
  134OSM   H15A14466   3.102   2.497   6.000  0.1456 -0.0290  2.1716
  134OSM   H15B14467   2.958   2.598   5.985 -0.1460  0.3729 -0.4978
  134OSM   H15C14468   2.936   2.434   6.039  1.1206 -0.8306  1.9245
  134OSM    C1414469   3.071   2.446   6.262  0.0706 -0.9261  0.0445
  134OSM   H14A14470   3.013   2.358   6.235 -0.2011 -0.4969 -0.8101
  134OSM   H14B14471   3.049   2.467   6.366  0.0126  0.0294 -0.1493
  134OSM   H14C14472   3.171   2.416   6.237 -0.0192 -1.1125 -0.1001
  134OSM    C1314473   3.147   2.656   6.162 -0.2188  0.5883  1.0063
  134OSM   H13A14474   3.240   2.604   6.143  1.0495  2.9339  0.2695
  134OSM   H13B14475   3.157   2.724   6.246  0.5765  0.0086  1.3945
  134OSM   H13C14476   3.134   2.716   6.072  4.1679 -2.4870 -2.0970
  134OSM    C1214477   2.904   2.630   6.239  0.4336  0.1909  0.2539
  134OSM   H12A14478   2.919   2.638   6.345 -1.6892 -1.6615  0.7672
  134OSM   H12B14479   2.828   2.555   6.222  1.3529 -0.7226  0.0200
  134OSM    C1114480   2.856   2.770   6.185 -0.3166 -0.0078  0.9837
  134OSM   H11A14481   2.762   2.798   6.236 -1.2423  2.0406 -1.6632
  134OSM   H11B14482   2.844   2.752   6.076  1.6047 -1.7569  0.9836
  134OSM      P14483   2.980   2.944   6.340 -0.1338 -0.0213 -0.1724
  134OSM    O1314484   3.103   3.022   6.322  0.1132  0.6012  0.2382
  134OSM    O1414485   2.860   3.015   6.388 -0.5394 -0.3888 -0.2750
  134OSM    O1114486   3.017   2.827   6.447 -0.1044 -0.6036  0.1762
  134OSM    O1214487   2.955   2.867   6.205 -0.1646  0.3592 -0.2279
  134OSM    C1S14488   3.063   2.867   6.581  0.3706  0.0764  0.1226
  134OSM    H1S14489   2.997   2.947   6.621  0.6514  0.1994  0.3381
  134OSM    H1T14490   3.164   2.911   6.569 -0.1205  1.2085 -0.0778
  134OSM     NF14491   3.059   2.802   6.831 -0.0898  0.2674 -0.2701
  134OSM    HNF14492   3.140   2.791   6.888  0.9995  2.3625 -1.3053
  134OSM    C2S14493   3.050   2.754   6.696  0.5442  0.5040 -0.1818
  134OSM    H2S14494   2.949   2.711   6.680 -0.0115  1.5697  0.3966
  134OSM    C3S14495   3.154   2.648   6.649 -0.2200  0.7090  0.0237
  134OSM    H3S14496   3.258   2.671   6.681  0.2886  1.3177 -1.9404
  134OSM     O314497   3.165   2.628   6.510 -0.3632  0.7016  0.0781
  134OSM    HO314498   3.107   2.695   6.473 -1.6117 -0.1144  0.4982
  134OSM    C4S14499   3.110   2.514   6.704 -0.2614 -0.5826  0.8063
  134OSM    H4S14500   3.006   2.490   6.680 -0.1547  0.1568 -0.4771
  134OSM    C5S14501   3.173   2.432   6.788 -0.8868 -0.1019 -0.2973
  134OSM    H5S14502   3.276   2.459   6.817 -0.1695 -2.3686 -0.6003
  134OSM    C6S14503   3.122   2.306   6.844 -0.3537  1.2121 -0.6570
  134OSM    H6S14504   3.189   2.218   6.845 -1.9738 -0.1090 -1.9343
  134OSM    H6T14505   3.032   2.276   6.785 -1.2217  0.4476  0.9966
  134OSM    C7S14506   3.068   2.333   6.986 -0.1514 -0.0454  0.0832
  134OSM    H7S14507   3.013   2.242   7.019  1.0676 -0.0763  2.2527
  134OSM    H7T14508   2.993   2.415   6.983 -0.5150 -0.3926 -1.7519
  134OSM    C8S14509   3.187   2.351   7.083  0.0917 -0.0695 -0.3810
  134OSM    H8S14510   3.246   2.443   7.062 -0.6078  0.4979  0.0719
  134OSM    H8T14511   3.262   2.270   7.077  2.3487  1.7020  1.9388
  134OSM    C9S14512   3.152   2.365   7.235 -0.9027 -0.5740  0.1850
  134OSM    H9S14513   3.075   2.292   7.268 -2.3780  0.6594 -0.4142
  134OSM    H9T14514   3.112   2.466   7.257  0.7649  0.5904 -1.7627
  134OSM   C10S14515   3.272   2.344   7.327 -0.3751  0.6667 -1.2138
  134OSM   H10S14516   3.357   2.406   7.292  0.4336  0.1261 -0.2724
  134OSM   H10T14517   3.302   2.238   7.312  4.4425  1.7780 -1.0725
  134OSM   C11S14518   3.246   2.391   7.472 -0.0666  0.4276 -0.1385
  134OSM   H11S14519   3.161   2.336   7.518  0.8676  1.3649  2.9760
  134OSM   H11T14520   3.205   2.493   7.467 -0.6705  0.1857 -0.1837
  134OSM   C12S14521   3.362   2.355   7.564  0.0976 -0.0542 -0.0020
  134OSM   H12S14522   3.458   2.386   7.517  0.2810 -0.2835  0.2132
  134OSM   H12T14523   3.349   2.245   7.573 -0.7980  0.0178 -0.3730
  134OSM   C13S14524   3.355   2.415   7.698  0.2416  0.2120 -0.7963
  134OSM   H13S14525   3.278   2.360   7.755  1.5412 -0.1954  0.6052
  134OSM   H13T14526   3.299   2.511   7.689 -1.9859 -0.8377  1.0172
  134OSM   C14S14527   3.483   2.438   7.774 -0.8001 -0.1464 -0.1519
  134OSM   H14S14528   3.549   2.504   7.715 -0.2431 -0.1729  0.4389
  134OSM   H14T14529   3.541   2.343   7.776 -0.6424 -0.0508  2.4628
  134OSM   C15S14530   3.467   2.487   7.919 -0.0104  0.3472 -0.5564
  134OSM   H15S14531   3.416   2.585   7.928 -1.0297 -0.0713 -1.4229
  134OSM   H15T14532   3.569   2.498   7.961  0.0423 -0.3628 -0.4719
  134OSM   C16S14533   3.391   2.383   8.011 -0.6481 -0.2562 -0.4070
  134OSM   H16S14534   3.445   2.293   8.046 -0.3674  1.0512  2.8587
  134OSM   H16T14535   3.288   2.364   7.973 -0.7993 -0.1705 -0.0448
  134OSM   C17S14536   3.379   2.451   8.149  0.0397 -0.4492 -0.5921
  134OSM   H17S14537   3.328   2.550   8.143 -0.4041 -0.6535 -0.2621
  134OSM   H17T14538   3.481   2.451   8.195  0.2949  0.7815 -1.1186
  134OSM   C18S14539   3.288   2.372   8.250  0.3218 -0.0533 -0.4805
  134OSM   H18S14540   3.335   2.276   8.281 -0.1838 -0.8233 -1.9705
  134OSM   H18T14541   3.190   2.353   8.202 -1.0618  0.0183  2.1138
  134OSM   H18U14542   3.274   2.435   8.341 -0.4494 -1.1864  0.2141
  134OSM    C1F14543   2.969   2.879   6.880 -0.2316 -0.4595 -0.1504
  134OSM     OF14544   2.859   2.885   6.826 -0.7477  0.0263  0.0773
  134OSM    C2F14545   3.003   2.963   6.998  0.5039  0.0972 -0.2416
  134OSM    H2F14546   3.000   3.071   6.970  1.6104  0.1511 -0.1814
  134OSM    H2G14547   3.100   2.932   7.043 -0.9632 -1.2370  2.2440
  134OSM    C3F14548   2.917   2.935   7.123  0.3336 -0.0650  0.4808
  134OSM    H3F14549   2.810   2.947   7.097  0.6193  1.6378 -0.0312
  134OSM    H3G14550   2.945   3.010   7.200  0.5229 -1.1176  1.4696
  134OSM    C4F14551   2.925   2.789   7.172 -0.0130  0.8692 -0.0453
  134OSM    H4F14552   3.033   2.762   7.171 -0.7223 -2.5112 -2.0220
  134OSM    H4G14553   2.882   2.720   7.096 -0.0064  1.3974 -0.5356
  134OSM    C5F14554   2.898   2.753   7.325  0.2499 -0.4224  0.1278
  134OSM    H5F14555   2.888   2.646   7.352 -0.3823  0.0406  1.8419
  134OSM    H5G14556   2.807   2.811   7.352 -0.9065 -1.7541 -0.7494
  134OSM    C6F14557   3.008   2.814   7.410 -0.2904 -0.3241 -0.5596
  134OSM    H6F14558   3.013   2.925   7.413  2.1597 -0.3897 -0.6840
  134OSM    H6G14559   3.104   2.769   7.378  0.2071  0.9161 -0.8892
  134OSM    C7F14560   2.980   2.774   7.562 -0.5974 -0.0714  0.1438
  134OSM    H7F14561   2.946   2.669   7.555 -0.1849 -0.2523  0.7437
  134OSM    H7G14562   2.899   2.836   7.608 -0.2499 -0.4503  1.2972
  134OSM    C8F14563   3.109   2.772   7.647  0.2040  0.5643  0.6009
  134OSM    H8F14564   3.146   2.876   7.655  0.3005  0.6968 -1.0693
  134OSM    H8G14565   3.181   2.716   7.583 -0.9324 -0.6712  0.3520
  134OSM    C9F14566   3.085   2.700   7.777  0.4388  0.2382  0.1114
  134OSM    H9F14567   3.095   2.591   7.784  1.0615  0.3218  0.6113
  134OSM   C10F14568   3.051   2.757   7.895 -0.6337  0.0666 -0.2799
  134OSM   H10F14569   3.050   2.699   7.989 -1.5885 -0.2866 -0.4931
  134OSM   C11F14570   3.028   2.900   7.920 -0.8305  0.0266 -0.0901
  134OSM   H11F14571   2.951   2.896   8.000 -2.1267 -0.0787 -1.2890
  134OSM   H11G14572   2.983   2.950   7.831 -1.8982  0.5655  0.7277
  134OSM   C12F14573   3.154   2.965   7.971  0.1058 -0.0382 -0.1083
  134OSM   H12F14574   3.126   3.065   8.011  0.3276 -0.2249  0.5209
  134OSM   H12G14575   3.220   2.998   7.887 -0.2922  0.8996 -0.0620
  134OSM   C13F14576   3.231   2.887   8.075  0.3445  0.5477  0.3244
  134OSM   H13F14577   3.287   2.810   8.018 -0.3365 -0.8104  1.4243
  134OSM   H13G14578   3.155   2.841   8.142  2.2752 -0.9679  1.6038
  134OSM   C14F14579   3.332   2.971   8.154  0.2343  0.2265  0.9014
  134OSM   H14F14580   3.280   3.054   8.206  2.3388  1.6462  0.8744
  134OSM   H14G14581   3.401   3.016   8.079 -0.8939  0.6260  0.0747
  134OSM   C15F14582   3.413   2.898   8.261 -0.3521 -0.4583 -0.5339
  134OSM   H15F14583   3.489   2.974   8.288 -0.0467 -0.7443 -0.5805
  134OSM   H15G14584   3.469   2.814   8.214 -2.0771 -1.2949 -1.2144
  134OSM   C16F14585   3.342   2.849   8.393  0.1756  0.6166  0.1987
  134OSM   H16F14586   3.260   2.778   8.371  1.0383 -0.4867  0.4440
  134OSM   H16G14587   3.283   2.936   8.430 -1.0267  0.0534 -0.3621
  134OSM   C17F14588   3.437   2.802   8.501 -1.2315  0.9394  0.4365
  134OSM   H17F14589   3.378   2.792   8.595  0.7436 -0.6252  1.5932
  134OSM   H17G14590   3.527   2.866   8.508  1.0233 -1.9493 -0.2056
  134OSM   C18F14591   3.498   2.660   8.484 -0.9603  0.2731 -0.3258
  134OSM   H18F14592   3.577   2.653   8.407  1.3391  0.9400  1.8446
  134OSM   H18G14593   3.409   2.604   8.447 -0.0207  0.0842 -2.4159
  134OSM   H18H14594   3.536   2.616   8.578 -1.1779  2.0353  0.6215
  135OSM      N14595   2.162   2.498   6.144  0.3659 -0.2780  0.7780
  135OSM    C1514596   2.232   2.379   6.188  0.1202  0.4085  0.0761
  135OSM   H15A14597   2.171   2.323   6.258 -1.1440  0.0440 -1.2553
  135OSM   H15B14598   2.328   2.406   6.227 -0.3603  2.1299  0.1408
  135OSM   H15C14599   2.255   2.318   6.102 -0.7857  1.9696 -1.3461
  135OSM    C1414600   2.238   2.573   6.043 -0.3018 -0.2972 -0.5740
  135OSM   H14A14601   2.194   2.665   6.008  1.2059 -0.0335 -1.9026
  135OSM   H14B14602   2.243   2.514   5.952  0.4934 -0.8865 -0.1641
  135OSM   H14C14603   2.340   2.595   6.072 -0.7824  0.0904  0.8928
  135OSM    C1314604   2.035   2.460   6.073  0.6934 -0.0566 -0.3295
  135OSM   H13A14605   1.963   2.406   6.132  0.4834  0.1218 -0.4212
  135OSM   H13B14606   2.050   2.394   5.989 -1.9119 -2.6617  1.0592
  135OSM   H13C14607   1.980   2.546   6.038  1.7096  0.4802 -0.6411
  135OSM    C1214608   2.124   2.586   6.261  0.8914  0.8994 -0.2155
  135OSM   H12A14609   2.064   2.525   6.326 -0.0655  0.1065 -1.7731
  135OSM   H12B14610   2.064   2.669   6.226 -0.8283 -0.8484 -1.6187
  135OSM    C1114611   2.240   2.651   6.331  0.3004 -0.1483 -0.2072
  135OSM   H11A14612   2.303   2.574   6.380  2.0826 -0.2181 -2.4353
  135OSM   H11B14613   2.194   2.711   6.412 -1.4353  0.0482 -1.2779
  135OSM      P14614   2.463   2.776   6.253 -0.0150  0.0025  0.4362
  135OSM    O1314615   2.536   2.690   6.156  0.2768  0.0211  0.1142
  135OSM    O1414616   2.483   2.922   6.253 -0.0084 -0.4563  0.3690
  135OSM    O1114617   2.487   2.725   6.400 -0.3061  0.1530  0.1171
  135OSM    O1214618   2.313   2.746   6.245  0.6005 -0.4085  0.2903
  135OSM    C1S14619   2.588   2.787   6.479  0.1017 -0.3719  0.1818
  135OSM    H1S14620   2.637   2.880   6.441  0.2172  0.2663  1.7930
  135OSM    H1T14621   2.669   2.713   6.498 -0.5120 -0.8048  1.1997
  135OSM     NF14622   2.617   2.917   6.676 -0.7375 -1.1488  0.0592
  135OSM    HNF14623   2.694   2.893   6.735 -0.3060  1.2984  0.6141
  135OSM    C2S14624   2.532   2.816   6.617  0.5510  0.1241 -0.0438
  135OSM    H2S14625   2.427   2.851   6.607  0.3775  0.0445  1.3177
  135OSM    C3S14626   2.522   2.685   6.699 -0.6120 -0.0244 -0.3163
  135OSM    H3S14627   2.625   2.647   6.714  0.8894  3.3930 -0.8436
  135OSM     O314628   2.448   2.588   6.628  0.6324  0.0257  0.1095
  135OSM    HO314629   2.443   2.624   6.539 -1.6400 -0.1505  0.0976
  135OSM    C4S14630   2.461   2.701   6.828 -0.0271  0.8737  0.1762
  135OSM    H4S14631   2.354   2.723   6.822 -0.9184 -2.3018  1.8957
  135OSM    C5S14632   2.517   2.690   6.952  0.2090  0.0471  0.5016
  135OSM    H5S14633   2.624   2.664   6.959 -0.5372 -3.3810  0.8832
  135OSM    C6S14634   2.441   2.708   7.083  0.6186  0.3062 -0.0295
  135OSM    H6S14635   2.435   2.607   7.130 -1.0058 -0.6677 -2.1799
  135OSM    H6T14636   2.333   2.731   7.072  0.1044 -1.1796  1.4617
  135OSM    C7S14637   2.503   2.813   7.172 -0.4310 -0.0991 -0.0118
  135OSM    H7S14638   2.498   2.911   7.120 -0.2185  1.0738  2.0492
  135OSM    H7T14639   2.611   2.788   7.177 -0.4052 -0.3662 -1.4477
  135OSM    C8S14640   2.453   2.830   7.314 -0.1192  0.4961  0.4274
  135OSM    H8S14641   2.345   2.855   7.310 -0.3105 -0.4606 -1.0870
  135OSM    H8T14642   2.516   2.903   7.369  0.8060 -0.0230  0.0743
  135OSM    C9S14643   2.461   2.698   7.395  0.2300  0.2258 -0.3813
  135OSM    H9S14644   2.565   2.663   7.379  1.1839  2.4320  0.6849
  135OSM    H9T14645   2.391   2.628   7.344  1.4261 -1.3149  0.0189
  135OSM   C10S14646   2.431   2.713   7.546  0.4756  0.2891  0.3268
  135OSM   H10S14647   2.401   2.609   7.571 -0.6959 -0.5521 -3.7909
  135OSM   H10T14648   2.348   2.784   7.563  1.1345  1.1711 -0.0570
  135OSM   C11S14649   2.546   2.763   7.638  0.3302 -0.6419 -0.6472
  135OSM   H11S14650   2.639   2.717   7.598 -0.0373 -0.6694 -1.5060
  135OSM   H11T14651   2.528   2.719   7.738  2.1369 -0.8828 -0.3935
  135OSM   C12S14652   2.553   2.918   7.648  0.6418  0.6626 -0.2151
  135OSM   H12S14653   2.446   2.946   7.656  0.0321  0.1533 -4.1158
  135OSM   H12T14654   2.589   2.965   7.554  1.4710  1.2986  0.4154
  135OSM   C13S14655   2.634   2.979   7.767  0.0148 -0.1302  0.7486
  135OSM   H13S14656   2.632   3.087   7.740 -0.5902  0.0900  1.6370
  135OSM   H13T14657   2.742   2.953   7.779 -0.0725  0.0116  1.8703
  135OSM   C14S14658   2.560   2.965   7.902 -0.2451 -0.4133  0.2655
  135OSM   H14S14659   2.573   2.858   7.932  2.1373 -0.4972 -0.8209
  135OSM   H14T14660   2.455   3.000   7.892 -1.4544 -2.6127  3.3481
  135OSM   C15S14661   2.633   3.045   8.004 -0.3238 -0.4120  0.1593
  135OSM   H15S14662   2.645   3.153   7.981  1.1084 -0.7331 -0.7837
  135OSM   H15T14663   2.741   3.024   8.023 -0.4314 -0.2718  0.9467
  135OSM   C16S14664   2.564   3.036   8.144  0.7050 -0.1311  0.8965
  135OSM   H16S14665   2.626   3.099   8.212  2.3308  0.3926 -0.9733
  135OSM   H16T14666   2.565   2.931   8.179  0.7983 -1.2719 -2.2269
  135OSM   C17S14667   2.420   3.095   8.151 -0.1793 -0.0344 -0.1341
  135OSM   H17S14668   2.342   3.028   8.109 -0.1452 -0.8409  1.0444
  135OSM   H17T14669   2.426   3.191   8.096 -2.3543 -1.0598 -2.3180
  135OSM   C18S14670   2.389   3.113   8.302  0.0262 -0.1985  0.4809
  135OSM   H18S14671   2.425   3.019   8.349 -0.2696 -1.6097 -1.9356
  135OSM   H18T14672   2.280   3.124   8.319 -0.0707 -0.2515 -0.0675
  135OSM   H18U14673   2.448   3.195   8.349 -1.6863 -0.1931  2.8015
  135OSM    C1F14674   2.608   3.045   6.640  0.3373 -0.4908  0.1932
  135OSM     OF14675   2.523   3.083   6.562  0.3019 -0.0355  0.1961
  135OSM    C2F14676   2.709   3.147   6.705 -0.0323  0.3653  0.2533
  135OSM    H2F14677   2.691   3.239   6.646 -0.9908  1.1230  1.6523
  135OSM    H2G14678   2.811   3.110   6.685 -0.1245 -0.1632  0.7213
  135OSM    C3F14679   2.676   3.164   6.856 -0.0563  0.2612  0.6910
  135OSM    H3F14680   2.711   3.074   6.910  0.7744 -0.3286 -0.7607
  135OSM    H3G14681   2.570   3.194   6.871  0.3447  1.5077  1.1455
  135OSM    C4F14682   2.765   3.277   6.914  0.2492  0.1544  0.0057
  135OSM    H4F14683   2.797   3.349   6.836  0.6374 -1.2429 -1.1716
  135OSM    H4G14684   2.865   3.236   6.941  0.0005 -0.9931 -0.7480
  135OSM    C5F14685   2.714   3.346   7.039 -0.3935  0.4003 -0.2753
  135OSM    H5F14686   2.612   3.389   7.034 -0.6597  0.1245  1.9888
  135OSM    H5G14687   2.786   3.426   7.067 -1.3430  0.7294  1.3088
  135OSM    C6F14688   2.710   3.246   7.164 -0.3989  0.3452 -0.2569
  135OSM    H6F14689   2.767   3.152   7.152 -0.2266  0.3354  0.5882
  135OSM    H6G14690   2.603   3.220   7.175 -0.3556 -1.2333 -2.7201
  135OSM    C7F14691   2.765   3.318   7.291  0.1716  0.1344  0.2733
  135OSM    H7F14692   2.869   3.345   7.262  0.0127 -1.0230 -1.5900
  135OSM    H7G14693   2.765   3.243   7.373 -2.4621 -0.3767 -0.1147
  135OSM    C8F14694   2.686   3.445   7.324  0.3599  0.7781  0.0096
  135OSM    H8F14695   2.686   3.510   7.234 -0.7747 -0.8249 -1.2226
  135OSM    H8G14696   2.749   3.479   7.409 -0.1378 -1.5613  1.4075
  135OSM    C9F14697   2.544   3.421   7.362  0.1664 -0.8117  0.1672
  135OSM    H9F14698   2.473   3.378   7.289 -0.2387  0.8419 -0.4449
  135OSM   C10F14699   2.489   3.419   7.484 -0.9235 -0.1413  0.2942
  135OSM   H10F14700   2.379   3.422   7.487 -0.8777  1.4168  1.3414
  135OSM   C11F14701   2.561   3.437   7.608  0.1093  0.0909 -0.4670
  135OSM   H11F14702   2.663   3.481   7.603 -0.2795  1.7946  3.0725
  135OSM   H11G14703   2.562   3.342   7.667 -0.3544 -0.1096 -0.7808
  135OSM   C12F14704   2.492   3.532   7.706  0.3578  0.6401  1.1801
  135OSM   H12F14705   2.385   3.501   7.714  0.5967 -0.4195  0.4122
  135OSM   H12G14706   2.487   3.632   7.656  0.0605 -0.4849 -1.1783
  135OSM   C13F14707   2.550   3.524   7.845  0.5176 -0.4937  0.7934
  135OSM   H13F14708   2.656   3.553   7.828 -0.0786  0.0911 -2.5212
  135OSM   H13G14709   2.551   3.417   7.875  1.9184 -1.1084 -1.2686
  135OSM   C14F14710   2.485   3.601   7.959  0.7905  0.3549 -0.0557
  135OSM   H14F14711   2.418   3.679   7.918 -2.0429 -0.9205  1.8602
  135OSM   H14G14712   2.564   3.649   8.022  1.5950 -1.9920  0.8569
  135OSM   C15F14713   2.410   3.508   8.060  0.1499 -0.1198  0.1167
  135OSM   H15F14714   2.469   3.416   8.079 -0.9286 -0.8825 -0.0962
  135OSM   H15G14715   2.312   3.472   8.022 -0.7240  0.3653  1.7855
  135OSM   C16F14716   2.371   3.558   8.204 -0.0339 -0.0501  0.6316
  135OSM   H16F14717   2.313   3.472   8.242  0.8826 -0.4975  1.0722
  135OSM   H16G14718   2.305   3.645   8.185 -1.6379 -1.7015 -1.8857
  135OSM   C17F14719   2.490   3.577   8.297  0.1097 -0.1144 -0.4058
  135OSM   H17F14720   2.569   3.646   8.260  2.5727 -2.2940  0.4598
  135OSM   H17G14721   2.541   3.479   8.280 -0.2632 -0.1443 -1.4346
  135OSM   C18F14722   2.452   3.607   8.441  0.0878  0.0735 -0.3896
  135OSM   H18F14723   2.478   3.711   8.470 -0.3645 -0.0169  0.3761
  135OSM   H18G14724   2.516   3.537   8.499  0.8616 -1.1361 -2.5888
  135OSM   H18H14725   2.349   3.577   8.471 -0.1725  0.5688 -0.7660
  136OSM      N14726   0.856   2.511   5.599  0.1771 -0.0774  0.1305
  136OSM    C1514727   0.811   2.555   5.458 -0.5140  0.0605 -0.0550
  136OSM   H15A14728   0.703   2.557   5.456 -0.5475 -1.0586 -2.1485
  136OSM   H15B14729   0.860   2.495   5.383  1.5347 -0.3049  1.4660
  136OSM   H15C14730   0.836   2.659   5.440 -1.1771  0.3392  0.6119
  136OSM    C1414731   0.800   2.612   5.691 -0.0695 -1.1080 -0.7439
  136OSM   H14A14732   0.706   2.656   5.662  0.7198  1.6013  0.4535
  136OSM   H14B14733   0.867   2.696   5.706  0.7128 -1.9063  0.4628
  136OSM   H14C14734   0.776   2.573   5.789 -0.3252  0.8516  0.0126
  136OSM    C1314735   0.808   2.382   5.636  0.1493  0.0993 -0.1745
  136OSM   H13A14736   0.833   2.356   5.738 -0.2832 -1.1400 -0.3719
  136OSM   H13B14737   0.835   2.301   5.570  1.0084 -0.2038  0.5320
  136OSM   H13C14738   0.701   2.387   5.653  0.6024  2.3226  3.1276
  136OSM    C1214739   1.014   2.520   5.600 -0.1128  0.0736 -0.5552
  136OSM   H12A14740   1.048   2.621   5.583  1.4644 -0.3331  0.0222
  136OSM   H12B14741   1.058   2.466   5.519 -1.3782 -1.5416 -0.2278
  136OSM    C1114742   1.085   2.471   5.730  0.5371 -0.8823  0.0741
  136OSM   H11A14743   1.193   2.475   5.706  0.2929  2.3358 -0.8151
  136OSM   H11B14744   1.050   2.368   5.757 -0.4833 -0.8527 -1.0536
  136OSM      P14745   1.127   2.712   5.841  0.0478 -0.3218  0.4624
  136OSM    O1314746   1.238   2.707   5.931 -0.4488  0.1042 -0.1981
  136OSM    O1414747   1.153   2.771   5.705 -0.2557  0.0694 -0.6155
  136OSM    O1114748   1.016   2.800   5.904  0.0121 -0.6268 -0.4154
  136OSM    O1214749   1.058   2.569   5.838 -0.4089  0.1874  0.1402
  136OSM    C1S14750   0.952   2.764   6.027  0.2835 -0.1093 -0.2465
  136OSM    H1S14751   0.972   2.659   6.057  1.4122 -0.1849 -1.1546
  136OSM    H1T14752   0.842   2.757   6.017  0.3112 -2.6863  0.5806
  136OSM     NF14753   0.955   2.798   6.256  0.9136 -0.4973  0.5065
  136OSM    HNF14754   0.882   2.839   6.310 -0.3566 -0.9798 -0.7795
  136OSM    C2S14755   0.985   2.865   6.134  0.3524 -0.3175  0.4787
  136OSM    H2S14756   1.094   2.886   6.125  0.1634  1.0034  1.0659
  136OSM    C3S14757   0.916   2.998   6.104 -0.5505 -0.4977 -0.0629
  136OSM    H3S14758   0.807   2.991   6.126 -0.7029  2.1880  0.4256
  136OSM     O314759   0.935   3.059   5.975  0.4452  0.2644 -0.6506
  136OSM    HO314760   0.984   2.991   5.928  0.1644 -0.9244  0.7028
  136OSM    C4S14761   0.945   3.102   6.208  0.3243 -0.5272 -0.0528
  136OSM    H4S14762   1.053   3.105   6.226  0.4755 -0.6393 -0.9004
  136OSM    C5S14763   0.861   3.162   6.290  0.2381 -0.9336 -0.1310
  136OSM    H5S14764   0.753   3.144   6.296  0.0286  0.3264  0.2963
  136OSM    C6S14765   0.903   3.261   6.401  0.0245  0.2417  0.7622
  136OSM    H6S14766   0.919   3.194   6.488 -0.9134 -0.4384  0.4248
  136OSM    H6T14767   0.819   3.328   6.430  0.1428  1.2078 -0.9613
  136OSM    C7S14768   1.027   3.355   6.378 -0.4176  0.3397 -0.0333
  136OSM    H7S14769   1.007   3.401   6.279 -2.0719 -1.8254 -0.7663
  136OSM    H7T14770   1.120   3.294   6.371 -0.9529 -0.3224 -1.7457
  136OSM    C8S14771   1.038   3.466   6.482 -0.1804 -0.1920  0.8577
  136OSM    H8S14772   0.932   3.483   6.511 -1.1012  2.3838 -3.2200
  136OSM    H8T14773   1.072   3.562   6.439  0.2922 -0.3548  0.8613
  136OSM    C9S14774   1.122   3.425   6.599  0.0372 -0.8278 -0.4575
  136OSM    H9S14775   1.226   3.399   6.572 -0.1681  0.2957 -2.6054
  136OSM    H9T14776   1.073   3.330   6.626  0.7521 -1.6120 -1.8210
  136OSM   C10S14777   1.119   3.519   6.721  0.3879 -1.0440  0.1429
  136OSM   H10S14778   1.017   3.552   6.750  1.4298  0.4168  2.4744
  136OSM   H10T14779   1.179   3.607   6.689  0.7044 -1.3874 -0.2241
  136OSM   C11S14780   1.186   3.457   6.845  0.0271 -0.3773  0.2879
  136OSM   H11S14781   1.294   3.453   6.818  0.8176  0.3252  3.0229
  136OSM   H11T14782   1.156   3.352   6.867 -0.7852 -0.0895  0.6170
  136OSM   C12S14783   1.158   3.548   6.968  0.2073 -0.5720  0.3558
  136OSM   H12S14784   1.054   3.586   6.979  0.0081 -1.5132  2.0678
  136OSM   H12T14785   1.223   3.637   6.958  0.9759 -1.3159 -1.9238
  136OSM   C13S14786   1.201   3.473   7.092  0.2813 -0.6708 -0.3968
  136OSM   H13S14787   1.290   3.414   7.062  1.2993  0.4075  0.4025
  136OSM   H13T14788   1.132   3.392   7.124 -2.3247  2.1359  1.7284
  136OSM   C14S14789   1.231   3.567   7.213 -0.8419  0.1833  0.3815
  136OSM   H14S14790   1.179   3.664   7.207  0.3862  0.7693 -2.7423
  136OSM   H14T14791   1.338   3.593   7.200 -1.2390  0.8104 -2.1236
  136OSM   C15S14792   1.185   3.514   7.348 -0.0912  0.2540 -0.6201
  136OSM   H15S14793   1.220   3.409   7.359  1.3433  0.4951 -2.3945
  136OSM   H15T14794   1.074   3.512   7.356 -0.0249  2.4977  3.1796
  136OSM   C16S14795   1.236   3.594   7.473 -0.0883  0.3106 -0.9233
  136OSM   H16S14796   1.213   3.701   7.454 -0.6375  0.4958  0.6433
  136OSM   H16T14797   1.343   3.577   7.498  0.0647  2.3374 -0.0252
  136OSM   C17S14798   1.158   3.550   7.600  0.8545 -0.1979  0.1060
  136OSM   H17S14799   1.050   3.525   7.584  1.0126 -1.7871  1.2406
  136OSM   H17T14800   1.160   3.635   7.671  0.2442 -0.1600  0.0889
  136OSM   C18S14801   1.225   3.422   7.666  0.7083  0.1729 -0.1219
  136OSM   H18S14802   1.186   3.335   7.608  0.2294  0.5960 -0.4426
  136OSM   H18T14803   1.196   3.425   7.773  0.6339  1.9683 -0.1578
  136OSM   H18U14804   1.336   3.414   7.665  0.8256  1.2404  1.2502
  136OSM    C1F14805   1.014   2.687   6.306  0.3495 -0.1188 -0.3142
  136OSM     OF14806   1.107   2.640   6.249  0.1028 -0.4016  0.3025
  136OSM    C2F14807   0.951   2.630   6.427  0.1356 -0.1462 -0.2904
  136OSM    H2F14808   0.974   2.522   6.441 -0.6185 -0.4697 -1.4050
  136OSM    H2G14809   0.841   2.636   6.410 -0.0118 -0.5439  0.4819
  136OSM    C3F14810   1.007   2.703   6.554  0.1506 -0.0704  0.2286
  136OSM    H3F14811   0.999   2.813   6.539 -1.4224 -0.1622  0.2690
  136OSM    H3G14812   1.117   2.688   6.563  0.0792 -1.3625 -0.6892
  136OSM    C4F14813   0.945   2.666   6.689  0.7262 -0.1098  0.2537
  136OSM    H4F14814   0.960   2.556   6.698 -0.8289 -0.4408 -0.7369
  136OSM    H4G14815   0.839   2.701   6.690  0.9731  0.6772 -0.3579
  136OSM    C5F14816   1.006   2.728   6.818 -0.3451  0.0686  0.3324
  136OSM    H5F14817   0.971   2.834   6.826  0.5241  0.3147  1.1023
  136OSM    H5G14818   1.117   2.733   6.807 -0.4100  2.3823  0.0847
  136OSM    C6F14819   0.974   2.639   6.944 -0.1219  0.0644  0.0532
  136OSM    H6F14820   1.009   2.540   6.909  2.5815  1.5397 -1.8122
  136OSM    H6G14821   0.864   2.645   6.955 -0.4963  2.2882 -3.3922
  136OSM    C7F14822   1.052   2.697   7.059  0.6476  0.4486 -0.0208
  136OSM    H7F14823   1.002   2.787   7.101 -0.8730 -1.4366  2.5033
  136OSM    H7G14824   1.155   2.714   7.021  1.8136 -3.1998  1.0850
  136OSM    C8F14825   1.055   2.593   7.175 -0.1501  0.1326  1.0250
  136OSM    H8F14826   1.114   2.510   7.131 -2.6229 -0.7382 -0.9298
  136OSM    H8G14827   0.949   2.560   7.166 -0.3897  1.0897  0.1030
  136OSM    C9F14828   1.100   2.642   7.307  0.6228  0.1111 -0.3516
  136OSM    H9F14829   1.209   2.658   7.318  0.8092  0.0934 -1.9450
  136OSM   C10F14830   1.023   2.674   7.413 -0.6569 -0.7861 -0.0994
  136OSM   H10F14831   1.076   2.689   7.508 -2.3438  1.2561  0.5805
  136OSM   C11F14832   0.875   2.668   7.430  0.6162 -0.1164  0.8075
  136OSM   H11F14833   0.818   2.684   7.336  1.9195 -1.5597 -0.2704
  136OSM   H11G14834   0.837   2.759   7.481  0.0871  1.3831 -2.0294
  136OSM   C12F14835   0.841   2.540   7.505  0.4216 -0.0046  0.1091
  136OSM   H12F14836   0.883   2.451   7.452 -0.6711 -0.4040 -0.1168
  136OSM   H12G14837   0.732   2.518   7.510  0.6370 -1.6977 -1.4079
  136OSM   C13F14838   0.898   2.545   7.645  0.2144 -0.1480  0.1684
  136OSM   H13F14839   1.008   2.549   7.654  0.3530 -0.5159 -1.2020
  136OSM   H13G14840   0.869   2.453   7.700 -0.1305 -0.1710 -0.0492
  136OSM   C14F14841   0.832   2.658   7.729 -0.1773 -0.2455 -0.6154
  136OSM   H14F14842   0.723   2.664   7.708 -0.0223  2.2571 -0.9791
  136OSM   H14G14843   0.870   2.753   7.687 -4.3477  2.1212  0.3421
  136OSM   C15F14844   0.855   2.645   7.880 -0.1417 -0.5847 -1.1439
  136OSM   H15F14845   0.828   2.748   7.909  3.1625  0.2647 -0.7641
  136OSM   H15G14846   0.962   2.622   7.897 -1.0019 -4.5554 -0.0122
  136OSM   C16F14847   0.761   2.533   7.949  0.6305 -0.4577 -0.2147
  136OSM   H16F14848   0.788   2.555   8.054  1.3081 -0.9436 -0.2790
  136OSM   H16G14849   0.790   2.427   7.933  0.3272 -0.6291  0.3160
  136OSM   C17F14850   0.613   2.541   7.932  0.9553 -0.0188 -0.7492
  136OSM   H17F14851   0.587   2.526   7.825 -1.5526  0.2492 -0.2513
  136OSM   H17G14852   0.569   2.642   7.948  0.4555 -0.2276 -0.7964
  136OSM   C18F14853   0.534   2.431   8.012  0.8889 -0.7752 -0.2409
  136OSM   H18F14854   0.521   2.339   7.952 -1.5768 -1.6840  1.5330
  136OSM   H18G14855   0.430   2.464   8.034  0.9277  0.1978 -1.4422
  136OSM   H18H14856   0.587   2.410   8.107 -0.5107 -0.1221  0.7382
  137OSM      N14857   3.961   1.507   6.239  0.0958 -0.2737  0.4791
  137OSM    C1514858   4.048   1.406   6.309 -0.1884 -0.1955 -0.0641
  137OSM   H15A14859   4.093   1.440   6.401  1.3129 -2.9607  0.3412
  137OSM   H15B14860   4.131   1.380   6.245  0.6630  0.2035  0.8697
  137OSM   H15C14861   3.998   1.311   6.326 -0.8172  0.3431  1.2514
  137OSM    C1414862   3.942   1.450   6.100 -0.3256  0.7403 -0.5964
  137OSM   H14A14863   4.037   1.452   6.047  0.2188  2.8714  0.3380
  137OSM   H14B14864   3.869   1.506   6.044 -0.1108  0.2659 -1.3717
  137OSM   H14C14865   3.892   1.355   6.102 -0.1345  0.6232 -1.1023
  137OSM    C1314866   3.825   1.505   6.306 -0.2615  0.4568 -0.0717
  137OSM   H13A14867   3.762   1.581   6.262 -0.3165  0.5064  0.0933
  137OSM   H13B14868   3.842   1.526   6.410  0.5079 -3.2812  0.7135
  137OSM   H13C14869   3.780   1.407   6.300 -1.3665  1.0405 -2.3757
  137OSM    C1214870   4.034   1.636   6.233  0.2920 -0.7343  0.4071
  137OSM   H12A14871   4.135   1.621   6.197 -0.6714 -1.9653 -2.0086
  137OSM   H12B14872   4.043   1.685   6.329 -1.1236  2.1263 -0.7841
  137OSM    C1114873   3.967   1.751   6.149  0.1550 -0.4331 -0.0060
  137OSM   H11A14874   3.964   1.716   6.043  0.7871 -0.7277  0.0687
  137OSM   H11B14875   4.026   1.845   6.156  1.5409 -1.1682 -1.1916
  137OSM      P14876   3.797   1.870   6.300  0.1532  0.2447  0.4113
  137OSM    O1314877   3.834   2.009   6.253  0.3486  0.2134 -0.4488
  137OSM    O1414878   3.662   1.848   6.363 -0.2278  1.0671  0.9476
  137OSM    O1114879   3.908   1.831   6.407  0.2710  0.3222  0.1981
  137OSM    O1214880   3.828   1.768   6.192 -0.3510  0.1054 -0.7582
  137OSM    C1S14881   3.949   1.924   6.502 -0.7073 -0.5507  0.2399
  137OSM    H1S14882   3.885   2.014   6.509 -0.5354 -0.4144  0.0900
  137OSM    H1T14883   4.044   1.974   6.473 -0.2501 -0.5163  1.7224
  137OSM     NF14884   4.007   1.970   6.730  0.0518  0.6337  0.3318
  137OSM    HNF14885   4.098   2.011   6.724  0.1452  0.5186 -6.0081
  137OSM    C2S14886   3.973   1.857   6.647 -0.1957 -0.2437 -0.5873
  137OSM    H2S14887   3.878   1.815   6.684 -3.0901  2.1469 -4.5211
  137OSM    C3S14888   4.087   1.757   6.649 -1.0088  0.3388  0.7164
  137OSM    H3S14889   4.165   1.817   6.597  0.7513 -1.5235  1.0605
  137OSM     O314890   4.064   1.647   6.554 -0.0464  0.1051 -0.4468
  137OSM    HO314891   3.980   1.665   6.510 -1.6056 -1.7237  1.5828
  137OSM    C4S14892   4.137   1.702   6.787  0.1211  0.2566 -0.3764
  137OSM    H4S14893   4.224   1.759   6.825  1.0693 -0.2963 -1.6170
  137OSM    C5S14894   4.101   1.606   6.867 -0.1304  0.1936  0.4585
  137OSM    H5S14895   4.016   1.541   6.842 -0.9127  1.4975 -0.3669
  137OSM    C6S14896   4.170   1.565   6.991 -0.7421 -0.3073  0.0634
  137OSM    H6S14897   4.243   1.483   6.972  1.5816  1.1753  1.9047
  137OSM    H6T14898   4.085   1.515   7.042 -0.2748 -0.2122  0.9560
  137OSM    C7S14899   4.225   1.671   7.089  0.2447  0.3544  0.8490
  137OSM    H7S14900   4.159   1.760   7.082  0.3163  0.4269  1.0768
  137OSM    H7T14901   4.329   1.695   7.057 -0.7447 -1.2192 -4.5366
  137OSM    C8S14902   4.212   1.625   7.233  0.3686 -0.0523  0.2975
  137OSM    H8S14903   4.115   1.574   7.253  0.7104 -1.1774 -0.7873
  137OSM    H8T14904   4.223   1.716   7.295  0.3364 -0.7456  1.3568
  137OSM    C9S14905   4.323   1.533   7.281  0.0269  0.0839 -0.4104
  137OSM    H9S14906   4.417   1.591   7.294  0.4293 -1.2196  4.9281
  137OSM    H9T14907   4.344   1.450   7.211 -0.4387  0.7994 -1.4237
  137OSM   C10S14908   4.304   1.478   7.425  0.3407  0.5617  0.5218
  137OSM   H10S14909   4.400   1.435   7.462  0.6261  2.0255  1.5924
  137OSM   H10T14910   4.215   1.412   7.416 -0.3252  1.2856  1.6149
  137OSM   C11S14911   4.274   1.577   7.529 -0.4365  0.0592 -0.5114
  137OSM   H11S14912   4.176   1.626   7.509  0.4431  1.2524 -2.0775
  137OSM   H11T14913   4.354   1.651   7.550  0.2026 -0.8418  0.3428
  137OSM   C12S14914   4.249   1.514   7.675 -0.2803 -0.7226  0.4835
  137OSM   H12S14915   4.329   1.445   7.710 -1.0520 -2.1600 -0.4659
  137OSM   H12T14916   4.166   1.443   7.653 -0.8063  0.0459 -0.0256
  137OSM   C13S14917   4.194   1.616   7.771  0.1929 -1.2866  0.2133
  137OSM   H13S14918   4.102   1.665   7.734  0.1328 -0.5386  1.3048
  137OSM   H13T14919   4.265   1.700   7.782 -2.8540  1.5775 -0.3970
  137OSM   C14S14920   4.156   1.565   7.910  0.7986 -0.8695  0.3223
  137OSM   H14S14921   4.142   1.657   7.970 -2.1783  0.7689 -2.5303
  137OSM   H14T14922   4.239   1.506   7.955  0.6332  0.0287  1.8694
  137OSM   C15S14923   4.025   1.470   7.925 -0.3112 -0.2075 -0.8331
  137OSM   H15S14924   4.056   1.391   7.854  0.8051 -1.2551  0.7445
  137OSM   H15T14925   3.938   1.530   7.890  1.3673  1.5074 -2.2844
  137OSM   C16S14926   4.011   1.415   8.066 -0.4598 -0.0791 -0.3544
  137OSM   H16S14927   4.094   1.351   8.102 -1.1712 -0.1525  1.2246
  137OSM   H16T14928   3.920   1.351   8.070  0.7280 -1.8721 -0.5388
  137OSM   C17S14929   3.974   1.526   8.177 -0.4847  0.5431  0.2109
  137OSM   H17S14930   3.871   1.560   8.155 -0.9554 -0.8458  0.1789
  137OSM   H17T14931   4.034   1.619   8.173 -2.6553  2.0425  0.7291
  137OSM   C18S14932   3.986   1.476   8.327  0.6150  0.3330 -0.0491
  137OSM   H18S14933   3.906   1.399   8.334  1.5534 -0.8188 -1.5323
  137OSM   H18T14934   3.959   1.557   8.399 -1.7108 -2.2730  2.2568
  137OSM   H18U14935   4.079   1.426   8.361 -1.0241 -0.7428  3.2412
  137OSM    C1F14936   3.915   2.051   6.781  0.0024 -0.2809  0.6444
  137OSM     OF14937   3.800   2.056   6.750  0.3504 -0.4053 -0.2933
  137OSM    C2F14938   3.960   2.154   6.882  0.1406  0.2802 -0.1538
  137OSM    H2F14939   3.868   2.196   6.928  1.1370  0.4476  1.8054
  137OSM    H2G14940   4.012   2.244   6.843  0.8226  1.2592  2.7530
  137OSM    C3F14941   4.048   2.090   6.992  0.3135  0.8263  0.5605
  137OSM    H3F14942   4.080   2.184   7.042 -3.3922  2.3587  0.3239
  137OSM    H3G14943   4.136   2.044   6.941  1.4958  2.6723  0.8353
  137OSM    C4F14944   3.980   1.987   7.084 -0.1034 -0.5479 -0.1930
  137OSM    H4F14945   3.979   1.887   7.036 -0.7877  0.3580 -2.1500
  137OSM    H4G14946   3.877   2.027   7.098 -0.6531 -1.3362 -1.7380
  137OSM    C5F14947   4.046   1.978   7.227 -0.2121 -0.6229  0.7785
  137OSM    H5F14948   4.149   1.937   7.222  0.5250  1.1923  0.2033
  137OSM    H5G14949   3.981   1.905   7.280 -1.2099 -0.8650 -0.7193
  137OSM    C6F14950   4.046   2.111   7.305 -0.5526 -0.0397 -0.5681
  137OSM    H6F14951   3.945   2.144   7.339  0.7697  3.1732  0.5968
  137OSM    H6G14952   4.082   2.188   7.233  1.7980  0.4814  1.0674
  137OSM    C7F14953   4.139   2.106   7.424 -0.3342  0.4110 -0.5198
  137OSM    H7F14954   4.144   2.213   7.453  1.5603  0.7293 -1.8280
  137OSM    H7G14955   4.244   2.082   7.396 -0.9108 -1.6511 -1.1307
  137OSM    C8F14956   4.088   2.017   7.542 -0.4406 -0.0285  0.1910
  137OSM    H8F14957   4.048   1.919   7.508 -1.6852  0.3363  0.5668
  137OSM    H8G14958   4.005   2.072   7.591 -1.2395 -0.6193 -0.4610
  137OSM    C9F14959   4.188   1.981   7.650 -0.4656  0.1538 -0.2869
  137OSM    H9F14960   4.268   1.922   7.604  0.5439  1.7459 -0.6816
  137OSM   C10F14961   4.187   2.011   7.780 -0.3642  0.0297  0.1554
  137OSM   H10F14962   4.266   1.978   7.850 -0.8966  0.2500  0.8716
  137OSM   C11F14963   4.079   2.088   7.845 -0.1385  0.3368  0.3751
  137OSM   H11F14964   4.062   2.169   7.771  3.8251  1.5056  0.4636
  137OSM   H11G14965   4.130   2.147   7.925  1.2585  3.2305 -2.3982
  137OSM   C12F14966   3.956   2.002   7.884 -0.0232 -0.6970  0.2305
  137OSM   H12F14967   3.991   1.921   7.951 -1.0192 -0.3922  1.1395
  137OSM   H12G14968   3.911   1.963   7.790  0.4737  0.5374 -0.5459
  137OSM   C13F14969   3.838   2.086   7.950 -0.0725  0.5607  0.2118
  137OSM   H13F14970   3.740   2.035   7.937  0.7368 -1.4405  1.3826
  137OSM   H13G14971   3.824   2.180   7.892 -0.8426 -1.3931 -3.0124
  137OSM   C14F14972   3.853   2.121   8.099  0.0109  0.3494 -0.1842
  137OSM   H14F14973   3.944   2.184   8.111  0.7676 -0.2057 -2.5678
  137OSM   H14G14974   3.877   2.031   8.158 -2.9793 -0.0931  0.5057
  137OSM   C15F14975   3.734   2.188   8.169 -0.4317 -0.0795  0.7789
  137OSM   H15F14976   3.650   2.117   8.181 -1.0151  0.5108  0.2487
  137OSM   H15G14977   3.698   2.267   8.100 -1.2382 -2.4339 -1.7250
  137OSM   C16F14978   3.778   2.229   8.306  0.0881  0.1242  0.6699
  137OSM   H16F14979   3.841   2.320   8.295 -1.1500  1.0688  1.0290
  137OSM   H16G14980   3.836   2.147   8.353  1.4831  0.1848 -0.8519
  137OSM   C17F14981   3.660   2.280   8.399 -0.5600 -0.0653 -0.3870
  137OSM   H17F14982   3.586   2.332   8.335  0.0141 -0.5141 -1.4374
  137OSM   H17G14983   3.706   2.342   8.479 -2.5131  0.5711  0.3110
  137OSM   C18F14984   3.587   2.167   8.481 -0.1405  0.0668 -0.5803
  137OSM   H18F14985   3.502   2.206   8.541 -0.1766 -0.2343 -0.4366
  137OSM   H18G14986   3.664   2.119   8.545 -0.0986  1.8728  0.7974
  137OSM   H18H14987   3.547   2.105   8.398  0.2036  2.9272 -3.0621
  138OSM      N14988   4.634   3.757   5.952 -0.1078 -0.2240 -0.0280
  138OSM    C1514989   4.677   3.643   5.859  0.4962  0.4757 -0.5684
  138OSM   H15A14990   4.623   3.654   5.766  0.8698 -0.4281 -0.9035
  138OSM   H15B14991   4.652   3.549   5.905  0.8452 -0.0114 -1.3459
  138OSM   H15C14992   4.783   3.641   5.835  1.0224 -0.5759  1.5857
  138OSM    C1414993   4.666   3.888   5.892 -0.1368  0.0921  0.2261
  138OSM   H14A14994   4.633   3.892   5.789  4.6905  4.4031 -1.5993
  138OSM   H14B14995   4.772   3.909   5.890  0.3642 -2.1346  0.5940
  138OSM   H14C14996   4.618   3.963   5.952  1.8242 -0.6352  2.8931
  138OSM    C1314997   4.493   3.744   5.981 -0.7456 -0.3794  0.1216
  138OSM   H13A14998   4.457   3.825   6.042 -1.8311 -0.7663  0.0281
  138OSM   H13B14999   4.478   3.660   6.047  0.0921  1.0339  2.2059
  138OSM   H13C15000   4.438   3.751   5.888 -0.9408  1.8832  0.3538
  138OSM    C1215001   4.720   3.748   6.082  0.4066  0.6323 -0.3572
  138OSM   H12A15002   4.824   3.768   6.063  0.7201  1.3249  1.7793
  138OSM   H12B15003   4.699   3.647   6.115 -0.7090  0.7513 -0.6678
  138OSM    C1115004   4.697   3.838   6.200  0.6904  0.4320  0.3598
  138OSM   H11A15005   4.750   3.793   6.287 -0.1030 -1.3145 -0.0216
  138OSM   H11B15006   4.590   3.843   6.232 -0.0853 -1.7511 -1.6739
  138OSM      P15007   4.882   4.017   6.154 -0.2100 -0.2278  0.0682
  138OSM    O1315008   4.974   3.901   6.169  0.4937  0.0882 -0.0317
  138OSM    O1415009   4.885   4.101   6.029  0.4249 -0.7010 -0.5814
  138OSM    O1115010   4.913   4.115   6.272 -0.7128  0.4113 -0.2559
  138OSM    O1215011   4.734   3.975   6.182 -0.4203  0.2644  0.6508
  138OSM    C1S15012   4.875   4.095   6.409  0.1343  0.2766  0.2081
  138OSM    H1S15013   4.765   4.080   6.415  0.0299  0.8914 -0.1392
  138OSM    H1T15014   4.902   4.186   6.466  0.9349 -0.3974  0.9341
  138OSM     NF15015   4.885   3.953   6.615 -0.3567 -0.0765 -0.1248
  138OSM    HNF15016   4.945   3.989   6.687 -1.2328  2.9744 -0.7785
  138OSM    C2S15017   4.945   3.971   6.479 -0.1404 -0.2172 -0.1116
  138OSM    H2S15018   4.931   3.880   6.415  3.0901 -0.4450 -0.7147
  138OSM    C3S15019   5.094   4.012   6.491 -0.6159  0.2073 -0.0824
  138OSM    H3S15020   5.097   4.107   6.548  0.0494 -0.1213  0.4536
  138OSM     O315021   5.158   4.035   6.369 -0.6329  0.0743 -0.1080
  138OSM    HO315022   5.101   4.011   6.295 -0.2288 -1.8120  0.1448
  138OSM    C4S15023   5.182   3.907   6.562  0.1894  0.2624 -0.0958
  138OSM    H4S15024   5.177   3.810   6.510  2.0532  0.9464 -1.6643
  138OSM    C5S15025   5.256   3.925   6.673  0.7620  0.3604 -0.2240
  138OSM    H5S15026   5.260   4.024   6.722  1.0685 -0.0860  0.6780
  138OSM    C6S15027   5.333   3.808   6.737  0.0949 -0.5473 -0.6991
  138OSM    H6S15028   5.303   3.707   6.704  0.4802  0.0606 -3.0852
  138OSM    H6T15029   5.323   3.821   6.847 -2.2008  1.2842 -1.0357
  138OSM    C7S15030   5.483   3.818   6.715  0.6726  0.1405 -0.1337
  138OSM    H7S15031   5.508   3.864   6.617 -0.3772  0.1646 -0.3919
  138OSM    H7T15032   5.516   3.713   6.732 -3.0066 -1.2551 -0.6714
  138OSM    C8S15033   5.548   3.908   6.815  0.4838 -0.1257 -0.2461
  138OSM    H8S15034   5.509   3.884   6.916 -1.1493 -1.7334 -1.2204
  138OSM    H8T15035   5.519   4.012   6.788 -0.2040 -0.3610 -0.4349
  138OSM    C9S15036   5.704   3.916   6.817  0.7094  0.2250  0.1147
  138OSM    H9S15037   5.737   3.938   6.714  0.5141 -1.0423 -0.2278
  138OSM    H9T15038   5.751   3.823   6.855  1.2129  1.2056  2.0595
  138OSM   C10S15039   5.773   4.033   6.896 -0.1817  0.4259  0.1395
  138OSM   H10S15040   5.721   4.124   6.862 -0.0642  0.5882  0.3940
  138OSM   H10T15041   5.882   4.036   6.870  0.0922  1.0299  1.3131
  138OSM   C11S15042   5.767   4.012   7.050 -0.9784  0.0847 -0.7821
  138OSM   H11S15043   5.812   3.911   7.064 -1.2515  0.2212  1.6248
  138OSM   H11T15044   5.665   4.006   7.096 -0.8474  0.7354 -0.3934
  138OSM   C12S15045   5.853   4.116   7.134  0.1617  0.4707 -0.5343
  138OSM   H12S15046   5.791   4.206   7.115 -0.1746  0.9050  2.2512
  138OSM   H12T15047   5.956   4.113   7.092  0.6945  0.5984  0.7299
  138OSM   C13S15048   5.857   4.055   7.275  0.0045 -0.2442 -0.0441
  138OSM   H13S15049   5.929   4.112   7.337 -0.1008 -1.7515  1.5679
  138OSM   H13T15050   5.891   3.949   7.275 -1.0743 -0.6745 -2.9701
  138OSM   C14S15051   5.728   4.073   7.356 -0.4214 -0.0826 -1.0000
  138OSM   H14S15052   5.665   3.982   7.343 -1.1446 -0.3732  3.3055
  138OSM   H14T15053   5.672   4.160   7.314 -1.2144  0.5852  1.3200
  138OSM   C15S15054   5.749   4.117   7.504  0.8727  0.1139 -0.7300
  138OSM   H15S15055   5.777   4.224   7.509  2.2362 -0.2490 -0.2599
  138OSM   H15T15056   5.835   4.059   7.544  0.5885 -0.7549 -1.3504
  138OSM   C16S15057   5.623   4.128   7.593 -0.3120  0.1561  0.2636
  138OSM   H16S15058   5.574   4.029   7.585  3.4317 -1.6967 -3.2483
  138OSM   H16T15059   5.547   4.204   7.564  0.5610  0.8413 -0.2875
  138OSM   C17S15060   5.650   4.151   7.745  0.4599  0.5609  0.3067
  138OSM   H17S15061   5.689   4.255   7.752 -1.3709  1.2760  0.3799
  138OSM   H17T15062   5.740   4.091   7.772 -0.0033 -1.3067 -1.9429
  138OSM   C18S15063   5.533   4.109   7.831  0.3650 -0.4053  0.6575
  138OSM   H18S15064   5.443   4.163   7.796  2.4009  2.2799 -0.7728
  138OSM   H18T15065   5.552   4.135   7.937  0.7312  1.7550  0.0958
  138OSM   H18U15066   5.519   3.999   7.835  0.6815 -0.4139  2.0328
  138OSM    C1F15067   4.765   3.898   6.633  0.0994  0.2061 -0.2653
  138OSM     OF15068   4.714   3.827   6.547  0.3427 -0.3976  0.5747
  138OSM    C2F15069   4.707   3.921   6.766  0.4308  0.1389  0.3762
  138OSM    H2F15070   4.648   4.015   6.761 -0.6068 -0.5609 -2.6394
  138OSM    H2G15071   4.794   3.924   6.835  0.7468 -2.4317  0.1863
  138OSM    C3F15072   4.615   3.802   6.804 -0.1867  0.4837 -0.2740
  138OSM    H3F15073   4.684   3.715   6.794 -0.3472  0.0170  2.1887
  138OSM    H3G15074   4.537   3.787   6.726 -0.7474 -1.2496  0.5611
  138OSM    C4F15075   4.560   3.809   6.948  0.1118 -0.3208  0.7047
  138OSM    H4F15076   4.496   3.897   6.972  0.7971  0.3599  0.1239
  138OSM    H4G15077   4.644   3.814   7.020  0.1432 -1.8350  0.7990
  138OSM    C5F15078   4.486   3.676   6.984  0.9602 -0.3834 -0.0344
  138OSM    H5F15079   4.571   3.605   6.987 -0.5114 -2.2023  0.2563
  138OSM    H5G15080   4.405   3.644   6.915  1.9181 -0.7121 -1.0250
  138OSM    C6F15081   4.415   3.690   7.120 -0.0885 -1.5474 -0.3319
  138OSM    H6F15082   4.362   3.592   7.130  0.7415 -2.2864 -2.7201
  138OSM    H6G15083   4.329   3.759   7.108  0.8154 -0.4143 -0.4139
  138OSM    C7F15084   4.506   3.735   7.236  0.2419 -0.4669  0.2865
  138OSM    H7F15085   4.555   3.828   7.202 -3.3615  1.8193  0.8935
  138OSM    H7G15086   4.575   3.657   7.275 -0.4956 -0.0492  2.5524
  138OSM    C8F15087   4.424   3.784   7.362 -0.4633 -0.0446 -0.3433
  138OSM    H8F15088   4.333   3.830   7.320 -0.1075 -0.1428 -1.2466
  138OSM    H8G15089   4.479   3.863   7.418 -0.1340 -0.6322  0.1942
  138OSM    C9F15090   4.381   3.674   7.461  0.1375  0.5377 -0.4522
  138OSM    H9F15091   4.333   3.591   7.407  1.6166  0.9052 -2.4308
  138OSM   C10F15092   4.420   3.661   7.589  0.5240 -0.4288 -0.1162
  138OSM   H10F15093   4.390   3.582   7.659 -1.0867  1.3737  1.3383
  138OSM   C11F15094   4.506   3.766   7.662  0.2396  1.1591 -0.4761
  138OSM   H11F15095   4.504   3.866   7.614 -0.7319  0.4608 -1.9622
  138OSM   H11G15096   4.610   3.728   7.664 -0.5754 -1.2193  0.5780
  138OSM   C12F15097   4.438   3.786   7.800 -0.1356  0.2819  0.2263
  138OSM   H12F15098   4.417   3.688   7.848  1.0671 -0.3363 -0.4378
  138OSM   H12G15099   4.347   3.844   7.775  1.1798  1.4462 -2.2936
  138OSM   C13F15100   4.524   3.873   7.893  0.0366  0.2040 -0.1833
  138OSM   H13F15101   4.547   3.976   7.860 -1.5838  0.2254 -1.3896
  138OSM   H13G15102   4.624   3.830   7.914  0.0978  0.3686 -0.1391
  138OSM   C14F15103   4.454   3.879   8.033  0.0059  0.0829  0.3189
  138OSM   H14F15104   4.437   3.777   8.073 -1.9520 -0.1750 -1.0309
  138OSM   H14G15105   4.354   3.926   8.026 -0.3056 -0.7353 -1.0435
  138OSM   C15F15106   4.531   3.969   8.133  0.2100  0.3547 -0.4557
  138OSM   H15F15107   4.460   3.984   8.217  0.4782  0.3953 -0.2355
  138OSM   H15G15108   4.542   4.071   8.090 -0.0130  0.4179 -0.3647
  138OSM   C16F15109   4.661   3.890   8.174 -0.0934  0.0922  0.0134
  138OSM   H16F15110   4.690   3.809   8.104 -2.8480  0.0987 -1.2768
  138OSM   H16G15111   4.636   3.842   8.271 -2.3167  0.4475 -0.3337
  138OSM   C17F15112   4.774   3.990   8.191  0.1858 -0.0548 -0.7358
  138OSM   H17F15113   4.771   4.052   8.099  0.6597  2.0667  0.5919
  138OSM   H17G15114   4.863   3.923   8.197 -1.3996 -2.4148 -2.0025
  138OSM   C18F15115   4.776   4.072   8.322  0.4021  0.3813 -0.7120
  138OSM   H18F15116   4.682   4.129   8.310 -0.1538 -0.2275  0.5724
  138OSM   H18G15117   4.861   4.142   8.334  0.1700  0.3707  1.2224
  138OSM   H18H15118   4.770   3.999   8.406 -0.7918 -1.6860 -2.4789
  139OSM      N15119   4.551   4.501   6.281  0.5800  0.1922 -0.5787
  139OSM    C1515120   4.406   4.522   6.307  0.6516 -0.1630 -0.4940
  139OSM   H15A15121   4.336   4.467   6.246 -0.4764 -2.0145  2.2843
  139OSM   H15B15122   4.388   4.625   6.280  0.3026 -0.8624 -3.1315
  139OSM   H15C15123   4.376   4.514   6.411 -2.0742  1.9855 -0.9983
  139OSM    C1415124   4.619   4.584   6.388 -0.1637 -0.4978 -0.2455
  139OSM   H14A15125   4.604   4.684   6.350 -1.7308 -1.1741 -1.5262
  139OSM   H14B15126   4.725   4.569   6.399  0.3959  1.4541 -2.2852
  139OSM   H14C15127   4.566   4.569   6.481  0.2767  0.0593  0.0987
  139OSM    C1315128   4.581   4.358   6.303  0.3153  0.4950  0.2443
  139OSM   H13A15129   4.501   4.301   6.258  0.9079 -1.9494  2.0691
  139OSM   H13B15130   4.565   4.340   6.408  0.8340  2.2067  0.6424
  139OSM   H13C15131   4.685   4.336   6.284  1.0355  4.1028 -0.7746
  139OSM    C1215132   4.582   4.559   6.142  0.0223 -0.0802 -0.2056
  139OSM   H12A15133   4.538   4.491   6.071  1.5697 -0.5461 -0.7525
  139OSM   H12B15134   4.688   4.554   6.124  0.5702  3.8680  0.8772
  139OSM    C1115135   4.543   4.705   6.099  0.1012 -0.4009  0.2481
  139OSM   H11A15136   4.569   4.716   5.992  0.0230 -0.0160  0.2648
  139OSM   H11B15137   4.609   4.767   6.164  1.1438 -3.1923  2.0233
  139OSM      P15138   4.353   4.879   6.134  0.1292 -0.2934 -0.5477
  139OSM    O1315139   4.442   4.983   6.078 -0.3814  0.3326 -0.2695
  139OSM    O1415140   4.211   4.894   6.107 -0.0338 -0.2444 -0.2000
  139OSM    O1115141   4.359   4.891   6.288  0.2739  0.6426 -0.4361
  139OSM    O1215142   4.405   4.729   6.113 -0.0030  0.1290  0.0409
  139OSM    C1S15143   4.434   5.000   6.349 -0.0544  0.0291  0.2155
  139OSM    H1S15144   4.406   5.096   6.301  1.7146 -0.3195 -1.6923
  139OSM    H1T15145   4.544   4.982   6.345  0.0686  0.2560  1.9157
  139OSM     NF15146   4.489   5.125   6.545 -0.2384  0.3824 -0.1585
  139OSM    HNF15147   4.570   5.101   6.598  0.6692 -0.7897 -1.9766
  139OSM    C2S15148   4.406   5.018   6.501 -0.1039  0.1862 -0.1131
  139OSM    H2S15149   4.299   5.040   6.520 -0.4245  0.6147 -2.1684
  139OSM    C3S15150   4.454   4.884   6.573 -0.1218 -0.8120  0.7993
  139OSM    H3S15151   4.560   4.866   6.545 -0.5378 -0.2781 -1.2974
  139OSM     O315152   4.398   4.765   6.529  0.2051 -0.6966  0.8367
  139OSM    HO315153   4.367   4.781   6.439  0.3217  1.7874  1.1778
  139OSM    C4S15154   4.436   4.906   6.718  0.1415  1.1996 -0.7831
  139OSM    H4S15155   4.528   4.920   6.777 -1.1580 -0.6389  1.8500
  139OSM    C5S15156   4.317   4.893   6.785 -0.4831 -0.0133  0.2003
  139OSM    H5S15157   4.225   4.873   6.728 -0.4793 -0.6967  0.4316
  139OSM    C6S15158   4.284   4.911   6.937 -0.2501  0.3846 -0.0018
  139OSM    H6S15159   4.248   4.819   6.988 -1.3560  0.1857 -1.0934
  139OSM    H6T15160   4.196   4.980   6.938  1.2482  2.3893 -0.4066
  139OSM    C7S15161   4.394   4.986   7.019  0.3487 -0.1201  0.1299
  139OSM    H7S15162   4.411   5.089   6.982 -1.5669 -0.0926 -0.7992
  139OSM    H7T15163   4.490   4.933   7.002  1.1659  1.6050 -0.8354
  139OSM    C8S15164   4.345   5.005   7.157 -0.3040 -0.1833 -0.2555
  139OSM    H8S15165   4.304   4.909   7.198  1.2077 -0.6109  0.3266
  139OSM    H8T15166   4.255   5.070   7.159 -1.1884 -1.3411 -1.0979
  139OSM    C9S15167   4.445   5.070   7.250 -0.1974  0.0452  0.4296
  139OSM    H9S15168   4.460   5.175   7.214  0.4091 -0.3512 -0.5271
  139OSM    H9T15169   4.545   5.022   7.239  0.3284  1.5271 -2.4025
  139OSM   C10S15170   4.405   5.063   7.395 -0.2448  0.0400 -0.2091
  139OSM   H10S15171   4.415   4.960   7.436 -0.2994  0.5518  1.1197
  139OSM   H10T15172   4.295   5.065   7.414  0.2893  0.7687  3.5689
  139OSM   C11S15173   4.486   5.152   7.498  0.0255  0.6882 -1.6135
  139OSM   H11S15174   4.509   5.252   7.457  3.0366  0.6432 -0.3123
  139OSM   H11T15175   4.587   5.110   7.522 -0.7643 -0.5964 -0.3068
  139OSM   C12S15176   4.407   5.173   7.628  0.1688  0.0937  0.0069
  139OSM   H12S15177   4.364   5.078   7.669 -4.4555  1.1236 -1.8689
  139OSM   H12T15178   4.312   5.222   7.599 -0.0377 -0.1865  0.2045
  139OSM   C13S15179   4.477   5.263   7.737  0.3877  0.7528 -0.3664
  139OSM   H13S15180   4.402   5.315   7.800  0.6050  1.3202 -0.5682
  139OSM   H13T15181   4.539   5.341   7.687 -0.8283  0.0147 -3.1968
  139OSM   C14S15182   4.572   5.178   7.831  0.0622 -0.5353 -0.1104
  139OSM   H14S15183   4.629   5.246   7.898 -1.9092 -0.8281  1.9878
  139OSM   H14T15184   4.641   5.126   7.761 -0.5869  0.7480 -1.7702
  139OSM   C15S15185   4.504   5.075   7.921  0.3038 -0.1074  0.4973
  139OSM   H15S15186   4.571   5.049   8.006 -0.7758 -1.4449  0.9782
  139OSM   H15T15187   4.487   4.981   7.865  2.1287  2.1213 -4.2642
  139OSM   C16S15188   4.363   5.107   7.970 -1.4241  0.1210  0.2733
  139OSM   H16S15189   4.290   5.089   7.888 -1.5421 -1.3750  0.6715
  139OSM   H16T15190   4.357   5.211   8.008 -1.0274  0.6748 -1.1460
  139OSM   C17S15191   4.316   5.028   8.090  0.0604 -0.1903 -0.4765
  139OSM   H17S15192   4.354   4.924   8.086  2.5151  0.6669 -1.6862
  139OSM   H17T15193   4.205   5.028   8.084 -0.0777 -0.0910  1.3252
  139OSM   C18S15194   4.366   5.076   8.228 -0.5135  0.1280 -0.7806
  139OSM   H18S15195   4.474   5.054   8.246 -0.9471 -0.3152  1.6362
  139OSM   H18T15196   4.325   5.006   8.304 -1.7782 -0.5959 -2.0699
  139OSM   H18U15197   4.336   5.180   8.249 -2.0339 -0.4500  0.0380
  139OSM    C1F15198   4.448   5.249   6.559  0.1070  0.4163  0.2337
  139OSM     OF15199   4.348   5.286   6.496 -0.5944  0.6075  1.3147
  139OSM    C2F15200   4.525   5.332   6.652  0.5201 -0.3527 -0.5560
  139OSM    H2F15201   4.606   5.384   6.598 -0.3444 -0.0202 -1.5499
  139OSM    H2G15202   4.576   5.275   6.733  1.3117  1.8714  0.5655
  139OSM    C3F15203   4.425   5.431   6.729  0.5484 -0.0337 -0.9486
  139OSM    H3F15204   4.352   5.371   6.788 -2.0724  0.6644 -3.2132
  139OSM    H3G15205   4.364   5.476   6.648 -1.2458  0.0512  0.3859
  139OSM    C4F15206   4.501   5.534   6.815  0.4361 -0.1393  0.2643
  139OSM    H4F15207   4.537   5.604   6.737 -0.1284 -0.9376 -0.7369
  139OSM    H4G15208   4.592   5.481   6.851 -0.2328 -0.4094  1.6201
  139OSM    C5F15209   4.421   5.611   6.918 -0.2169 -0.3589  0.1141
  139OSM    H5F15210   4.335   5.660   6.869 -0.5897  0.6627  1.7163
  139OSM    H5G15211   4.481   5.697   6.955 -0.2203 -0.6447  0.8017
  139OSM    C6F15212   4.364   5.531   7.038 -0.0790  0.5123 -0.9710
  139OSM    H6F15213   4.450   5.495   7.098  0.3259  3.8197  0.6447
  139OSM    H6G15214   4.304   5.443   7.006  0.7099  0.3939 -2.1990
  139OSM    C7F15215   4.276   5.615   7.132 -0.1920 -0.6944  0.0667
  139OSM    H7F15216   4.208   5.684   7.078  0.5929  0.0038 -0.0543
  139OSM    H7G15217   4.348   5.682   7.186 -0.3455  0.0323 -0.6097
  139OSM    C8F15218   4.211   5.529   7.236 -0.0829  0.0741  0.1090
  139OSM    H8F15219   4.285   5.471   7.296  0.3129  1.1891  0.7346
  139OSM    H8G15220   4.146   5.453   7.188  0.7882 -0.2034 -0.6779
  139OSM    C9F15221   4.137   5.611   7.339  0.5958  1.0868  0.6166
  139OSM    H9F15222   4.054   5.666   7.292  0.7056 -0.5857 -1.6962
  139OSM   C10F15223   4.152   5.619   7.476 -0.4681  0.5631 -0.3058
  139OSM   H10F15224   4.074   5.666   7.537 -0.2289 -1.8969  2.0687
  139OSM   C11F15225   4.249   5.537   7.562 -0.1765  0.1715 -0.2856
  139OSM   H11F15226   4.353   5.557   7.527  0.3027  0.3252  1.1601
  139OSM   H11G15227   4.237   5.430   7.535 -1.2658  1.2130 -4.5801
  139OSM   C12F15228   4.234   5.562   7.711  0.6539  0.0490 -0.3162
  139OSM   H12F15229   4.298   5.488   7.764  1.4653  0.7426 -0.3163
  139OSM   H12G15230   4.127   5.540   7.730  0.5574  0.1662 -0.7163
  139OSM   C13F15231   4.280   5.693   7.778  0.0555  1.0621  0.5591
  139OSM   H13F15232   4.229   5.775   7.723 -0.5325 -0.1047 -0.7222
  139OSM   H13G15233   4.391   5.693   7.776  0.1729 -2.2430  0.5111
  139OSM   C14F15234   4.236   5.698   7.927  0.5258  0.1233  0.8044
  139OSM   H14F15235   4.297   5.627   7.987 -0.3527 -2.4746 -1.1823
  139OSM   H14G15236   4.133   5.664   7.949  0.6450  0.6197  2.2499
  139OSM   C15F15237   4.262   5.846   7.966  0.3668 -0.0301  0.2736
  139OSM   H15F15238   4.197   5.923   7.918  0.0464 -0.0510  0.6681
  139OSM   H15G15239   4.361   5.869   7.920 -1.3001  0.2924 -3.6214
  139OSM   C16F15240   4.262   5.876   8.115 -0.2709  0.2175  0.5258
  139OSM   H16F15241   4.294   5.982   8.109 -1.7667  0.5978 -2.0613
  139OSM   H16G15242   4.342   5.812   8.159  1.1834 -0.3561 -2.7263
  139OSM   C17F15243   4.128   5.868   8.183  0.6399  0.6322  0.3731
  139OSM   H17F15244   4.087   5.765   8.179 -1.7801  1.3977  2.3108
  139OSM   H17G15245   4.059   5.933   8.125 -0.3255 -1.8759 -1.4475
  139OSM   C18F15246   4.128   5.911   8.331 -0.6037  0.4529  0.4178
  139OSM   H18F15247   4.024   5.897   8.366 -0.6143 -1.2613 -0.1917
  139OSM   H18G15248   4.168   6.015   8.331  1.5760 -0.3234  0.9258
  139OSM   H18H15249   4.200   5.849   8.388  0.5138  1.2545 -0.0695
  140OSM      N15250   5.182   6.603   5.891  0.5176  0.6812 -0.2439
  140OSM    C1515251   5.208   6.501   5.779  0.2863 -0.8383 -0.2711
  140OSM   H15A15252   5.126   6.436   5.750  2.1454 -2.9119 -1.1263
  140OSM   H15B15253   5.288   6.436   5.811 -0.4902 -1.0868  1.2189
  140OSM   H15C15254   5.241   6.552   5.690 -1.9653 -0.9579 -1.2679
  140OSM    C1415255   5.302   6.691   5.913 -0.3144  0.1064  0.1340
  140OSM   H14A15256   5.311   6.754   5.826 -4.3311 -0.2769 -0.7693
  140OSM   H14B15257   5.390   6.629   5.925  0.6820  1.9230  3.3029
  140OSM   H14C15258   5.300   6.743   6.008  1.7450 -1.8315  1.3538
  140OSM    C1315259   5.063   6.693   5.855 -0.9749  0.2107 -0.2881
  140OSM   H13A15260   5.050   6.768   5.932  0.1308 -1.4884  1.6708
  140OSM   H13B15261   4.968   6.641   5.861 -0.6555 -0.4021 -0.4423
  140OSM   H13C15262   5.080   6.731   5.756  2.6060 -1.6721 -0.5455
  140OSM    C1215263   5.146   6.519   6.016 -0.5390  0.0752  0.5651
  140OSM   H12A15264   5.238   6.473   6.051  1.8232  1.8870 -2.6213
  140OSM   H12B15265   5.082   6.438   5.983 -1.7129  0.6840  1.3000
  140OSM    C1115266   5.088   6.597   6.138  0.0094  0.9590  0.7023
  140OSM   H11A15267   5.086   6.521   6.218  3.2923 -0.9361 -0.8130
  140OSM   H11B15268   4.987   6.625   6.099  0.5480  0.2190 -1.3426
  140OSM      P15269   5.082   6.849   6.204 -0.0459 -0.0312 -0.1997
  140OSM    O1315270   5.190   6.930   6.270 -0.3426  0.5807  0.6944
  140OSM    O1415271   5.018   6.908   6.086  0.2787  0.2013  0.0434
  140OSM    O1115272   4.977   6.800   6.309 -0.2901  0.1112 -1.2586
  140OSM    O1215273   5.161   6.713   6.164  0.6716  0.3578 -0.0313
  140OSM    C1S15274   5.020   6.715   6.415 -0.0510 -0.2619  0.3423
  140OSM    H1S15275   5.085   6.783   6.474  1.0097  0.0148 -1.0953
  140OSM    H1T15276   5.077   6.623   6.389 -2.1295 -1.1782 -1.1941
  140OSM     NF15277   4.945   6.639   6.642  0.0108 -0.7924 -0.2107
  140OSM    HNF15278   4.933   6.545   6.674 -0.6206 -0.4773  0.5198
  140OSM    C2S15279   4.903   6.674   6.506  0.2878  0.1085  0.0072
  140OSM    H2S15280   4.836   6.763   6.507 -0.9883 -0.8239  0.1487
  140OSM    C3S15281   4.823   6.574   6.424 -0.3402 -0.4891 -0.2118
  140OSM    H3S15282   4.884   6.481   6.417  2.4853  1.0653  1.9580
  140OSM     O315283   4.787   6.625   6.299 -0.3498 -0.2284  0.0452
  140OSM    HO315284   4.849   6.697   6.287 -2.6067  2.0931  1.2461
  140OSM    C4S15285   4.700   6.525   6.496 -0.2955 -0.1686  0.0271
  140OSM    H4S15286   4.703   6.417   6.520  3.1534  0.1155  1.4294
  140OSM    C5S15287   4.586   6.590   6.510  0.4614  0.3554  0.3445
  140OSM    H5S15288   4.583   6.695   6.476 -3.2528  0.3258  0.1743
  140OSM    C6S15289   4.462   6.542   6.574  0.3008  0.2770 -0.0650
  140OSM    H6S15290   4.472   6.432   6.590  0.2982  0.0067 -1.6568
  140OSM    H6T15291   4.372   6.553   6.508 -0.1638 -1.0816  0.2937
  140OSM    C7S15292   4.436   6.621   6.698  0.9302 -0.4222 -0.3829
  140OSM    H7S15293   4.414   6.726   6.670  1.0271 -0.1879  0.3811
  140OSM    H7T15294   4.522   6.613   6.769  0.5070 -1.9436 -0.0056
  140OSM    C8S15295   4.311   6.571   6.773 -0.6798  0.1905  1.1743
  140OSM    H8S15296   4.311   6.464   6.803  1.7261 -0.7532 -1.6862
  140OSM    H8T15297   4.234   6.604   6.699  1.4819  0.3551 -1.1426
  140OSM    C9S15298   4.293   6.653   6.896 -0.9483  0.1535 -0.1039
  140OSM    H9S15299   4.335   6.754   6.880  1.6499 -0.4718  2.0196
  140OSM    H9T15300   4.357   6.616   6.979 -1.5045  0.4310  0.4507
  140OSM   C10S15301   4.154   6.655   6.957 -0.2268 -0.3745  0.6418
  140OSM   H10S15302   4.105   6.561   6.992  0.5284 -1.2748 -0.6260
  140OSM   H10T15303   4.095   6.690   6.870 -0.8910 -0.8413  0.8919
  140OSM   C11S15304   4.137   6.751   7.076  0.0247 -0.6497 -0.0650
  140OSM   H11S15305   4.028   6.760   7.094  0.4004 -0.3989  2.5055
  140OSM   H11T15306   4.163   6.856   7.053 -2.3503  0.2708  1.0800
  140OSM   C12S15307   4.201   6.710   7.213  0.3425 -0.1487  0.0549
  140OSM   H12S15308   4.312   6.714   7.205  0.2516  0.9259 -0.8551
  140OSM   H12T15309   4.188   6.602   7.232  1.5262  0.0227  2.2671
  140OSM   C13S15310   4.166   6.808   7.327 -0.4233  0.1274  0.1747
  140OSM   H13S15311   4.202   6.761   7.421 -2.0988  0.8481  1.2264
  140OSM   H13T15312   4.058   6.835   7.319  0.1667  2.3177 -1.3335
  140OSM   C14S15313   4.251   6.938   7.323  0.2684  0.5736  0.4613
  140OSM   H14S15314   4.224   6.978   7.224 -0.6202  0.8400  0.8046
  140OSM   H14T15315   4.361   6.920   7.330  0.5506  1.0904 -1.8137
  140OSM   C15S15316   4.208   7.034   7.432  0.9079  0.0493  0.7966
  140OSM   H15S15317   4.097   7.028   7.435  0.9478 -1.4752  0.2536
  140OSM   H15T15318   4.244   7.134   7.402  0.4535  0.1835  0.6898
  140OSM   C16S15319   4.264   7.016   7.572 -0.4513 -0.2716 -0.3558
  140OSM   H16S15320   4.261   7.116   7.619  1.4935  0.4926 -1.7115
  140OSM   H16T15321   4.367   6.976   7.570 -0.5231 -0.4447 -0.8298
  140OSM   C17S15322   4.172   6.927   7.663  0.2475  0.4502  0.4246
  140OSM   H17S15323   4.127   6.845   7.602 -1.5853 -0.2776  2.6151
  140OSM   H17T15324   4.080   6.985   7.684  0.4626  0.3156  1.8697
  140OSM   C18S15325   4.238   6.860   7.785  0.0154  0.0468  0.5209
  140OSM   H18S15326   4.305   6.933   7.835  2.0354 -1.2469 -0.1607
  140OSM   H18T15327   4.307   6.786   7.739  2.4743  1.8180  1.2066
  140OSM   H18U15328   4.173   6.812   7.862  0.2950  0.3060  0.9206
  140OSM    C1F15329   4.973   6.736   6.732  0.5411  0.1539  0.6011
  140OSM     OF15330   4.951   6.853   6.696 -0.5111  0.9007  0.0307
  140OSM    C2F15331   5.031   6.698   6.862  0.0467 -0.4340  0.8643
  140OSM    H2F15332   5.042   6.587   6.867  1.5995 -0.3212  0.2781
  140OSM    H2G15333   4.957   6.714   6.943 -0.7734  1.4020 -0.1958
  140OSM    C3F15334   5.168   6.770   6.899  0.3472  0.4525 -0.3870
  140OSM    H3F15335   5.139   6.876   6.914 -0.1820  0.0990  1.2336
  140OSM    H3G15336   5.231   6.763   6.807 -0.6035  0.1411 -1.0323
  140OSM    C4F15337   5.233   6.695   7.022  0.6563  0.3233  0.9972
  140OSM    H4F15338   5.335   6.722   7.056  1.8595 -1.4745 -0.9335
  140OSM    H4G15339   5.247   6.597   6.972 -1.3275  0.5236 -0.0780
  140OSM    C5F15340   5.139   6.682   7.142 -0.5355 -0.1927  0.0652
  140OSM    H5F15341   5.040   6.650   7.103 -0.6537  0.7957 -0.4752
  140OSM    H5G15342   5.126   6.781   7.190 -0.8446  0.4741 -1.3428
  140OSM    C6F15343   5.185   6.586   7.248 -0.4093 -0.0303  0.1600
  140OSM    H6F15344   5.140   6.606   7.348  1.3024  1.1519  0.7293
  140OSM    H6G15345   5.288   6.619   7.272 -1.2122  1.8557  1.2285
  140OSM    C7F15346   5.165   6.440   7.213 -0.1388 -0.5993  0.4064
  140OSM    H7F15347   5.210   6.429   7.112 -1.3566  0.3474 -0.2704
  140OSM    H7G15348   5.056   6.418   7.201 -0.2518  0.5336 -0.9981
  140OSM    C8F15349   5.241   6.352   7.314 -0.6470  0.5201 -0.4163
  140OSM    H8F15350   5.196   6.370   7.414  0.5569  1.8649 -0.0782
  140OSM    H8G15351   5.350   6.375   7.320  0.0046 -1.9155 -1.6828
  140OSM    C9F15352   5.238   6.199   7.283  0.4470 -0.4633  0.0206
  140OSM    H9F15353   5.332   6.163   7.239  1.6074  2.0174  0.2796
  140OSM   C10F15354   5.132   6.108   7.291  0.1672  0.6307  0.3017
  140OSM   H10F15355   5.157   6.002   7.275 -1.2857  0.5062 -1.4621
  140OSM   C11F15356   4.998   6.130   7.351 -0.0094 -0.3174  0.4681
  140OSM   H11F15357   4.920   6.066   7.305  0.5644  1.5352 -3.4873
  140OSM   H11G15358   4.979   6.238   7.331  2.7656  0.6411  2.4710
  140OSM   C12F15359   4.999   6.106   7.503  0.3693  0.1136 -0.2811
  140OSM   H12F15360   5.096   6.150   7.535  0.3073  0.6713 -0.8438
  140OSM   H12G15361   5.010   5.998   7.528 -1.3338  0.5615  2.9631
  140OSM   C13F15362   4.868   6.157   7.584  0.7266 -0.2428  0.8930
  140OSM   H13F15363   4.775   6.129   7.530  0.2598 -0.1143  1.6167
  140OSM   H13G15364   4.876   6.268   7.586 -1.7448 -0.0243  2.3926
  140OSM   C14F15365   4.851   6.107   7.731  0.0960 -0.4248 -0.1978
  140OSM   H14F15366   4.948   6.130   7.782 -0.8219 -0.4177  1.6146
  140OSM   H14G15367   4.824   6.000   7.737  0.9098 -0.7125 -1.3789
  140OSM   C15F15368   4.736   6.173   7.817  0.0294  0.4838  0.4149
  140OSM   H15F15369   4.638   6.139   7.778 -1.5801  4.0959  0.9452
  140OSM   H15G15370   4.744   6.280   7.791  1.1248  0.2018 -0.5020
  140OSM   C16F15371   4.750   6.145   7.969 -0.4571  0.4296 -0.2780
  140OSM   H16F15372   4.852   6.160   8.009 -0.5442  0.3166 -0.0135
  140OSM   H16G15373   4.730   6.036   7.982  3.0165 -0.1436  1.3955
  140OSM   C17F15374   4.642   6.213   8.063 -0.8010  0.4815 -0.2739
  140OSM   H17F15375   4.542   6.170   8.039  0.2937 -2.8155  0.5171
  140OSM   H17G15376   4.635   6.321   8.039 -2.5908  0.4450 -0.0763
  140OSM   C18F15377   4.659   6.184   8.209  0.5582  0.2807  0.2031
  140OSM   H18F15378   4.764   6.217   8.225  1.3222 -1.1018 -1.6344
  140OSM   H18G15379   4.648   6.077   8.235 -3.2484  0.9699  2.1039
  140OSM   H18H15380   4.593   6.251   8.268  0.2708 -0.6327  0.9452
  141OSM      N15381   3.643   2.134   5.772  0.5120  0.0462  0.6988
  141OSM    C1515382   3.641   2.283   5.753  0.0330  0.5016  0.0583
  141OSM   H15A15383   3.553   2.322   5.705 -0.1897  0.4035  0.3770
  141OSM   H15B15384   3.736   2.306   5.708  0.3574 -1.4439 -0.3693
  141OSM   H15C15385   3.644   2.337   5.847  0.8899  1.1362 -0.3202
  141OSM    C1415386   3.606   2.054   5.642  0.2067 -0.4495  0.9281
  141OSM   H14A15387   3.611   1.948   5.661 -0.9919 -0.8008 -0.5693
  141OSM   H14B15388   3.685   2.082   5.573  1.9490  0.1029  3.0255
  141OSM   H14C15389   3.505   2.086   5.620  0.5274 -0.5712 -0.9202
  141OSM    C1315390   3.770   2.099   5.815 -0.4059  0.1256 -0.0775
  141OSM   H13A15391   3.773   1.998   5.851 -2.6500 -0.3787 -1.1596
  141OSM   H13B15392   3.800   2.173   5.889 -0.0285  0.5241 -0.6233
  141OSM   H13C15393   3.851   2.113   5.745  0.6444  1.4982  1.3186
  141OSM    C1215394   3.539   2.092   5.871  0.2015 -0.4018 -0.7906
  141OSM   H12A15395   3.541   1.987   5.897 -0.7466  0.2647  2.4239
  141OSM   H12B15396   3.439   2.120   5.841 -0.3765 -0.9155  0.5779
  141OSM    C1115397   3.550   2.152   6.012  0.2324 -0.8318 -0.1942
  141OSM   H11A15398   3.641   2.136   6.072  0.8454 -0.6333 -1.0468
  141OSM   H11B15399   3.478   2.095   6.073  0.8892 -1.3178  0.1266
  141OSM      P15400   3.376   2.356   6.031  0.2199  0.5344 -0.0388
  141OSM    O1315401   3.392   2.503   6.029 -0.0683 -0.5425 -1.0552
  141OSM    O1415402   3.289   2.287   5.929 -0.3184  0.6176 -0.5770
  141OSM    O1115403   3.333   2.307   6.172 -0.3675 -0.5064  0.1347
  141OSM    O1215404   3.523   2.289   6.027 -0.1764  0.1195  0.0984
  141OSM    C1S15405   3.417   2.293   6.289 -0.2590 -0.0492  0.7251
  141OSM    H1S15406   3.469   2.389   6.307 -0.4239  0.0110  0.8793
  141OSM    H1T15407   3.504   2.224   6.278 -0.2432 -0.1995  1.6925
  141OSM     NF15408   3.442   2.243   6.529 -0.5697  0.0181 -0.4490
  141OSM    HNF15409   3.487   2.158   6.556 -1.7969 -0.3136  0.6016
  141OSM    C2S15410   3.355   2.241   6.414 -0.1982  0.1505 -0.0953
  141OSM    H2S15411   3.262   2.295   6.442 -0.6246 -1.2867  1.4378
  141OSM    C3S15412   3.296   2.102   6.386 -0.7568  0.7929 -0.9682
  141OSM    H3S15413   3.382   2.036   6.358 -1.2933 -0.6063  0.4976
  141OSM     O315414   3.212   2.089   6.271  0.1714  0.3248 -0.1232
  141OSM    HO315415   3.228   2.172   6.227  0.3419 -0.0193 -0.7212
  141OSM    C4S15416   3.217   2.049   6.495  0.3352  0.4254 -0.3933
  141OSM    H4S15417   3.145   2.123   6.533  1.2820  1.2425 -0.1327
  141OSM    C5S15418   3.208   1.926   6.553  0.1519 -0.3755 -0.4690
  141OSM    H5S15419   3.267   1.844   6.510  0.5081  0.0580 -0.8145
  141OSM    C6S15420   3.103   1.897   6.663  0.0851 -0.1255  0.2981
  141OSM    H6S15421   3.039   1.811   6.633 -1.0662 -0.0761  2.4306
  141OSM    H6T15422   3.028   1.976   6.684 -1.2804 -1.5221  0.8774
  141OSM    C7S15423   3.172   1.855   6.792 -0.6267 -0.3499 -0.2977
  141OSM    H7S15424   3.255   1.927   6.809 -1.5870  0.2728  2.1287
  141OSM    H7T15425   3.209   1.752   6.776  0.5891  0.0908 -0.4396
  141OSM    C8S15426   3.088   1.871   6.921 -0.2673 -0.5966  0.1375
  141OSM    H8S15427   3.028   1.779   6.938 -1.6373  0.1771 -0.3712
  141OSM    H8T15428   3.012   1.946   6.891 -0.6414 -1.1079 -0.1994
  141OSM    C9S15429   3.175   1.909   7.037 -0.1340 -0.3090  0.8872
  141OSM    H9S15430   3.233   2.002   7.018  0.4968 -0.7714  0.5329
  141OSM    H9T15431   3.254   1.833   7.052  0.3458 -0.0118 -0.0764
  141OSM   C10S15432   3.086   1.932   7.161 -0.2105 -0.2125  0.1283
  141OSM   H10S15433   3.018   1.846   7.177 -0.0597 -0.0563  1.7328
  141OSM   H10T15434   3.020   2.019   7.140  0.7351  0.4400 -0.2383
  141OSM   C11S15435   3.167   1.946   7.287  0.8255 -1.0773  0.1917
  141OSM   H11S15436   3.255   2.011   7.271 -1.2199  1.2495 -2.5435
  141OSM   H11T15437   3.202   1.850   7.331  0.4144 -0.8568  1.0219
  141OSM   C12S15438   3.074   1.997   7.403  0.1483  0.6469 -0.3811
  141OSM   H12S15439   2.994   1.922   7.419  0.7943 -0.3309 -1.5672
  141OSM   H12T15440   3.032   2.099   7.393 -1.7278  0.1297  1.6572
  141OSM   C13S15441   3.164   1.994   7.533 -0.1044  1.1984  0.2000
  141OSM   H13S15442   3.254   2.058   7.519  0.9430 -0.5535 -1.7021
  141OSM   H13T15443   3.200   1.889   7.543 -0.3322  0.9070 -1.6542
  141OSM   C14S15444   3.092   2.028   7.661  0.0654  0.0296 -0.0504
  141OSM   H14S15445   3.008   1.958   7.679  0.5796 -0.4323  0.6240
  141OSM   H14T15446   3.055   2.132   7.651  1.5945  0.6218  0.1923
  141OSM   C15S15447   3.185   2.027   7.780 -0.2711 -0.2122  0.1433
  141OSM   H15S15448   3.256   2.110   7.758  0.3807 -0.2261  2.0096
  141OSM   H15T15449   3.244   1.934   7.797 -0.3251  0.2495  3.3692
  141OSM   C16S15450   3.118   2.062   7.914  0.6327 -0.5194 -0.3984
  141OSM   H16S15451   3.040   2.138   7.892  0.1067 -0.6787  0.8352
  141OSM   H16T15452   3.192   2.108   7.982 -1.9427  0.1622  2.1485
  141OSM   C17S15453   3.032   1.952   7.983 -0.0780 -0.4278  0.6489
  141OSM   H17S15454   2.985   1.895   7.900  2.4554 -0.6811 -0.7270
  141OSM   H17T15455   2.969   2.017   8.047  2.4888 -0.0483  2.9877
  141OSM   C18S15456   3.113   1.846   8.062  0.4049  0.0245  0.0329
  141OSM   H18S15457   3.207   1.898   8.093 -1.0428  1.1464  2.9578
  141OSM   H18T15458   3.145   1.765   7.993 -0.9647 -1.4784  1.0924
  141OSM   H18U15459   3.063   1.800   8.150  2.9891 -1.1050  1.0406
  141OSM    C1F15460   3.483   2.355   6.589  0.8781 -0.6932 -0.5145
  141OSM     OF15461   3.446   2.460   6.539 -0.5418 -0.2438  0.0253
  141OSM    C2F15462   3.562   2.339   6.711  0.0195 -0.2193 -0.9725
  141OSM    H2F15463   3.658   2.289   6.687  0.4202  0.2381 -0.3352
  141OSM    H2G15464   3.506   2.274   6.782  1.9273 -1.6860 -0.7353
  141OSM    C3F15465   3.599   2.478   6.763 -0.2696  0.4816 -0.4677
  141OSM    H3F15466   3.506   2.533   6.791  0.3084  1.8816 -1.1689
  141OSM    H3G15467   3.653   2.544   6.691  0.5947 -0.0259 -0.2936
  141OSM    C4F15468   3.679   2.472   6.897  0.0226  0.2436  0.6856
  141OSM    H4F15469   3.721   2.571   6.927  2.2208  0.3404 -2.2850
  141OSM    H4G15470   3.768   2.406   6.891  1.4205  2.1579 -0.4312
  141OSM    C5F15471   3.583   2.431   7.012 -0.1505  0.2036  1.1736
  141OSM    H5F15472   3.546   2.331   6.983 -3.1180  1.4957 -0.0244
  141OSM    H5G15473   3.488   2.489   7.006 -1.0790 -1.2191  1.7884
  141OSM    C6F15474   3.644   2.418   7.155  0.2061 -0.0521  0.1697
  141OSM    H6F15475   3.578   2.357   7.222  0.7326 -0.7113  0.1043
  141OSM    H6G15476   3.631   2.522   7.190  3.3060  0.3179  0.4208
  141OSM    C7F15477   3.783   2.369   7.174 -0.2015 -0.1050 -0.5745
  141OSM    H7F15478   3.850   2.397   7.090  0.9324 -1.9095 -0.3378
  141OSM    H7G15479   3.776   2.259   7.160 -0.1501 -0.1307 -0.3923
  141OSM    C8F15480   3.850   2.419   7.306 -0.2298 -1.1240  0.0563
  141OSM    H8F15481   3.842   2.529   7.314  1.0199 -1.1325  2.2076
  141OSM    H8G15482   3.961   2.413   7.297  0.2486  3.5055  0.8512
  141OSM    C9F15483   3.807   2.349   7.434 -0.1886 -0.8207 -0.3098
  141OSM    H9F15484   3.743   2.262   7.411 -1.5936 -0.2377  1.1429
  141OSM   C10F15485   3.796   2.393   7.563 -0.2398  0.5693  0.4130
  141OSM   H10F15486   3.771   2.322   7.643 -1.6305  1.3854  0.7330
  141OSM   C11F15487   3.851   2.523   7.615  0.2686 -0.2228  0.5320
  141OSM   H11F15488   3.765   2.589   7.638 -0.4926 -0.6178 -1.0801
  141OSM   H11G15489   3.901   2.584   7.537  0.5265 -0.6401  0.3664
  141OSM   C12F15490   3.948   2.500   7.733  0.2877  0.1357 -0.0614
  141OSM   H12F15491   4.010   2.592   7.731  0.6640 -0.1250 -1.9839
  141OSM   H12G15492   4.015   2.415   7.711 -1.2863 -1.2194  0.2263
  141OSM   C13F15493   3.876   2.473   7.867 -0.2607 -0.6014  0.6132
  141OSM   H13F15494   3.950   2.400   7.905  0.9038  0.9643  1.4635
  141OSM   H13G15495   3.783   2.415   7.849 -0.4642  0.0054 -0.3417
  141OSM   C14F15496   3.879   2.591   7.958  0.0583 -0.1379 -0.2522
  141OSM   H14F15497   3.811   2.673   7.929  0.3188  1.0066  2.0904
  141OSM   H14G15498   3.971   2.653   7.957  0.5645 -0.8760 -1.7043
  141OSM   C15F15499   3.849   2.538   8.101  0.1008 -0.2648  0.1906
  141OSM   H15F15500   3.924   2.458   8.118 -0.3975 -1.0026 -0.9624
  141OSM   H15G15501   3.744   2.502   8.104 -0.1032  0.4030  1.4408
  141OSM   C16F15502   3.869   2.637   8.224  0.1361 -0.1618  0.1068
  141OSM   H16F15503   3.975   2.650   8.256 -0.9356  1.9441  3.3186
  141OSM   H16G15504   3.819   2.595   8.313 -0.5380  0.9304  0.2536
  141OSM   C17F15505   3.803   2.777   8.196  0.1151 -0.0440  0.2050
  141OSM   H17F15506   3.702   2.755   8.155 -0.0044  2.4753 -1.1152
  141OSM   H17G15507   3.842   2.826   8.103  0.8301  0.0165  0.5328
  141OSM   C18F15508   3.784   2.874   8.314 -0.4125 -0.3519  0.3880
  141OSM   H18F15509   3.729   2.835   8.403 -0.2498 -0.7620  0.3108
  141OSM   H18G15510   3.737   2.971   8.286 -0.1112 -0.3803 -0.2250
  141OSM   H18H15511   3.888   2.897   8.346  0.4386  0.5745 -2.7250
  142OSM      N15512   3.900   4.163   6.257 -0.1572  0.2614 -0.5886
  142OSM    C1515513   3.964   4.239   6.374  0.1532 -0.4462 -0.2828
  142OSM   H15A15514   4.015   4.321   6.325 -2.9672  0.5696 -2.1085
  142OSM   H15B15515   4.018   4.172   6.439 -0.9072 -1.3717 -0.3298
  142OSM   H15C15516   3.883   4.286   6.428 -2.8327 -2.7125 -2.4438
  142OSM    C1415517   3.837   4.259   6.161 -0.5143  0.3734  0.0724
  142OSM   H14A15518   3.760   4.317   6.209 -1.1721  0.7522 -1.3745
  142OSM   H14B15519   3.801   4.210   6.071  2.5974 -1.2379 -0.4629
  142OSM   H14C15520   3.906   4.331   6.118  0.1913 -0.0961  0.3928
  142OSM    C1315521   4.002   4.075   6.191  0.4526 -1.5422  0.0909
  142OSM   H13A15522   3.943   4.009   6.129 -0.6699 -1.2981  0.8635
  142OSM   H13B15523   4.058   4.022   6.268  1.4656  1.2420  1.4173
  142OSM   H13C15524   4.071   4.134   6.134 -0.9799 -0.7485 -0.8615
  142OSM    C1215525   3.797   4.057   6.309 -0.4126  0.0209  0.5879
  142OSM   H12A15526   3.843   3.988   6.378 -1.6144 -1.5273 -0.1038
  142OSM   H12B15527   3.765   3.990   6.231  0.5758  0.7831 -0.5181
  142OSM    C1115528   3.674   4.111   6.371  0.2222 -0.3099  0.3332
  142OSM   H11A15529   3.615   4.169   6.297 -0.0767 -0.7849  0.1917
  142OSM   H11B15530   3.695   4.182   6.453  0.9149  0.8219 -0.7835
  142OSM      P15531   3.515   3.914   6.327 -0.1555  0.3568  0.1976
  142OSM    O1315532   3.374   3.929   6.363 -0.9355 -0.6638  0.3753
  142OSM    O1415533   3.551   3.934   6.188 -0.4376  0.3986 -0.2553
  142OSM    O1115534   3.558   3.763   6.353 -0.7484 -0.2396  0.5016
  142OSM    O1215535   3.601   4.002   6.425  0.4705 -0.4539 -0.1725
  142OSM    C1S15536   3.592   3.716   6.484 -0.5146 -0.3227  0.9066
  142OSM    H1S15537   3.640   3.794   6.547 -0.0244  0.9693 -0.9653
  142OSM    H1T15538   3.675   3.643   6.471 -1.8850 -1.8792  0.5082
  142OSM     NF15539   3.481   3.625   6.689  0.6321  0.3988  0.7051
  142OSM    HNF15540   3.473   3.533   6.728  1.1526 -1.0819 -2.3653
  142OSM    C2S15541   3.473   3.638   6.547  0.4559 -0.7264  0.4330
  142OSM    H2S15542   3.386   3.701   6.517  0.1219 -0.9288  0.9644
  142OSM    C3S15543   3.456   3.509   6.466  0.3903  0.0183 -0.0416
  142OSM    H3S15544   3.544   3.446   6.492 -0.9314 -1.8147  0.1792
  142OSM     O315545   3.453   3.527   6.324 -0.2397 -0.0044 -0.1371
  142OSM    HO315546   3.475   3.620   6.309 -3.8564  0.8249 -1.5143
  142OSM    C4S15547   3.328   3.432   6.510  0.7276 -0.0690  0.3361
  142OSM    H4S15548   3.235   3.483   6.483  1.1179  0.9673  0.8942
  142OSM    C5S15549   3.319   3.313   6.570  0.1837  0.8756  0.2526
  142OSM    H5S15550   3.409   3.252   6.586  0.3353  0.2126 -2.6307
  142OSM    C6S15551   3.189   3.246   6.609 -0.8035  0.0836 -0.0692
  142OSM    H6S15552   3.162   3.162   6.542 -2.0549 -0.9868  1.7143
  142OSM    H6T15553   3.105   3.316   6.590 -2.0313 -0.3540  3.1527
  142OSM    C7S15554   3.181   3.194   6.752 -0.5730 -0.1738  0.1234
  142OSM    H7S15555   3.245   3.104   6.764 -1.3648 -0.7855 -0.1173
  142OSM    H7T15556   3.074   3.163   6.754 -0.5897 -0.4952 -2.1728
  142OSM    C8S15557   3.215   3.298   6.863 -0.1441 -0.3699  0.0369
  142OSM    H8S15558   3.177   3.399   6.837  1.1277  0.7995  2.3654
  142OSM    H8T15559   3.325   3.314   6.861 -0.1157 -0.6040 -1.2932
  142OSM    C9S15560   3.175   3.285   7.008 -0.2510  0.0981 -0.2347
  142OSM    H9S15561   3.213   3.188   7.046 -0.6830  0.9723  2.6881
  142OSM    H9T15562   3.068   3.290   7.035  0.1241  0.2173  1.3545
  142OSM   C10S15563   3.244   3.381   7.108 -0.3564  0.1390  0.2756
  142OSM   H10S15564   3.256   3.480   7.059 -0.6208 -0.2371 -0.5882
  142OSM   H10T15565   3.349   3.352   7.129 -0.0797  0.3219 -0.7591
  142OSM   C11S15566   3.164   3.398   7.234 -0.3178  0.3851  0.0971
  142OSM   H11S15567   3.151   3.297   7.280  1.1745  0.0500 -0.1711
  142OSM   H11T15568   3.060   3.427   7.206 -0.3158 -0.4494 -0.8241
  142OSM   C12S15569   3.226   3.474   7.350 -0.4302 -1.1403 -0.0790
  142OSM   H12S15570   3.252   3.577   7.320  3.9841 -1.6084  1.3899
  142OSM   H12T15571   3.328   3.437   7.374  0.2266  1.8574  2.4412
  142OSM   C13S15572   3.136   3.481   7.479 -0.6839 -0.6037  0.4384
  142OSM   H13S15573   3.033   3.504   7.444 -0.2082  0.5683 -0.2553
  142OSM   H13T15574   3.166   3.580   7.520  0.2363  0.4581 -2.5150
  142OSM   C14S15575   3.144   3.372   7.586  0.6420 -0.4377  0.2572
  142OSM   H14S15576   3.242   3.380   7.639  0.4287  0.4915  0.5379
  142OSM   H14T15577   3.136   3.276   7.532 -2.0386 -0.6811  0.9535
  142OSM   C15S15578   3.040   3.387   7.700  0.5473 -0.1741  0.1685
  142OSM   H15S15579   2.938   3.385   7.657  0.7321 -1.1621 -0.2321
  142OSM   H15T15580   3.039   3.488   7.747 -0.5913 -0.5684  1.0166
  142OSM   C16S15581   3.058   3.284   7.804 -0.3599  0.3477 -0.5979
  142OSM   H16S15582   3.155   3.300   7.856  1.0757  0.0612 -3.0155
  142OSM   H16T15583   3.070   3.190   7.746 -1.6600  0.1432 -0.5695
  142OSM   C17S15584   2.937   3.277   7.901  0.1174 -0.1362  0.5219
  142OSM   H17S15585   2.950   3.176   7.948  3.7363  0.4217  1.0633
  142OSM   H17T15586   2.844   3.277   7.842 -0.2386  0.8379  1.0672
  142OSM   C18S15587   2.945   3.388   8.005 -0.2626 -0.5372  0.7641
  142OSM   H18S15588   2.845   3.375   8.053 -0.4130  1.2546  1.0315
  142OSM   H18T15589   2.947   3.487   7.954  0.5452 -1.1803 -0.4954
  142OSM   H18U15590   3.035   3.371   8.068  0.0326  1.0244  0.8071
  142OSM    C1F15591   3.476   3.718   6.784 -0.0877 -0.4999  0.7569
  142OSM     OF15592   3.464   3.837   6.752 -0.7448  0.4062 -0.1248
  142OSM    C2F15593   3.507   3.655   6.918 -0.4538 -0.9384 -0.3158
  142OSM    H2F15594   3.608   3.609   6.929 -0.0837 -0.2514 -0.7556
  142OSM    H2G15595   3.439   3.568   6.925  1.7154 -2.7521 -0.5432
  142OSM    C3F15596   3.493   3.754   7.037 -0.3576  0.4048  0.5901
  142OSM    H3F15597   3.387   3.787   7.045 -0.0282  1.3182  1.4168
  142OSM    H3G15598   3.548   3.848   7.014  0.0597  0.4508  1.7036
  142OSM    C4F15599   3.523   3.696   7.171  0.1006  0.5921  0.0490
  142OSM    H4F15600   3.633   3.680   7.167  0.1181 -0.1256  2.2024
  142OSM    H4G15601   3.478   3.596   7.188  2.7006 -0.3582  2.0900
  142OSM    C5F15602   3.487   3.781   7.287 -0.1146 -0.2941 -0.3562
  142OSM    H5F15603   3.383   3.820   7.281 -0.1077 -0.5062 -2.6607
  142OSM    H5G15604   3.556   3.868   7.292 -0.0063 -0.1381 -3.0740
  142OSM    C6F15605   3.515   3.702   7.424  0.1988  0.3207  0.4502
  142OSM    H6F15606   3.612   3.653   7.401 -1.0634 -2.1949  0.1440
  142OSM    H6G15607   3.456   3.609   7.431  0.7999  0.0363  2.3208
  142OSM    C7F15608   3.506   3.778   7.550  0.0671  0.2168  0.1688
  142OSM    H7F15609   3.401   3.811   7.567 -0.0027 -0.5941  1.3800
  142OSM    H7G15610   3.577   3.862   7.532  0.6062 -0.2066  0.2982
  142OSM    C8F15611   3.556   3.703   7.676  0.5221 -0.3280 -0.0821
  142OSM    H8F15612   3.585   3.783   7.747 -0.8801  0.1721 -0.0403
  142OSM    H8G15613   3.647   3.648   7.644  0.1605 -0.1430 -1.4891
  142OSM    C9F15614   3.437   3.611   7.709  0.4013  0.9767 -0.1997
  142OSM    H9F15615   3.447   3.510   7.665  1.7582  2.3539 -3.3227
  142OSM   C10F15616   3.329   3.636   7.786  0.2290 -0.3446  0.3938
  142OSM   H10F15617   3.261   3.552   7.807  0.1959 -0.1461  1.1044
  142OSM   C11F15618   3.312   3.771   7.855  0.5146 -0.5340 -0.3996
  142OSM   H11F15619   3.202   3.783   7.868  0.3930 -2.4275  0.7298
  142OSM   H11G15620   3.354   3.854   7.795 -2.0188  1.5096  0.4130
  142OSM   C12F15621   3.385   3.770   7.995 -0.0481  0.3927  0.0696
  142OSM   H12F15622   3.384   3.874   8.034  0.1192 -0.4887  2.5713
  142OSM   H12G15623   3.490   3.741   7.977  0.8283  2.4701  1.5064
  142OSM   C13F15624   3.324   3.686   8.104 -0.6584 -0.2447  0.5566
  142OSM   H13F15625   3.294   3.584   8.070  0.6504 -1.2405  2.2397
  142OSM   H13G15626   3.231   3.734   8.143 -0.1601  1.3235 -0.1236
  142OSM   C14F15627   3.431   3.656   8.218 -0.0810 -0.5103  0.5013
  142OSM   H14F15628   3.460   3.749   8.272  0.1438  0.3990 -1.1385
  142OSM   H14G15629   3.521   3.602   8.182  0.0492  0.3536 -0.5025
  142OSM   C15F15630   3.372   3.572   8.331 -0.0247 -0.2153  0.0125
  142OSM   H15F15631   3.368   3.466   8.298  0.0404 -0.0668 -0.4829
  142OSM   H15G15632   3.265   3.600   8.343  0.7338  2.0393  2.3525
  142OSM   C16F15633   3.439   3.565   8.471  0.3143  0.2413 -0.7400
  142OSM   H16F15634   3.538   3.514   8.467 -0.9600 -2.6852  1.2916
  142OSM   H16G15635   3.375   3.503   8.538 -0.0572  0.7472 -0.6244
  142OSM   C17F15636   3.480   3.695   8.528  0.5109 -0.2935  0.1517
  142OSM   H17F15637   3.390   3.758   8.513 -1.0651 -2.0572  1.6470
  142OSM   H17G15638   3.564   3.740   8.471 -0.9645  0.2503 -1.7135
  142OSM   C18F15639   3.505   3.696   8.681  0.3222  0.7179  0.0542
  142OSM   H18F15640   3.575   3.615   8.708 -0.1227  0.3996  0.2633
  142OSM   H18G15641   3.406   3.682   8.729 -0.3602  0.1277 -1.4334
  142OSM   H18H15642   3.545   3.794   8.714 -1.1457  1.4843 -0.3358
  143OSM      N15643   6.461   6.289   5.937 -0.3011  0.4486 -0.3411
  143OSM    C1515644   6.609   6.271   5.938  0.1951 -0.3513 -0.4197
  143OSM   H15A15645   6.662   6.360   5.968  0.4290 -0.8068  0.5354
  143OSM   H15B15646   6.646   6.261   5.837 -0.2156  0.7621 -0.7032
  143OSM   H15C15647   6.634   6.190   6.004  0.3969  0.1961  0.1872
  143OSM    C1415648   6.434   6.419   5.868  0.1483  0.5829  0.0705
  143OSM   H14A15649   6.487   6.501   5.914  1.2282  0.1511 -0.3558
  143OSM   H14B15650   6.328   6.435   5.856  0.5937  1.8648 -3.0640
  143OSM   H14C15651   6.470   6.426   5.767  0.1766  2.7652  0.1949
  143OSM    C1315652   6.390   6.185   5.858 -0.0467 -0.6360  0.2057
  143OSM   H13A15653   6.415   6.172   5.754 -1.3173 -1.6255 -0.0034
  143OSM   H13B15654   6.282   6.197   5.863  0.0231  2.2297 -2.3352
  143OSM   H13C15655   6.418   6.092   5.905  0.1689  0.1185  1.6284
  143OSM    C1215656   6.405   6.294   6.085 -0.4057 -0.5677 -0.4830
  143OSM   H12A15657   6.298   6.286   6.069 -0.7011 -0.6625  1.2640
  143OSM   H12B15658   6.434   6.386   6.134 -2.5745  0.3934 -0.8940
  143OSM    C1115659   6.438   6.174   6.184  0.0788  0.1133  0.2876
  143OSM   H11A15660   6.405   6.198   6.288  0.5817  2.6213 -0.0479
  143OSM   H11B15661   6.547   6.154   6.183 -0.2913 -3.1846  3.7094
  143OSM      P15662   6.218   6.031   6.142 -0.3707 -0.2582 -0.2315
  143OSM    O1315663   6.154   6.159   6.183 -0.5276  0.4397 -0.4271
  143OSM    O1415664   6.179   5.963   6.021  0.2674  1.1218  0.5969
  143OSM    O1115665   6.208   5.933   6.264 -0.0524  0.5697 -0.0972
  143OSM    O1215666   6.377   6.051   6.142 -0.0533  0.3980  0.0479
  143OSM    C1S15667   6.296   5.822   6.283  0.0275 -0.1796 -0.1866
  143OSM    H1S15668   6.401   5.858   6.292  1.2766 -3.5180 -0.2900
  143OSM    H1T15669   6.287   5.750   6.199 -2.2637 -1.1180  0.7809
  143OSM     NF15670   6.384   5.670   6.449 -0.2618  0.2303 -0.2118
  143OSM    HNF15671   6.366   5.572   6.444 -1.5814  0.4852 -0.8644
  143OSM    C2S15672   6.270   5.755   6.416  0.8266  0.4883 -0.2781
  143OSM    H2S15673   6.268   5.834   6.494 -1.2508 -0.3820  0.6407
  143OSM    C3S15674   6.123   5.694   6.423 -0.3490  0.0100 -0.1871
  143OSM    H3S15675   6.108   5.611   6.350 -0.1861  1.4686 -1.9340
  143OSM     O315676   6.007   5.780   6.396 -0.1777 -0.3601  1.1624
  143OSM    HO315677   6.048   5.862   6.369 -2.7887  0.6849 -0.0506
  143OSM    C4S15678   6.104   5.631   6.562  0.2434  0.7380  0.2912
  143OSM    H4S15679   6.061   5.530   6.556  1.8849 -0.2004  2.7454
  143OSM    C5S15680   6.097   5.690   6.679 -0.2278 -0.5247 -0.3381
  143OSM    H5S15681   6.106   5.799   6.690  2.2009 -0.9326  4.9162
  143OSM    C6S15682   6.054   5.620   6.810 -0.4478 -0.2898 -0.4200
  143OSM    H6S15683   6.132   5.629   6.889  0.7146  0.0080 -1.5620
  143OSM    H6T15684   6.044   5.510   6.796  1.4725 -0.5666  0.1680
  143OSM    C7S15685   5.931   5.683   6.883  0.5282  0.0296  0.5939
  143OSM    H7S15686   5.842   5.672   6.818  1.6133  5.3132 -2.3199
  143OSM    H7T15687   5.938   5.794   6.886  1.0244  0.0552 -0.7406
  143OSM    C8S15688   5.915   5.612   7.016  0.0438 -0.7707  0.1779
  143OSM    H8S15689   5.876   5.511   6.991  0.3560 -0.2370 -2.8688
  143OSM    H8T15690   5.827   5.668   7.056 -0.2267 -0.4738 -0.7893
  143OSM    C9S15691   6.032   5.613   7.106  0.1420 -0.4972 -0.0752
  143OSM    H9S15692   6.092   5.707   7.110  0.7448 -0.9293  1.7776
  143OSM    H9T15693   6.097   5.524   7.091  0.3509 -0.2017 -1.0261
  143OSM   C10S15694   5.986   5.587   7.249  0.3767 -0.2421 -0.1369
  143OSM   H10S15695   5.951   5.482   7.256 -2.1719  0.4956 -0.9442
  143OSM   H10T15696   5.898   5.651   7.273  0.0560 -0.4758 -0.6850
  143OSM   C11S15697   6.088   5.611   7.363  0.4333 -0.4283 -0.6157
  143OSM   H11S15698   6.043   5.584   7.460  0.3650 -2.7743 -1.2334
  143OSM   H11T15699   6.125   5.716   7.361 -0.6858  0.0719  1.6466
  143OSM   C12S15700   6.203   5.511   7.363  0.4991 -0.0461 -0.0535
  143OSM   H12S15701   6.262   5.529   7.271  1.2949 -2.0964  0.0101
  143OSM   H12T15702   6.173   5.404   7.357 -1.2082  0.3910 -0.0848
  143OSM   C13S15703   6.299   5.523   7.491  0.1255 -0.3449  0.0173
  143OSM   H13S15704   6.336   5.628   7.491  0.8287 -0.5883  0.5805
  143OSM   H13T15705   6.396   5.470   7.482 -1.5400 -4.0236  1.7254
  143OSM   C14S15706   6.245   5.515   7.638 -0.2225  0.2854 -0.4610
  143OSM   H14S15707   6.204   5.415   7.665 -0.3820  1.2293  3.2889
  143OSM   H14T15708   6.164   5.589   7.648 -2.0379 -1.4373 -1.6861
  143OSM   C15S15709   6.359   5.570   7.728  0.2459 -0.4340 -0.0887
  143OSM   H15S15710   6.353   5.680   7.742 -1.6058 -0.7197  1.9647
  143OSM   H15T15711   6.458   5.550   7.682  0.5099  1.8567 -0.6120
  143OSM   C16S15712   6.366   5.514   7.868  0.6378  0.7324  0.0821
  143OSM   H16S15713   6.368   5.403   7.865 -1.6961  0.6541  0.0182
  143OSM   H16T15714   6.271   5.537   7.921  1.3882 -0.0185  1.8764
  143OSM   C17S15715   6.488   5.553   7.950 -0.8201 -0.3532  0.9989
  143OSM   H17S15716   6.488   5.663   7.945  2.0882 -0.1503  2.8632
  143OSM   H17T15717   6.584   5.517   7.906 -0.4957 -0.3883  1.7214
  143OSM   C18S15718   6.484   5.525   8.098 -0.2429  0.5426 -0.2059
  143OSM   H18S15719   6.572   5.570   8.147 -0.4614 -0.2057  0.9090
  143OSM   H18T15720   6.487   5.416   8.119 -0.1694 -0.0642 -2.9703
  143OSM   H18U15721   6.391   5.560   8.149 -0.5776  1.1273 -1.1913
  143OSM    C1F15722   6.501   5.725   6.490  0.1032  0.7518 -0.1558
  143OSM     OF15723   6.519   5.850   6.488 -0.0652  0.1659 -0.4655
  143OSM    C2F15724   6.609   5.635   6.540 -0.3243 -0.4708 -0.2480
  143OSM    H2F15725   6.702   5.651   6.481 -0.6065 -2.1943 -1.2239
  143OSM    H2G15726   6.572   5.532   6.527  0.7069 -0.8294 -0.4571
  143OSM    C3F15727   6.654   5.689   6.683  0.8275  0.1482  0.3292
  143OSM    H3F15728   6.566   5.691   6.751 -1.4839  2.2608 -2.4690
  143OSM    H3G15729   6.666   5.799   6.677  0.4805  0.2023  0.5933
  143OSM    C4F15730   6.768   5.614   6.746 -0.2124 -0.0097  0.4356
  143OSM    H4F15731   6.860   5.644   6.692  0.1896 -0.1678  1.0200
  143OSM    H4G15732   6.756   5.505   6.729 -0.4713  0.0101  0.4870
  143OSM    C5F15733   6.783   5.636   6.897 -0.0427  0.0550 -0.4512
  143OSM    H5F15734   6.699   5.591   6.954 -2.5775  3.3542 -1.2439
  143OSM    H5G15735   6.774   5.746   6.909 -1.4859  0.1186 -1.7239
  143OSM    C6F15736   6.925   5.596   6.954 -0.1063  0.2323 -0.1219
  143OSM    H6F15737   6.941   5.644   7.053  0.9271 -2.4590  1.1135
  143OSM    H6G15738   7.000   5.644   6.888 -0.4151  1.7100  0.5636
  143OSM    C7F15739   6.939   5.443   6.967 -0.2814 -0.3359  0.3207
  143OSM    H7F15740   6.993   5.416   6.874 -3.3006  1.4476 -2.1819
  143OSM    H7G15741   6.837   5.397   6.967  0.3697 -1.8545 -0.9529
  143OSM    C8F15742   7.019   5.376   7.078  0.2488  0.7554 -0.4094
  143OSM    H8F15743   7.117   5.427   7.084  0.1799  0.7564  3.3519
  143OSM    H8G15744   7.040   5.269   7.053 -0.9136  0.8179 -1.7596
  143OSM    C9F15745   6.967   5.394   7.219 -0.2615 -0.1803  0.1234
  143OSM    H9F15746   6.976   5.497   7.256  0.2224 -0.3304  0.4378
  143OSM   C10F15747   6.935   5.287   7.299 -0.1777  0.1659  0.1418
  143OSM   H10F15748   6.911   5.313   7.403  0.8330  1.5223  0.0722
  143OSM   C11F15749   6.941   5.139   7.257  0.3156 -0.0445  0.8661
  143OSM   H11F15750   6.968   5.123   7.150  2.3289 -0.8452  1.4442
  143OSM   H11G15751   6.837   5.101   7.266 -0.1703  0.2459 -2.4642
  143OSM   C12F15752   7.034   5.048   7.335 -0.9024 -0.0476 -1.2292
  143OSM   H12F15753   7.135   5.093   7.331 -0.9652  0.0178 -3.3658
  143OSM   H12G15754   7.037   4.958   7.270 -0.6656  0.3763 -1.8150
  143OSM   C13F15755   6.996   5.011   7.481 -0.3316  0.0657  0.5959
  143OSM   H13F15756   6.907   4.945   7.491 -0.7086  0.1834 -1.5208
  143OSM   H13G15757   6.965   5.099   7.541 -1.1311  0.9310 -0.9993
  143OSM   C14F15758   7.115   4.959   7.565  0.2360  0.6425  0.3458
  143OSM   H14F15759   7.202   5.027   7.566  0.6094  0.1734  0.0434
  143OSM   H14G15760   7.156   4.874   7.507  2.0082  2.5571 -1.3635
  143OSM   C15F15761   7.064   4.920   7.703  0.0988  0.6010 -0.9675
  143OSM   H15F15762   7.112   4.829   7.745  0.1113  1.7584  1.7761
  143OSM   H15G15763   6.956   4.894   7.707  0.0481  0.2234 -3.4192
  143OSM   C16F15764   7.093   5.031   7.806  0.9527 -0.1130 -0.1523
  143OSM   H16F15765   7.019   5.009   7.886  1.4447  0.0242  0.3524
  143OSM   H16G15766   7.083   5.133   7.764 -0.2432 -0.0822  0.1781
  143OSM   C17F15767   7.231   5.033   7.870 -0.6984  0.5224 -0.1393
  143OSM   H17F15768   7.296   5.078   7.792  0.8629  0.2745  0.9803
  143OSM   H17G15769   7.265   4.927   7.876 -0.8581  0.3111 -2.2066
  143OSM   C18F15770   7.237   5.101   8.001  0.4062 -0.1482 -0.4483
  143OSM   H18F15771   7.339   5.138   8.025  0.1327 -0.0128  0.5407
  143OSM   H18G15772   7.214   5.017   8.069 -0.7073  0.9715  0.6228
  143OSM   H18H15773   7.160   5.181   8.003 -0.1294 -0.6372 -1.2208
  144OSM      N15774   5.368   4.978   6.228  0.0649 -0.1884 -0.1207
  144OSM    C1515775   5.381   5.124   6.192  0.3121  0.2454 -0.0313
  144OSM   H15A15776   5.290   5.179   6.212 -1.0991 -1.1341 -2.2340
  144OSM   H15B15777   5.426   5.142   6.095  1.7910  0.4479  0.6655
  144OSM   H15C15778   5.446   5.179   6.259  1.9528 -0.2322 -1.1727
  144OSM    C1415779   5.502   4.899   6.218  1.5061  0.1459 -0.0806
  144OSM   H14A15780   5.506   4.809   6.277  1.6861  0.8996  1.0758
  144OSM   H14B15781   5.587   4.956   6.251  2.1827 -1.6307  1.3366
  144OSM   H14C15782   5.526   4.874   6.116  0.1797 -0.1370 -0.3474
  144OSM    C1315783   5.320   4.962   6.372  0.3064 -0.2077  1.5285
  144OSM   H13A15784   5.311   4.859   6.402 -0.5855 -0.4958  0.3513
  144OSM   H13B15785   5.219   4.999   6.383  0.2222  0.4647 -0.8856
  144OSM   H13C15786   5.381   5.020   6.440 -2.3068  1.2906  2.7560
  144OSM    C1215787   5.270   4.909   6.139 -0.1805  0.2594 -1.0321
  144OSM   H12A15788   5.265   4.817   6.194  0.1792  0.7183 -0.2145
  144OSM   H12B15789   5.303   4.875   6.042 -1.4959  1.1384 -1.8099
  144OSM    C1115790   5.126   4.964   6.123 -0.6192 -0.3382 -0.0921
  144OSM   H11A15791   5.082   4.922   6.030 -1.4609 -0.2117  0.2458
  144OSM   H11B15792   5.123   5.074   6.108 -0.5403 -0.4850 -1.3305
  144OSM      P15793   4.952   4.805   6.230  0.4015  0.3940  0.2191
  144OSM    O1315794   4.841   4.835   6.139  0.1299  0.1732 -0.2553
  144OSM    O1415795   5.041   4.695   6.191 -0.1457  0.3946  0.3482
  144OSM    O1115796   4.893   4.781   6.374 -0.4950  0.0217  0.1589
  144OSM    O1215797   5.048   4.937   6.238 -0.4269  0.2653  0.3285
  144OSM    C1S15798   4.884   4.891   6.468 -0.7860  0.7525  0.4643
  144OSM    H1S15799   4.776   4.917   6.475 -0.9028  0.1468  1.0385
  144OSM    H1T15800   4.946   4.978   6.438  1.1220 -0.5168  0.5118
  144OSM     NF15801   4.955   4.968   6.701  0.6940 -0.8944  0.0900
  144OSM    HNF15802   5.049   4.993   6.723  0.3088  1.2968 -0.5601
  144OSM    C2S15803   4.926   4.852   6.612 -0.3013  0.1205 -0.0179
  144OSM    H2S15804   4.847   4.793   6.662  0.3926 -0.7392  0.0910
  144OSM    C3S15805   5.059   4.757   6.612 -0.0578  0.2864 -1.3601
  144OSM    H3S15806   5.143   4.817   6.573 -0.0387  1.4049  0.2764
  144OSM     O315807   5.043   4.642   6.527 -0.1739 -0.4074 -0.3608
  144OSM    HO315808   4.994   4.671   6.450  0.4315 -0.9291 -0.9505
  144OSM    C4S15809   5.097   4.715   6.757 -0.1938 -0.4461 -0.0126
  144OSM    H4S15810   5.022   4.652   6.807 -0.2849  0.2675  0.7789
  144OSM    C5S15811   5.210   4.755   6.816 -0.4797  0.1723 -0.2259
  144OSM    H5S15812   5.292   4.788   6.750 -0.1238 -1.2594 -0.5294
  144OSM    C6S15813   5.247   4.717   6.960 -0.2724  0.2255 -0.6832
  144OSM    H6S15814   5.353   4.699   6.985 -0.6367 -1.4045 -0.1639
  144OSM    H6T15815   5.188   4.630   6.995  0.2221 -0.4641 -1.5203
  144OSM    C7S15816   5.205   4.844   7.050  0.0398  0.2421  0.6882
  144OSM    H7S15817   5.103   4.879   7.023 -0.8533 -1.5096  1.6077
  144OSM    H7T15818   5.281   4.923   7.032  1.1786 -1.1661 -0.9485
  144OSM    C8S15819   5.200   4.807   7.203 -0.3549 -0.2169 -0.3567
  144OSM    H8S15820   5.302   4.772   7.229 -0.4367 -1.1342 -1.1893
  144OSM    H8T15821   5.129   4.722   7.206 -3.0807  1.8818 -1.0099
  144OSM    C9S15822   5.168   4.921   7.297 -0.0595 -0.0128  0.0342
  144OSM    H9S15823   5.062   4.951   7.280 -0.4681  1.6605  4.3063
  144OSM    H9T15824   5.226   5.003   7.249  0.6047 -2.2055 -3.2580
  144OSM   C10S15825   5.185   4.889   7.448  0.3422 -0.4261  0.4705
  144OSM   H10S15826   5.135   4.791   7.463  1.3334 -0.8828  0.8838
  144OSM   H10T15827   5.121   4.961   7.502 -1.0044  0.1819 -1.8050
  144OSM   C11S15828   5.332   4.895   7.495 -0.5349  0.5350 -0.5068
  144OSM   H11S15829   5.379   4.967   7.425  0.7657  0.5139  0.3021
  144OSM   H11T15830   5.383   4.800   7.466  1.1686  1.5865 -1.1080
  144OSM   C12S15831   5.362   4.942   7.635 -0.5985 -0.1346 -0.7349
  144OSM   H12S15832   5.283   4.888   7.692 -1.4476  1.2425 -0.5856
  144OSM   H12T15833   5.338   5.050   7.633  1.1555  0.2888 -0.8606
  144OSM   C13S15834   5.504   4.908   7.696 -0.2792 -0.1512 -0.1051
  144OSM   H13S15835   5.574   4.955   7.624 -1.1980 -0.3489 -1.1445
  144OSM   H13T15836   5.523   4.798   7.698 -1.0484 -0.3474 -1.8813
  144OSM   C14S15837   5.530   4.978   7.832  0.3722 -0.3065 -1.1096
  144OSM   H14S15838   5.444   4.955   7.899  1.1178  0.6403  0.2087
  144OSM   H14T15839   5.533   5.088   7.815 -1.2197 -0.0904 -0.2083
  144OSM   C15S15840   5.655   4.951   7.913  0.2521 -0.2886 -0.0449
  144OSM   H15S15841   5.747   4.978   7.857  0.7068  1.1945  1.3347
  144OSM   H15T15842   5.659   4.846   7.948  1.1029 -0.1460  0.3027
  144OSM   C16S15843   5.666   5.033   8.044  0.0052 -0.6782  0.0052
  144OSM   H16S15844   5.567   5.037   8.094  0.8127 -1.2449  1.7468
  144OSM   H16T15845   5.698   5.137   8.022  0.0431 -1.0895 -2.0125
  144OSM   C17S15846   5.756   4.962   8.146 -0.5914  0.2481  0.0578
  144OSM   H17S15847   5.858   4.953   8.102 -1.1870  2.1272 -1.8829
  144OSM   H17T15848   5.714   4.861   8.163 -0.0587 -0.0571 -0.3875
  144OSM   C18S15849   5.765   5.047   8.279  0.2846  0.3090  0.6844
  144OSM   H18S15850   5.828   4.995   8.355 -0.1136 -0.7076  0.3317
  144OSM   H18T15851   5.662   5.063   8.316 -0.8610  0.3345 -2.2607
  144OSM   H18U15852   5.824   5.137   8.251 -0.9362  0.5517 -1.2576
  144OSM    C1F15853   4.857   5.049   6.737 -0.3506  0.0347  0.3161
  144OSM     OF15854   4.736   5.033   6.703 -1.0555 -0.0129 -0.2910
  144OSM    C2F15855   4.897   5.175   6.801 -0.0869 -0.5977  0.1360
  144OSM    H2F15856   4.874   5.257   6.730 -2.3861 -0.2741  1.1623
  144OSM    H2G15857   5.005   5.171   6.829  0.1838 -0.1670 -0.8262
  144OSM    C3F15858   4.824   5.189   6.929 -0.0464 -0.0998 -0.6145
  144OSM    H3F15859   4.845   5.107   7.002  0.4329  0.5616  0.0091
  144OSM    H3G15860   4.713   5.192   6.931 -0.0135  1.3532 -0.0603
  144OSM    C4F15861   4.870   5.321   6.992 -0.5490  0.2419 -0.0899
  144OSM    H4F15862   4.829   5.399   6.924  0.8693  1.0048 -0.1038
  144OSM    H4G15863   4.980   5.330   6.990 -0.6355  1.6755 -2.6136
  144OSM    C5F15864   4.814   5.343   7.136  0.1971 -1.2623 -0.0470
  144OSM    H5F15865   4.704   5.325   7.131  0.2948 -3.0292  2.4715
  144OSM    H5G15866   4.813   5.453   7.156  0.7791 -1.7839  3.4924
  144OSM    C6F15867   4.892   5.267   7.240 -0.2469 -0.1890 -0.0422
  144OSM    H6F15868   4.993   5.311   7.250 -0.2673  0.6780 -2.8576
  144OSM    H6G15869   4.904   5.157   7.226 -0.6533 -0.7314  3.1185
  144OSM    C7F15870   4.819   5.264   7.378 -0.0618  0.1384 -0.1222
  144OSM    H7F15871   4.721   5.216   7.364  0.4886 -0.9628 -0.3048
  144OSM    H7G15872   4.812   5.368   7.416  1.2795  0.1316  0.1995
  144OSM    C8F15873   4.899   5.180   7.480  0.3837  1.3555 -0.6085
  144OSM    H8F15874   4.930   5.083   7.435  4.6086  0.6484  3.1705
  144OSM    H8G15875   4.844   5.167   7.575 -1.1271  2.6057 -1.2586
  144OSM    C9F15876   5.026   5.238   7.527  0.0375 -0.2871 -0.4998
  144OSM    H9F15877   5.096   5.264   7.446 -0.4880  0.2610 -0.7842
  144OSM   C10F15878   5.072   5.236   7.653 -0.0463 -0.0406  0.1348
  144OSM   H10F15879   5.170   5.278   7.679 -0.1810 -1.9547  4.3795
  144OSM   C11F15880   4.997   5.202   7.783 -0.4582  0.1380 -0.3970
  144OSM   H11F15881   4.889   5.183   7.766 -1.0248  1.7721  1.1065
  144OSM   H11G15882   5.002   5.292   7.848 -1.6216  0.9953 -1.4220
  144OSM   C12F15883   5.066   5.083   7.851  0.1958  0.7859  0.3702
  144OSM   H12F15884   5.170   5.104   7.887  0.4776 -1.9492  1.3374
  144OSM   H12G15885   5.085   5.000   7.780  2.5308  3.2839 -2.1892
  144OSM   C13F15886   4.982   5.030   7.973  0.4783 -0.7850  0.0932
  144OSM   H13F15887   5.010   4.926   8.000  2.1634 -0.9996 -2.1253
  144OSM   H13G15888   4.875   5.037   7.946  0.4574 -0.2609  0.2858
  144OSM   C14F15889   5.001   5.113   8.102 -1.1040 -0.5468  0.0754
  144OSM   H14F15890   4.979   5.221   8.085 -1.1623 -0.6912 -0.8576
  144OSM   H14G15891   5.109   5.105   8.124 -0.6930  2.2795 -0.4271
  144OSM   C15F15892   4.928   5.063   8.226 -0.0691 -0.4068  0.1450
  144OSM   H15F15893   4.960   4.957   8.235  1.9522  0.1634  0.1357
  144OSM   H15G15894   4.818   5.076   8.217 -0.1318 -0.0502  1.2911
  144OSM   C16F15895   4.971   5.146   8.348  0.4756  0.0042  0.2738
  144OSM   H16F15896   4.935   5.250   8.333  0.1559  0.2012  2.1516
  144OSM   H16G15897   5.082   5.146   8.350  0.5129  0.8853 -0.7923
  144OSM   C17F15898   4.926   5.079   8.487 -0.0897 -0.0553  0.0546
  144OSM   H17F15899   4.821   5.046   8.468 -0.4799  1.2859 -0.2452
  144OSM   H17G15900   4.925   5.153   8.570 -2.4623  0.1753 -0.1080
  144OSM   C18F15901   5.005   4.954   8.525 -0.0206 -0.2201 -0.4607
  144OSM   H18F15902   5.111   4.977   8.547  0.6245 -3.0506 -0.2384
  144OSM   H18G15903   4.997   4.883   8.440 -0.0861 -0.6289 -0.1147
  144OSM   H18H15904   4.958   4.903   8.612 -0.2470  2.3571  1.0423
  145SAPE     N15905   2.769   0.308  10.441 -0.2970  0.1654  1.0973
  145SAPE   HN115906   2.808   0.334  10.348  4.0672 -3.9785  1.3830
  145SAPE   HN215907   2.723   0.215  10.432  0.0644 -0.0930  1.8331
  145SAPE   HN315908   2.701   0.379  10.476  0.8210  1.8805 -0.0327
  145SAPE   C1215909   2.880   0.296  10.541 -0.8340 -0.1781  0.5863
  145SAPE  H12A15910   2.826   0.288  10.637 -3.3003 -3.6024 -0.8985
  145SAPE  H12B15911   2.939   0.391  10.536  0.0659 -0.7944 -1.5666
  145SAPE   C1115912   2.975   0.173  10.515  0.2684 -0.0930 -0.7772
  145SAPE  H11A15913   3.047   0.167  10.599  0.8592  0.5120 -1.2300
  145SAPE  H11B15914   3.030   0.199  10.422 -2.5439  2.3899 -1.9244
  145SAPE     P15915   2.962  -0.071  10.435  0.2842 -0.2486 -0.4710
  145SAPE   O1315916   3.070  -0.118  10.526 -0.4331  0.2876 -0.5616
  145SAPE   O1415917   2.859  -0.165  10.396 -0.1498 -0.0529 -0.3881
  145SAPE   O1215918   2.901   0.056  10.493  0.3908 -0.1836 -0.1186
  145SAPE   O1115919   3.030  -0.030  10.302 -0.2614  0.0365 -0.1645
  145SAPE    C115920   2.951   0.041  10.205  0.3611 -0.1751 -0.3341
  145SAPE    HA15921   2.853  -0.006  10.181  0.6824 -0.5469 -0.9496
  145SAPE    HB15922   2.944   0.148  10.233  1.6442  0.0727 -0.9169
  145SAPE    C215923   3.024   0.034  10.076 -0.3136  0.2096  0.9122
  145SAPE    HS15924   3.119   0.092  10.075 -0.4630  0.6029 -2.1380
  145SAPE   O2115925   2.931   0.076   9.971 -0.3771  0.6229  0.3770
  145SAPE   C2115926   2.945   0.204   9.929  0.1705 -0.2403 -0.1125
  145SAPE   O2215927   3.024   0.285   9.974 -0.2868 -0.2220  0.8992
  145SAPE   C2215928   2.838   0.229   9.814  0.4714 -0.3002 -0.2060
  145SAPE   H2R15929   2.738   0.207   9.858  0.4946  1.0678  0.5942
  145SAPE   H2S15930   2.849   0.337   9.791 -1.7553  0.3153  1.2340
  145SAPE    C315931   3.075  -0.115  10.043  0.3961 -1.3997 -0.2574
  145SAPE    HX15932   2.994  -0.179  10.085  0.1796 -1.2950 -0.5081
  145SAPE    HY15933   3.169  -0.128  10.101  1.9560  4.6568 -0.7653
  145SAPE   O3115934   3.098  -0.144   9.901 -0.0343 -0.5787  0.0736
  145SAPE   C3115935   3.219  -0.101   9.857  0.4332 -0.5696 -0.5721
  145SAPE   O3215936   3.296  -0.045   9.936 -0.6432 -0.4855  0.2045
  145SAPE   C3215937   3.237  -0.132   9.706 -0.1952 -0.1109  0.5843
  145SAPE   H2X15938   3.180  -0.057   9.647  0.2786 -0.4967 -0.3895
  145SAPE   H2Y15939   3.187  -0.229   9.684 -2.2401  1.1237 -0.5742
  145SAPE   C2315940   2.878   0.151   9.685  0.6133  0.1997 -0.0942
  145SAPE   H3R15941   2.786   0.124   9.628  3.1288 -3.4510 -2.9077
  145SAPE   H3S15942   2.911   0.057   9.734 -0.6917 -0.0273  0.3886
  145SAPE   C2415943   2.991   0.204   9.592 -1.1975  0.3619 -0.0391
  145SAPE   H4R15944   3.027   0.111   9.543 -0.3818 -0.3101  1.7252
  145SAPE   H4S15945   3.073   0.242   9.657 -0.2877 -0.5115 -0.6549
  145SAPE   C2515946   2.942   0.316   9.509  1.1392  0.6153  0.4825
  145SAPE   H5R15947   2.967   0.419   9.537  0.6233  0.5399  1.2523
  145SAPE   C2615948   2.872   0.299   9.396 -0.1222 -0.0495 -0.1809
  145SAPE   H6R15949   2.845   0.393   9.345 -0.0052  1.3247  2.1272
  145SAPE   C2715950   2.830   0.174   9.331  0.7163 -0.4348  0.5764
  145SAPE   H7R15951   2.796   0.101   9.408 -2.4517 -1.9076 -1.9851
  145SAPE   H7S15952   2.909   0.120   9.275  2.7713  1.0697  1.8724
  145SAPE   C2815953   2.711   0.197   9.241  0.0562 -0.2453  0.0762
  145SAPE   H8R15954   2.623   0.241   9.290  0.7269  1.3275 -0.0945
  145SAPE   C2915955   2.705   0.170   9.111  0.9030  0.4293 -0.3910
  145SAPE   H9R15956   2.605   0.173   9.065  0.3270 -0.2870  0.7850
  145SAPE  C21015957   2.815   0.120   9.014  0.1976 -0.1381  0.2046
  145SAPE  H10R15958   2.908   0.128   9.074  0.9899  2.4157 -1.2194
  145SAPE  H10S15959   2.810   0.197   8.933 -4.6042 -0.7164 -0.3203
  145SAPE  C21115960   2.787  -0.019   8.966 -0.0959  0.6644 -0.4302
  145SAPE  H11R15961   2.716  -0.078   9.026  0.6547 -1.9703 -1.9789
  145SAPE  C21215962   2.834  -0.085   8.858 -0.5618 -0.4138  0.1956
  145SAPE  H12R15963   2.805  -0.186   8.826  1.1635 -0.7863 -0.2872
  145SAPE  C21315964   2.923  -0.027   8.753  0.7044 -0.0138  0.3598
  145SAPE  H13R15965   2.943   0.080   8.772 -2.5542  0.9095 -0.6739
  145SAPE  H13S15966   2.860  -0.025   8.662  1.8376  1.5100 -0.4391
  145SAPE  C21415967   3.051  -0.102   8.729 -0.5225  0.2513  0.5320
  145SAPE  H14R15968   3.110  -0.117   8.821  1.2427 -0.5779 -0.6852
  145SAPE  C21515969   3.091  -0.157   8.614  0.3460 -0.4064  0.4860
  145SAPE  H15R15970   3.183  -0.217   8.617  1.5826  1.3743  0.0863
  145SAPE  C21615971   3.028  -0.165   8.478 -0.2804 -0.6557  0.6765
  145SAPE  H16R15972   3.045  -0.064   8.437  0.5879 -1.0280  0.1016
  145SAPE  H16S15973   2.918  -0.172   8.493 -0.4439  0.9013  0.3235
  145SAPE  C21715974   3.081  -0.277   8.389 -0.5552 -0.6952  0.2108
  145SAPE  H17R15975   3.056  -0.380   8.420 -0.8698 -0.6781  0.0207
  145SAPE  H17S15976   3.191  -0.263   8.383 -0.8667  1.5678 -2.2281
  145SAPE  C21815977   3.037  -0.278   8.244 -0.1206 -0.1245 -0.5333
  145SAPE  H18R15978   3.034  -0.174   8.205 -3.6577  0.7607  1.6538
  145SAPE  H18S15979   2.933  -0.314   8.229 -0.1248 -0.7674  0.9056
  145SAPE  C21915980   3.134  -0.360   8.150  0.0673  0.0236 -0.9007
  145SAPE  H19R15981   3.140  -0.461   8.194 -1.5187  0.2156 -0.1693
  145SAPE  H19S15982   3.239  -0.326   8.162 -0.7198  3.3851 -2.2890
  145SAPE  C22015983   3.101  -0.361   7.999  0.4128  0.0006  0.4970
  145SAPE  H20R15984   3.097  -0.257   7.961  1.9341  1.0274  2.8667
  145SAPE  H20S15985   3.008  -0.419   7.986  0.4077 -0.2733  1.6023
  145SAPE  H20T15986   3.189  -0.400   7.944 -0.1716  0.4515 -0.7830
  145SAPE   C3315987   3.385  -0.115   9.663  0.1736  0.5874  0.6012
  145SAPE   H3X15988   3.462  -0.192   9.686 -2.7973 -2.5250  1.0044
  145SAPE   H3Y15989   3.424  -0.020   9.706 -1.4846  1.8373 -0.5287
  145SAPE   C3415990   3.397  -0.084   9.513 -0.1567  0.4920  0.2747
  145SAPE   H4X15991   3.327  -0.002   9.486 -0.8257 -0.6414 -1.6324
  145SAPE   H4Y15992   3.394  -0.182   9.459 -1.2734  1.3205 -1.2346
  145SAPE   C3515993   3.542  -0.028   9.475  0.0207  0.2268  0.1321
  145SAPE   H5X15994   3.622  -0.101   9.499  0.9310  1.2927  0.4473
  145SAPE   H5Y15995   3.556   0.063   9.538 -3.0383  1.7082 -1.1160
  145SAPE   C3615996   3.563   0.003   9.328 -0.7760 -0.1145  0.1945
  145SAPE   H6X15997   3.473   0.056   9.291 -0.2293  1.1718  0.6714
  145SAPE   H6Y15998   3.573  -0.093   9.272 -0.4127 -0.4373  0.8011
  145SAPE   C3715999   3.686   0.095   9.304  1.1039  0.6294  0.1609
  145SAPE   H7X16000   3.776   0.033   9.323 -0.9817 -1.9250  2.4860
  145SAPE   H7Y16001   3.675   0.184   9.369 -0.6682  0.1415  0.5840
  145SAPE   C3816002   3.692   0.153   9.163 -0.2394 -0.3223  0.5857
  145SAPE   H8X16003   3.789   0.205   9.145 -1.0802  0.6558 -1.4674
  145SAPE   H8Y16004   3.615   0.233   9.156 -0.2208 -0.3286  0.2763
  145SAPE   C3916005   3.663   0.062   9.046 -0.0943  0.5794  0.4005
  145SAPE   H9X16006   3.559   0.022   9.053 -0.3046  0.5684 -2.0066
  145SAPE   H9Y16007   3.728  -0.028   9.046 -3.7183 -2.3409 -0.9508
  145SAPE  C31016008   3.663   0.137   8.908 -0.2100 -0.6088  0.0105
  145SAPE  H10X16009   3.771   0.158   8.891 -0.4216 -0.4165 -1.1579
  145SAPE  H10Y16010   3.612   0.235   8.904  0.4448 -0.3059 -1.9455
  145SAPE  C31116011   3.622   0.048   8.789 -0.8712 -0.3284 -0.1240
  145SAPE  H11X16012   3.514   0.046   8.763 -0.6187  0.2736 -1.2771
  145SAPE  H11Y16013   3.658  -0.052   8.819  0.1577 -0.2906 -1.1411
  145SAPE  C31216014   3.692   0.090   8.657  0.5492 -0.5655 -0.3396
  145SAPE  H12X16015   3.779   0.154   8.682  0.3540 -1.1182  1.8975
  145SAPE  H12Y16016   3.624   0.159   8.603  1.5070 -0.1194 -1.0053
  145SAPE  C31316017   3.721  -0.036   8.572  1.2792  0.5474  0.2349
  145SAPE  H13X16018   3.773  -0.112   8.634  1.9693  1.3328  0.6453
  145SAPE  H13Y16019   3.787   0.004   8.493  0.9638 -0.8397 -0.7664
  145SAPE  C31416020   3.595  -0.087   8.504  0.0651  0.2024 -0.2703
  145SAPE  H14X16021   3.556  -0.003   8.442  1.2075  1.9375  1.2444
  145SAPE  H14Y16022   3.527  -0.107   8.590 -3.4040 -3.7865 -3.4809
  145SAPE  C31516023   3.597  -0.219   8.421  0.0517 -0.3484 -0.0326
  145SAPE  H15X16024   3.498  -0.266   8.435  0.2323 -0.1971  2.0059
  145SAPE  H15Y16025   3.676  -0.276   8.475  0.4976  1.1697  1.0085
  145SAPE  C31616026   3.646  -0.201   8.276  0.9188  0.3982  0.0223
  145SAPE  H16X16027   3.571  -0.134   8.229  0.4278  0.0173  0.2513
  145SAPE  H16Y16028   3.643  -0.298   8.221 -2.5707 -0.2305  1.0532
  145SAPE  C31716029   3.777  -0.128   8.251 -0.1470 -0.0728 -0.3524
  145SAPE  H17X16030   3.769  -0.021   8.277 -2.8379 -0.5835  1.2964
  145SAPE  H17Y16031   3.794  -0.123   8.141  0.0636  1.9242 -0.2571
  145SAPE  C31816032   3.894  -0.194   8.323 -0.3074  0.2849 -0.0539
  145SAPE  H18X16033   3.854  -0.251   8.409 -1.0102 -1.1003 -1.2467
  145SAPE  H18Y16034   3.974  -0.124   8.357  0.5437 -0.3488 -0.6823
  145SAPE  H18Z16035   3.952  -0.258   8.253 -0.0233  1.8789 -1.3521
  146SAPE     N16036   1.442   0.037  11.047  0.3207 -0.4140 -0.5412
  146SAPE   HN116037   1.441   0.122  11.106  1.0946 -0.8616  0.1323
  146SAPE   HN216038   1.341   0.018  11.035 -0.1850  1.8378 -0.2016
  146SAPE   HN316039   1.480  -0.042  11.103 -0.4067 -0.7545 -0.5230
  146SAPE   C1216040   1.511   0.061  10.910  0.4762  0.2459  0.5877
  146SAPE  H12A16041   1.509  -0.036  10.855 -1.2025  1.1513 -1.0457
  146SAPE  H12B16042   1.620   0.076  10.922  0.7969 -1.0941 -0.3829
  146SAPE   C1116043   1.430   0.163  10.828 -0.0236  0.3273  0.5643
  146SAPE  H11A16044   1.333   0.114  10.806 -1.0204  1.6376  1.8919
  146SAPE  H11B16045   1.475   0.182  10.728 -1.9354 -1.3334 -0.6937
  146SAPE     P16046   1.304   0.393  10.844  0.0411  0.0864 -0.3546
  146SAPE   O1316047   1.176   0.352  10.908 -0.2802  0.0694  0.2725
  146SAPE   O1416048   1.348   0.531  10.869  0.0166  0.3359 -0.2320
  146SAPE   O1216049   1.414   0.289  10.886  0.0402 -0.0896  0.3399
  146SAPE   O1116050   1.287   0.367  10.690 -0.3067  0.3654 -0.1883
  146SAPE    C116051   1.228   0.475  10.615  0.1422 -0.3478  0.4025
  146SAPE    HA16052   1.126   0.443  10.587  0.1375 -0.8653  0.9931
  146SAPE    HB16053   1.223   0.567  10.676  1.6066 -2.7433  4.5357
  146SAPE    C216054   1.310   0.506  10.487  0.3293 -0.5670 -0.2884
  146SAPE    HS16055   1.295   0.608  10.446 -0.3819 -0.4886  0.1464
  146SAPE   O2116056   1.281   0.406  10.389  0.2589 -0.2276 -0.3733
  146SAPE   C2116057   1.193   0.435  10.296  0.0647 -0.1674 -0.0440
  146SAPE   O2216058   1.124   0.535  10.295 -0.1697 -0.3393 -0.6417
  146SAPE   C2216059   1.190   0.312  10.209  0.7171 -0.1798 -0.1024
  146SAPE   H2R16060   1.215   0.230  10.280 -1.5571  0.9034  2.1272
  146SAPE   H2S16061   1.084   0.290  10.184  0.5884  2.1349 -1.9299
  146SAPE    C316062   1.460   0.515  10.532 -0.3327 -0.0134 -0.0438
  146SAPE    HX16063   1.479   0.414  10.574  2.6139  1.0532  1.4462
  146SAPE    HY16064   1.464   0.597  10.607  2.9890 -1.8819  2.0636
  146SAPE   O3116065   1.553   0.544  10.424  0.8852  0.4093 -0.4457
  146SAPE   C3116066   1.670   0.487  10.420  0.1933 -0.0735 -0.4438
  146SAPE   O3216067   1.718   0.413  10.509  0.6138 -0.1439 -0.0236
  146SAPE   C3216068   1.745   0.517  10.290 -0.8573  0.0292 -0.0464
  146SAPE   H2X16069   1.777   0.422  10.242  0.8497  0.3035  0.4766
  146SAPE   H2Y16070   1.841   0.561  10.325 -0.4450 -0.9600  0.0993
  146SAPE   C2316071   1.277   0.324  10.082 -0.4217 -0.8268 -1.1029
  146SAPE   H3R16072   1.287   0.423  10.032  1.4698 -0.2163  0.3793
  146SAPE   H3S16073   1.223   0.266  10.004  0.5540 -2.8922 -0.3051
  146SAPE   C2416074   1.422   0.256  10.088  0.0199 -0.0963 -0.0022
  146SAPE   H4R16075   1.400   0.147  10.089  0.4820 -0.2084 -0.6756
  146SAPE   H4S16076   1.467   0.290  10.184 -0.6049  0.2698  0.1622
  146SAPE   C2516077   1.515   0.290   9.973 -0.4007  0.0438 -0.1261
  146SAPE   H5R16078   1.593   0.362  10.000  0.1702 -0.7976  0.5248
  146SAPE   C2616079   1.511   0.238   9.849  1.1659  0.5627  0.3486
  146SAPE   H6R16080   1.591   0.267   9.779  0.9743  1.7085  0.5839
  146SAPE   C2716081   1.414   0.135   9.798  0.0894 -0.3155  0.0731
  146SAPE   H7R16082   1.324   0.171   9.744  0.1921  1.0982  0.8153
  146SAPE   H7S16083   1.371   0.080   9.884 -1.9343  2.6475  1.1119
  146SAPE   C2816084   1.478   0.038   9.703  0.1154 -0.1606 -0.1419
  146SAPE   H8R16085   1.521  -0.050   9.752  1.0879  0.3379 -0.0858
  146SAPE   C2916086   1.506   0.065   9.575 -0.3119  0.3267  0.3900
  146SAPE   H9R16087   1.551  -0.009   9.506  0.1059  1.4712 -0.5964
  146SAPE  C21016088   1.478   0.193   9.509 -0.3987 -0.0752 -0.5156
  146SAPE  H10R16089   1.483   0.282   9.575  6.3394  0.5248 -1.0979
  146SAPE  H10S16090   1.372   0.197   9.475 -1.3276 -2.0197  1.7886
  146SAPE  C21116091   1.566   0.212   9.391  0.0972 -0.6115 -0.1129
  146SAPE  H11R16092   1.673   0.210   9.420  0.3359  1.5092 -0.6973
  146SAPE  C21216093   1.530   0.241   9.262  0.0905 -0.0688 -0.1640
  146SAPE  H12R16094   1.611   0.271   9.193 -1.1693 -0.5652 -1.9223
  146SAPE  C21316095   1.402   0.265   9.201  0.7764 -0.0100 -0.0695
  146SAPE  H13R16096   1.325   0.200   9.249  0.7353 -2.2160 -2.8337
  146SAPE  H13S16097   1.393   0.224   9.098  0.2948  1.2937 -0.5643
  146SAPE  C21416098   1.366   0.411   9.201 -0.7686 -0.7455  0.3175
  146SAPE  H14R16099   1.277   0.441   9.258 -1.1035 -1.8204  0.3822
  146SAPE  C21516100   1.424   0.507   9.125 -0.1364 -0.0718 -0.3195
  146SAPE  H15R16101   1.400   0.614   9.129 -0.0343 -0.0973  1.3205
  146SAPE  C21616102   1.534   0.474   9.028 -0.0105 -0.4647 -0.3742
  146SAPE  H16R16103   1.500   0.513   8.930 -0.9556 -1.9517 -0.6776
  146SAPE  H16S16104   1.532   0.365   9.008 -0.1463 -0.7061  0.8565
  146SAPE  C21716105   1.674   0.537   9.053 -0.7965  0.3742  0.2313
  146SAPE  H17R16106   1.727   0.477   9.130 -1.3848 -2.1121 -1.1880
  146SAPE  H17S16107   1.672   0.639   9.096 -0.9761  1.3984 -2.1013
  146SAPE  C21816108   1.746   0.536   8.918 -0.3534  0.5652  0.1921
  146SAPE  H18R16109   1.690   0.588   8.837  0.6683 -0.8965 -1.5298
  146SAPE  H18S16110   1.738   0.432   8.880 -0.1990  0.4389  0.5053
  146SAPE  C21916111   1.892   0.583   8.930 -0.1489 -0.1686 -0.0821
  146SAPE  H19R16112   1.948   0.522   9.003  0.7469 -0.7369 -1.2068
  146SAPE  H19S16113   1.893   0.681   8.981  1.5081 -0.1474 -0.1016
  146SAPE  C22016114   1.974   0.582   8.802  0.2552 -0.2688  0.0239
  146SAPE  H20R16115   2.038   0.492   8.792  2.1512  1.0329 -0.0149
  146SAPE  H20S16116   2.038   0.672   8.787 -1.5826  0.9092 -1.1177
  146SAPE  H20T16117   1.913   0.596   8.711  3.1406 -0.2656 -2.0400
  146SAPE   C3316118   1.669   0.619  10.204 -0.7293  0.4535  0.2563
  146SAPE   H3X16119   1.633   0.696  10.276 -1.3557  0.0595  0.3728
  146SAPE   H3Y16120   1.578   0.568  10.166 -1.2878  0.8270  1.0717
  146SAPE   C3416121   1.756   0.682  10.095  0.2048 -0.0675  0.7368
  146SAPE   H4X16122   1.854   0.708  10.141  1.2208 -1.1938 -0.6995
  146SAPE   H4Y16123   1.706   0.778  10.072 -0.7459 -0.9115 -0.9198
  146SAPE   C3516124   1.787   0.605   9.969 -0.7674  0.0726  0.3689
  146SAPE   H5X16125   1.695   0.588   9.909 -2.0456  0.7418  2.0595
  146SAPE   H5Y16126   1.826   0.502   9.988 -0.7304 -0.0275 -0.2361
  146SAPE   C3616127   1.895   0.669   9.877  0.0321 -0.7087  0.0171
  146SAPE   H6X16128   1.980   0.712   9.934  0.2308  0.1066 -0.8584
  146SAPE   H6Y16129   1.845   0.749   9.818  1.1587  0.2316  0.2910
  146SAPE   C3716130   1.965   0.581   9.770  0.8680 -0.4316  0.3551
  146SAPE   H7X16131   1.980   0.642   9.679 -0.2038 -0.3090  0.2469
  146SAPE   H7Y16132   1.888   0.502   9.755 -0.3686  0.6361  0.9182
  146SAPE   C3816133   2.100   0.530   9.815  0.4304 -0.0315  0.5758
  146SAPE   H8X16134   2.090   0.445   9.885  0.2504 -1.2035 -0.8231
  146SAPE   H8Y16135   2.162   0.603   9.872  0.7036  1.5226 -1.5875
  146SAPE   C3916136   2.175   0.469   9.698 -0.6137 -0.2200  0.5919
  146SAPE   H9X16137   2.245   0.543   9.652 -1.2252  0.1021  0.1567
  146SAPE   H9Y16138   2.100   0.428   9.627  0.3622  0.5371 -0.9215
  146SAPE  C31016139   2.263   0.345   9.741  0.5151  0.2939 -0.0957
  146SAPE  H10X16140   2.202   0.284   9.811  0.1705  0.1379 -0.5272
  146SAPE  H10Y16141   2.344   0.388   9.805 -0.2763  0.4295  0.8450
  146SAPE  C31116142   2.307   0.272   9.617 -0.3469  0.8718  0.3946
  146SAPE  H11X16143   2.374   0.332   9.552 -1.5249  0.4718 -1.2429
  146SAPE  H11Y16144   2.221   0.239   9.555  0.7104  2.1020 -1.8729
  146SAPE  C31216145   2.379   0.144   9.659 -0.4524 -0.0541 -0.8636
  146SAPE  H12X16146   2.319   0.069   9.715  0.9583 -1.4941 -1.1983
  146SAPE  H12Y16147   2.452   0.174   9.737  0.0621  0.0741 -1.3925
  146SAPE  C31316148   2.454   0.057   9.552  0.3566 -0.3553  0.7500
  146SAPE  H13X16149   2.526  -0.012   9.601 -0.5403 -0.7510  1.5401
  146SAPE  H13Y16150   2.520   0.125   9.495 -1.7020 -0.4207 -1.8914
  146SAPE  C31416151   2.361  -0.016   9.457 -0.7014  0.0782  0.4279
  146SAPE  H14X16152   2.312   0.066   9.401  3.0618  1.2261 -1.5216
  146SAPE  H14Y16153   2.274  -0.063   9.508 -1.9428 -0.6749 -2.1740
  146SAPE  C31516154   2.432  -0.127   9.376 -0.2461  0.2225  0.4012
  146SAPE  H15X16155   2.434  -0.226   9.427  0.1801 -1.3994 -2.5533
  146SAPE  H15Y16156   2.539  -0.100   9.363 -0.1932  1.1914  2.3843
  146SAPE  C31616157   2.379  -0.149   9.238 -0.0590  0.0265 -0.2861
  146SAPE  H16X16158   2.371  -0.060   9.171 -1.9070 -0.6045 -0.9757
  146SAPE  H16Y16159   2.273  -0.178   9.258 -0.3715 -0.1393 -2.0296
  146SAPE  C31716160   2.457  -0.253   9.157  0.0875 -0.2035  0.4216
  146SAPE  H17X16161   2.468  -0.344   9.220  2.1917 -0.0022  0.4109
  146SAPE  H17Y16162   2.560  -0.212   9.158 -0.4160  1.1054  1.6932
  146SAPE  C31816163   2.419  -0.284   9.018  0.8806  0.0030  0.2475
  146SAPE  H18X16164   2.374  -0.198   8.963  2.4476 -0.3512 -1.7025
  146SAPE  H18Y16165   2.346  -0.368   9.014  0.4915  0.3684 -0.9888
  146SAPE  H18Z16166   2.510  -0.315   8.963  2.4753 -1.6151  3.5550
  147SAPE     N16167   1.850   2.953  10.560 -0.4542  0.1776 -0.5712
  147SAPE   HN116168   1.802   2.927  10.472  1.3046 -3.2334 -0.7076
  147SAPE   HN216169   1.804   2.907  10.641  3.5641  0.1742  2.0063
  147SAPE   HN316170   1.843   3.056  10.575  0.3630  0.4171 -1.7025
  147SAPE   C1216171   1.997   2.911  10.552 -0.4397  0.2985 -0.1630
  147SAPE  H12A16172   2.056   3.002  10.526 -0.3602  0.4371  0.4778
  147SAPE  H12B16173   2.005   2.842  10.466  1.8806 -0.2169  0.3946
  147SAPE   C1116174   2.047   2.846  10.675  0.2569 -0.9945 -0.8559
  147SAPE  H11A16175   2.059   2.926  10.752  0.4573  0.3755 -2.2715
  147SAPE  H11B16176   2.150   2.813  10.653  1.3390  0.9516  0.8301
  147SAPE     P16177   2.037   2.608  10.765 -0.1285 -0.3630  0.0955
  147SAPE   O1316178   2.127   2.638  10.877 -0.2128 -0.7230  0.8539
  147SAPE   O1416179   1.941   2.499  10.776  0.0985  1.1964 -0.0544
  147SAPE   O1216180   1.963   2.745  10.727 -0.2850 -0.2623 -0.1894
  147SAPE   O1116181   2.124   2.589  10.638 -0.2637 -0.7637 -0.5070
  147SAPE    C116182   2.070   2.529  10.515  0.1067 -0.6659  0.0912
  147SAPE    HA16183   1.967   2.489  10.526 -0.6062  0.8003 -0.9338
  147SAPE    HB16184   2.047   2.599  10.433 -0.6145 -1.1295 -0.1152
  147SAPE    C216185   2.163   2.419  10.474  0.3566  0.3549 -0.3383
  147SAPE    HS16186   2.197   2.368  10.566 -0.3721  0.5661  0.0590
  147SAPE   O2116187   2.276   2.477  10.390  0.1116  0.4146 -0.4096
  147SAPE   C2116188   2.374   2.388  10.384  0.2458 -0.4552 -0.0407
  147SAPE   O2216189   2.371   2.279  10.431  0.4648  0.0182 -1.0306
  147SAPE   C2216190   2.486   2.425  10.290 -0.1760  0.3131  0.3214
  147SAPE   H2R16191   2.550   2.498  10.345  1.5178 -1.1302  0.3312
  147SAPE   H2S16192   2.558   2.341  10.292  1.6080  1.7483 -0.3861
  147SAPE    C316193   2.091   2.303  10.400  1.1715  0.6479  0.1198
  147SAPE    HX16194   2.012   2.265  10.467  0.7732  4.5878  2.1703
  147SAPE    HY16195   2.164   2.221  10.382 -0.8829 -0.9709 -1.1575
  147SAPE   O3116196   2.021   2.351  10.283 -0.4416  0.7511 -0.4791
  147SAPE   C3116197   2.096   2.351  10.167  0.1332  0.8073  0.0387
  147SAPE   O3216198   2.213   2.313  10.167  0.4584  0.9900  0.0868
  147SAPE   C3216199   2.012   2.379  10.046  0.4673 -0.4140 -0.5128
  147SAPE   H2X16200   1.951   2.468  10.071  0.6989 -0.5076  0.4542
  147SAPE   H2Y16201   1.956   2.289  10.013 -0.5464 -0.3898  1.0326
  147SAPE   C2316202   2.452   2.479  10.151  0.2275  0.2638  0.2605
  147SAPE   H3R16203   2.367   2.549  10.164 -1.3870 -1.9909  2.9501
  147SAPE   H3S16204   2.421   2.403  10.077  3.2000 -0.1734 -0.6972
  147SAPE   C2416205   2.573   2.561  10.086  0.2325 -0.6803 -0.1531
  147SAPE   H4R16206   2.646   2.487  10.049  1.5543  1.4789 -2.0977
  147SAPE   H4S16207   2.609   2.622  10.171 -0.3953  0.3381 -0.5938
  147SAPE   C2516208   2.523   2.650   9.975 -0.2146  0.4661 -0.3771
  147SAPE   H5R16209   2.491   2.751  10.002 -2.7007 -0.4173  0.3383
  147SAPE   C2616210   2.503   2.612   9.849  0.3171  0.8048  0.3722
  147SAPE   H6R16211   2.463   2.686   9.777 -0.4277 -1.2743 -1.4686
  147SAPE   C2716212   2.526   2.477   9.793 -0.2463 -0.3826 -0.0313
  147SAPE   H7R16213   2.435   2.439   9.742 -1.1210  0.5471  0.8097
  147SAPE   H7S16214   2.526   2.404   9.877 -1.8283  0.9960  1.2240
  147SAPE   C2816215   2.645   2.476   9.704  0.1601 -0.1538 -0.4292
  147SAPE   H8R16216   2.740   2.464   9.759 -0.5965 -0.3331  0.8962
  147SAPE   C2916217   2.650   2.515   9.579 -0.1213  0.2533  1.2152
  147SAPE   H9R16218   2.731   2.478   9.514 -1.4440  0.7478 -0.8236
  147SAPE  C21016219   2.541   2.563   9.489 -0.4436 -0.6887  0.0064
  147SAPE  H10R16220   2.582   2.640   9.421 -0.8137 -1.9646 -1.7325
  147SAPE  H10S16221   2.452   2.600   9.545  1.3958  2.2323  1.2217
  147SAPE  C21116222   2.499   2.438   9.411  0.5945  0.1146 -0.1964
  147SAPE  H11R16223   2.461   2.366   9.485 -0.8704  0.3556 -0.6766
  147SAPE  C21216224   2.523   2.403   9.285  0.0908 -0.2956 -0.6535
  147SAPE  H12R16225   2.483   2.309   9.245 -0.0227  0.1661 -1.6654
  147SAPE  C21316226   2.604   2.486   9.186 -0.2036  0.4083  0.1154
  147SAPE  H13R16227   2.625   2.428   9.094 -1.5714 -0.4894  0.3284
  147SAPE  H13S16228   2.698   2.525   9.230  0.0851 -0.1861  0.0215
  147SAPE  C21416229   2.525   2.603   9.121 -0.0398 -0.0421 -0.2296
  147SAPE  H14R16230   2.465   2.663   9.192  1.6645 -0.2502  1.4704
  147SAPE  C21516231   2.552   2.660   9.001  0.1795  0.6427  1.4250
  147SAPE  H15R16232   2.485   2.741   8.968 -1.4106 -0.6755  1.2690
  147SAPE  C21616233   2.650   2.615   8.896  0.2750 -0.4882  0.8030
  147SAPE  H16R16234   2.721   2.542   8.941 -0.0726 -0.9115  0.6618
  147SAPE  H16S16235   2.713   2.703   8.871  1.1846 -0.6727  2.3061
  147SAPE  C21716236   2.580   2.568   8.765  0.0122  0.1477 -0.4610
  147SAPE  H17R16237   2.525   2.472   8.775 -0.4908  0.4129 -0.6465
  147SAPE  H17S16238   2.659   2.556   8.688 -1.2853 -0.9654 -1.6821
  147SAPE  C21816239   2.491   2.680   8.702 -0.0355 -0.0098 -1.0822
  147SAPE  H18R16240   2.408   2.707   8.771  2.1705 -0.1996  1.8363
  147SAPE  H18S16241   2.441   2.631   8.616 -0.7734 -0.1761 -0.5677
  147SAPE  C21916242   2.580   2.788   8.646  0.4360 -0.2847  0.7589
  147SAPE  H19R16243   2.655   2.750   8.574  1.5973  0.7864  1.3728
  147SAPE  H19S16244   2.636   2.843   8.724  0.2362 -0.0436  0.7358
  147SAPE  C22016245   2.495   2.896   8.577  0.0435 -0.1860  0.3342
  147SAPE  H20R16246   2.448   2.956   8.659 -0.6849 -2.6531  1.8222
  147SAPE  H20S16247   2.406   2.857   8.523  0.0956  0.8046 -0.4982
  147SAPE  H20T16248   2.557   2.967   8.517 -3.4706 -0.1303 -3.6878
  147SAPE   C3316249   2.112   2.411   9.931  0.6618  0.2401 -0.5385
  147SAPE   H3X16250   2.172   2.320   9.912 -1.5614 -0.9641 -2.2919
  147SAPE   H3Y16251   2.183   2.493   9.955 -1.9014  2.9004 -1.3929
  147SAPE   C3416252   2.033   2.445   9.807 -0.5723 -0.2419 -0.2376
  147SAPE   H4X16253   1.973   2.537   9.825 -0.0404  0.1222 -0.3001
  147SAPE   H4Y16254   1.965   2.362   9.778  1.5548 -1.9320 -0.7091
  147SAPE   C3516255   2.133   2.447   9.687  0.4388 -0.2150  0.1363
  147SAPE   H5X16256   2.178   2.346   9.697 -0.9487 -0.6697  3.0233
  147SAPE   H5Y16257   2.208   2.528   9.695 -0.3377  0.6640 -1.1591
  147SAPE   C3616258   2.063   2.468   9.557  0.1545  0.4038  0.1269
  147SAPE   H6X16259   2.015   2.566   9.576 -0.3532  0.0091  0.9291
  147SAPE   H6Y16260   1.977   2.398   9.558  1.1408 -0.8944 -1.0369
  147SAPE   C3716261   2.145   2.451   9.438 -0.5449  0.6382  0.4724
  147SAPE   H7X16262   2.177   2.345   9.432 -1.1917  0.4106  0.8851
  147SAPE   H7Y16263   2.235   2.514   9.455  0.8184 -1.3436  0.9613
  147SAPE   C3816264   2.072   2.488   9.304  0.6899  0.2764  0.6082
  147SAPE   H8X16265   2.059   2.598   9.314  1.5460  0.4170  0.2869
  147SAPE   H8Y16266   1.973   2.440   9.294  1.5457 -1.2163 -1.6051
  147SAPE   C3916267   2.161   2.460   9.183 -1.0029  0.2047 -0.5160
  147SAPE   H9X16268   2.194   2.354   9.177 -0.6780  0.3775 -2.8977
  147SAPE   H9Y16269   2.253   2.523   9.185 -0.4788 -0.5717  0.9927
  147SAPE  C31016270   2.080   2.514   9.067  0.4891  0.9139 -0.3331
  147SAPE  H10X16271   2.048   2.617   9.089 -1.1368  0.4238 -0.2915
  147SAPE  H10Y16272   1.983   2.460   9.054  0.9133  0.1390 -0.3762
  147SAPE  C31116273   2.154   2.493   8.933 -0.2029  1.0333 -0.7381
  147SAPE  H11X16274   2.172   2.383   8.939  1.0973  1.2735 -0.0458
  147SAPE  H11Y16275   2.255   2.539   8.941 -0.9063  2.5844 -0.4937
  147SAPE  C31216276   2.081   2.545   8.804  0.3520 -0.0868  0.2721
  147SAPE  H12X16277   2.117   2.649   8.789  1.5214 -0.3022  1.3761
  147SAPE  H12Y16278   1.971   2.545   8.820  0.2002 -0.8364 -0.7169
  147SAPE  C31316279   2.117   2.454   8.691  0.5861 -0.3900 -0.3712
  147SAPE  H13X16280   2.063   2.359   8.713 -0.9244  0.3558 -0.7307
  147SAPE  H13Y16281   2.224   2.432   8.669 -0.1521 -2.7404 -2.0084
  147SAPE  C31416282   2.053   2.511   8.568 -0.3059 -0.2250  0.2209
  147SAPE  H14X16283   1.946   2.535   8.578 -0.2972  1.6205 -2.7863
  147SAPE  H14Y16284   2.050   2.425   8.498  1.5586 -0.2925  0.1573
  147SAPE  C31516285   2.130   2.626   8.505  0.1745 -0.3392 -0.0749
  147SAPE  H15X16286   2.227   2.594   8.462  1.4053  1.4215  1.2317
  147SAPE  H15Y16287   2.164   2.686   8.592 -2.6850 -0.1720  1.0404
  147SAPE  C31616288   2.042   2.687   8.394 -0.1039  0.1449 -0.2288
  147SAPE  H16X16289   1.942   2.730   8.418 -0.0063  1.2548 -1.6620
  147SAPE  H16Y16290   2.018   2.609   8.319 -2.7103  0.7700 -0.1286
  147SAPE  C31716291   2.112   2.806   8.318 -0.3326  0.1947  0.0757
  147SAPE  H17X16292   2.148   2.867   8.404 -1.8103 -0.2469  1.0430
  147SAPE  H17Y16293   2.042   2.860   8.251 -0.3106  0.6711  0.4328
  147SAPE  C31816294   2.228   2.757   8.235  0.0417 -0.4672  0.1891
  147SAPE  H18X16295   2.193   2.668   8.179 -0.9766  0.5416 -0.8299
  147SAPE  H18Y16296   2.309   2.728   8.306  1.0062  1.9081  0.1697
  147SAPE  H18Z16297   2.270   2.837   8.170 -0.5695  0.4676  0.9240
  148SAPE     N16298   4.419   4.534  10.721  0.0351 -0.4435 -0.0249
  148SAPE   HN116299   4.497   4.601  10.737 -1.5676  1.1898  1.4328
  148SAPE   HN216300   4.373   4.501  10.809  3.5396 -1.4008  1.6113
  148SAPE   HN316301   4.470   4.454  10.678  2.3767  0.8911  0.0990
  148SAPE   C1216302   4.297   4.601  10.656  0.2393 -0.1566  0.1426
  148SAPE  H12A16303   4.277   4.688  10.723 -1.4548  0.1578 -0.7052
  148SAPE  H12B16304   4.216   4.526  10.669 -1.7225  1.6964 -0.6849
  148SAPE   C1116305   4.309   4.654  10.514 -0.2725  0.8473 -0.7615
  148SAPE  H11A16306   4.369   4.583  10.454  0.7949 -1.5151  2.7404
  148SAPE  H11B16307   4.359   4.753  10.513  0.8606  0.3082  0.1368
  148SAPE     P16308   4.094   4.793  10.464  0.0449 -0.1070  0.1304
  148SAPE   O1316309   3.952   4.760  10.431  0.2047  0.3257 -0.7178
  148SAPE   O1416310   4.116   4.862  10.592  0.3174 -0.7653 -0.1078
  148SAPE   O1216311   4.178   4.662  10.461 -0.3015  0.4731 -0.5073
  148SAPE   O1116312   4.147   4.885  10.355 -0.6487  0.1516  0.4041
  148SAPE    C116313   4.214   4.830  10.239  0.1612  0.1808 -0.2900
  148SAPE    HA16314   4.209   4.720  10.228  0.3024  0.3209 -1.9916
  148SAPE    HB16315   4.174   4.873  10.145  2.0149 -0.3701 -1.3718
  148SAPE    C216316   4.362   4.871  10.244  0.7924  0.0552  0.8346
  148SAPE    HS16317   4.398   4.861  10.349 -3.6676  0.3565  2.6296
  148SAPE   O2116318   4.378   5.004  10.188 -0.4089 -0.4123  0.6313
  148SAPE   C2116319   4.481   5.067  10.242  0.0312 -0.4161 -0.8565
  148SAPE   O2216320   4.554   5.028  10.331  0.0302  0.1264 -0.3697
  148SAPE   C2216321   4.487   5.212  10.193 -0.0482 -0.0474 -0.0604
  148SAPE   H2R16322   4.398   5.256  10.243  1.1988  2.1595  0.3526
  148SAPE   H2S16323   4.573   5.263  10.241  0.8270  1.5776 -3.0586
  148SAPE    C316324   4.444   4.771  10.149  0.1582 -0.1340 -0.1436
  148SAPE    HX16325   4.416   4.781  10.042  2.1075  1.8203 -0.5168
  148SAPE    HY16326   4.422   4.671  10.194 -2.8845  0.3251 -0.3940
  148SAPE   O3116327   4.582   4.798  10.146 -0.4323  0.0314  0.3207
  148SAPE   C3116328   4.648   4.758  10.253  0.5169  0.3571 -0.1098
  148SAPE   O3216329   4.596   4.700  10.349 -0.5572  0.2431  0.1985
  148SAPE   C3216330   4.794   4.795  10.238 -0.2456  0.0704  0.4377
  148SAPE   H2X16331   4.838   4.800  10.340 -0.4335  1.0255  0.4839
  148SAPE   H2Y16332   4.804   4.894  10.187 -0.9493  0.2551  0.6449
  148SAPE   C2316333   4.468   5.226  10.039  0.0028 -0.1349 -0.2756
  148SAPE   H3R16334   4.493   5.329  10.004 -0.9687  0.1377 -0.1973
  148SAPE   H3S16335   4.364   5.198  10.009 -0.6640  0.8744  0.9933
  148SAPE   C2416336   4.553   5.130   9.955  0.2233  0.4120 -0.2008
  148SAPE   H4R16337   4.520   5.142   9.850  1.3504 -2.8757 -1.0262
  148SAPE   H4S16338   4.522   5.027   9.982 -0.0455  0.1684 -1.3971
  148SAPE   C2516339   4.702   5.143   9.969 -0.0181  0.0734  0.3170
  148SAPE   H5R16340   4.741   5.113  10.067 -0.2995 -0.0635  0.3846
  148SAPE   C2616341   4.791   5.187   9.880 -0.7024  0.3337  0.9895
  148SAPE   H6R16342   4.897   5.197   9.906  0.1062 -1.4066 -1.2982
  148SAPE   C2716343   4.763   5.248   9.742 -0.5877  0.1919  0.7092
  148SAPE   H7R16344   4.659   5.283   9.723 -0.1480 -0.2676 -3.4457
  148SAPE   H7S16345   4.792   5.181   9.658  0.8028  1.6429 -0.0258
  148SAPE   C2816346   4.835   5.380   9.720  0.1722  0.0253  0.4510
  148SAPE   H8R16347   4.861   5.436   9.811 -0.3977  1.4008 -0.2102
  148SAPE   C2916348   4.876   5.436   9.605 -0.1682 -0.1334  0.3874
  148SAPE   H9R16349   4.940   5.526   9.608 -1.2655  0.7561 -1.3226
  148SAPE  C21016350   4.845   5.385   9.470  0.1744  0.3829 -0.5020
  148SAPE  H10R16351   4.848   5.274   9.466 -1.6891  0.3323 -1.4165
  148SAPE  H10S16352   4.927   5.418   9.401 -0.9948  2.1892 -1.1029
  148SAPE  C21116353   4.712   5.435   9.425  1.1258  0.3869  0.4678
  148SAPE  H11R16354   4.663   5.511   9.488  2.8129  1.1698  0.8939
  148SAPE  C21216355   4.639   5.386   9.320  0.0978  0.1342  0.9097
  148SAPE  H12R16356   4.545   5.432   9.287 -1.7791 -1.0962  4.0971
  148SAPE  C21316357   4.709   5.279   9.225  0.2584  0.2913  0.2153
  148SAPE  H13R16358   4.652   5.185   9.243  0.3333  0.5490  2.0387
  148SAPE  H13S16359   4.818   5.264   9.239  0.7524  1.1126 -2.3078
  148SAPE  C21416360   4.693   5.331   9.086 -0.2108  0.0083 -0.7233
  148SAPE  H14R16361   4.615   5.273   9.035  0.0977 -2.2596  1.2012
  148SAPE  C21516362   4.754   5.424   9.014 -0.2981  0.3006 -0.2345
  148SAPE  H15R16363   4.706   5.440   8.916 -2.5610 -0.3100  0.7019
  148SAPE  C21616364   4.877   5.500   9.059  0.2877  0.2296 -0.2688
  148SAPE  H16R16365   4.959   5.498   8.984  0.5589 -0.6851  0.0417
  148SAPE  H16S16366   4.905   5.469   9.162 -0.9169 -0.4339 -0.1158
  148SAPE  C21716367   4.840   5.644   9.080 -0.6148 -0.0167 -0.8851
  148SAPE  H17R16368   4.934   5.690   9.116 -0.3359 -0.8919 -0.4636
  148SAPE  H17S16369   4.763   5.643   9.160  0.7991 -0.2181  0.5010
  148SAPE  C21816370   4.802   5.729   8.962  1.1862  0.2291  0.0006
  148SAPE  H18R16371   4.707   5.703   8.911  0.4554  3.3448 -0.4667
  148SAPE  H18S16372   4.883   5.726   8.886  1.0213  3.0070 -0.3874
  148SAPE  C21916373   4.798   5.878   9.001 -0.0423 -0.9642 -0.0166
  148SAPE  H19R16374   4.778   5.935   8.907 -0.3779  1.0913  1.2447
  148SAPE  H19S16375   4.899   5.912   9.033 -0.4317 -0.8847  1.1812
  148SAPE  C22016376   4.703   5.920   9.108 -0.0021  0.2632  0.0500
  148SAPE  H20R16377   4.601   5.890   9.075 -0.2860  0.0383  1.0963
  148SAPE  H20S16378   4.708   6.028   9.134 -1.1120 -0.0542  1.7753
  148SAPE  H20T16379   4.735   5.874   9.203 -0.4115  0.3611  0.2386
  148SAPE   C3316380   4.881   4.689  10.158 -0.9499 -0.4758 -0.4509
  148SAPE   H3X16381   4.899   4.591  10.206 -2.2949  0.3527  1.9109
  148SAPE   H3Y16382   4.987   4.720  10.149 -0.4434 -2.1467 -0.4219
  148SAPE   C3416383   4.839   4.676  10.012 -0.5702  0.5074  0.5218
  148SAPE   H4X16384   4.812   4.780   9.982 -0.4544  0.1934 -0.6950
  148SAPE   H4Y16385   4.752   4.607  10.017 -0.5620  0.3550 -1.0352
  148SAPE   C3516386   4.943   4.610   9.914  0.6852 -0.0029  0.1303
  148SAPE   H5X16387   4.981   4.516   9.959  2.4971  1.2526  1.3813
  148SAPE   H5Y16388   5.020   4.691   9.903 -0.2616  0.8157 -0.6556
  148SAPE   C3616389   4.882   4.586   9.770 -0.3145  0.0970 -0.0901
  148SAPE   H6X16390   4.831   4.672   9.721  0.4806 -1.0340 -3.1829
  148SAPE   H6Y16391   4.801   4.512   9.784 -0.1446 -0.0401  0.1748
  148SAPE   C3716392   4.987   4.522   9.683  0.3653 -0.2630 -0.1577
  148SAPE   H7X16393   5.064   4.468   9.742  0.0845  0.0849  0.5439
  148SAPE   H7Y16394   5.025   4.613   9.633 -1.8779  0.9677  0.2338
  148SAPE   C3816395   4.918   4.423   9.583 -0.1708 -0.0993 -0.8141
  148SAPE   H8X16396   4.836   4.484   9.540 -0.1817  2.6742  2.6915
  148SAPE   H8Y16397   4.877   4.333   9.634 -1.6230  0.6191 -0.6565
  148SAPE   C3916398   5.017   4.389   9.472  0.3904  0.2112 -0.4750
  148SAPE   H9X16399   4.985   4.296   9.420  1.7865  1.1999 -3.3217
  148SAPE   H9Y16400   5.116   4.382   9.522  0.2071 -2.6398 -0.3722
  148SAPE  C31016401   5.019   4.492   9.360  0.9871  0.2494 -0.2511
  148SAPE  H10X16402   5.091   4.571   9.391  1.2739  0.4412 -1.3550
  148SAPE  H10Y16403   4.923   4.541   9.332  0.4298 -0.2702  0.7181
  148SAPE  C31116404   5.070   4.429   9.233  0.3546 -0.2567 -0.3522
  148SAPE  H11X16405   4.998   4.350   9.201 -3.3240  2.0776  1.4868
  148SAPE  H11Y16406   5.167   4.379   9.255  0.0487 -0.7276 -0.0572
  148SAPE  C31216407   5.094   4.539   9.129 -0.7828 -0.0048  0.4388
  148SAPE  H12X16408   5.189   4.595   9.140 -0.7330  0.3114 -1.2184
  148SAPE  H12Y16409   5.016   4.617   9.143  0.9378  1.3534  3.2677
  148SAPE  C31316410   5.097   4.489   8.980 -0.5559  0.7621  0.2881
  148SAPE  H13X16411   5.005   4.435   8.949 -0.9563 -0.6698  3.5132
  148SAPE  H13Y16412   5.177   4.412   8.985 -0.2434  1.1178  0.9682
  148SAPE  C31416413   5.131   4.609   8.887 -0.5389 -0.0308  0.2997
  148SAPE  H14X16414   5.186   4.688   8.941  0.8752  0.2320 -1.4161
  148SAPE  H14Y16415   5.032   4.642   8.850 -0.0947  0.8770 -0.1072
  148SAPE  C31516416   5.194   4.574   8.756  0.2151 -0.5855 -0.3451
  148SAPE  H15X16417   5.302   4.568   8.781 -0.2529  0.2947  2.1845
  148SAPE  H15Y16418   5.177   4.659   8.687  3.8433 -0.9433 -1.8949
  148SAPE  C31616419   5.145   4.443   8.683 -0.1928  0.5576 -0.1231
  148SAPE  H16X16420   5.035   4.455   8.672 -0.2229  1.0310  0.6428
  148SAPE  H16Y16421   5.152   4.354   8.748  0.4794 -1.2907 -2.5678
  148SAPE  C31716422   5.214   4.416   8.552  0.9781  0.4886 -0.4658
  148SAPE  H17X16423   5.323   4.412   8.573  0.7687 -0.9850  0.4908
  148SAPE  H17Y16424   5.191   4.501   8.485  0.2720  0.7559  0.0981
  148SAPE  C31816425   5.170   4.282   8.498  0.1712 -0.4144 -0.0970
  148SAPE  H18X16426   5.223   4.267   8.402  2.6175  1.9480  0.7705
  148SAPE  H18Y16427   5.063   4.291   8.468  0.4710 -0.9949 -1.3724
  148SAPE  H18Z16428   5.181   4.200   8.573 -4.7173 -0.7679  0.5836
  149SAPE     N16429   0.724   0.762  11.011  0.0828  0.4699  0.2081
  149SAPE   HN116430   0.675   0.713  11.089  1.3489 -0.0391  0.7113
  149SAPE   HN216431   0.789   0.693  10.968 -1.5532 -1.5962  0.8573
  149SAPE   HN316432   0.778   0.834  11.063 -0.1165 -0.2754  1.5076
  149SAPE   C1216433   0.622   0.830  10.922 -1.2144 -0.3726 -0.4366
  149SAPE  H12A16434   0.680   0.900  10.858 -2.7692 -0.7253 -2.3267
  149SAPE  H12B16435   0.553   0.889  10.986  0.7159 -0.4404  1.8470
  149SAPE   C1116436   0.544   0.715  10.847 -0.2376 -0.9067 -0.4606
  149SAPE  H11A16437   0.616   0.656  10.786  1.0509  0.4277 -0.3041
  149SAPE  H11B16438   0.475   0.757  10.770 -0.8476 -1.4482 -0.2151
  149SAPE     P16439   0.410   0.491  10.891 -0.0389 -0.1934  0.2920
  149SAPE   O1316440   0.377   0.405  11.005  0.1558  0.0654  0.5007
  149SAPE   O1416441   0.300   0.525  10.799  0.5293 -0.2379  0.7035
  149SAPE   O1216442   0.468   0.629  10.932 -1.1323  0.3423  0.1101
  149SAPE   O1116443   0.531   0.431  10.807  0.2184  0.1815  0.0908
  149SAPE    C116444   0.515   0.305  10.737 -0.0151 -1.0498  0.7730
  149SAPE    HA16445   0.496   0.223  10.809 -0.5581 -1.8641 -0.2717
  149SAPE    HB16446   0.433   0.311  10.662 -1.4014 -2.2956  2.1336
  149SAPE    C216447   0.637   0.265  10.660 -0.1680  0.7326  0.1819
  149SAPE    HS16448   0.722   0.250  10.730  0.8991 -0.6169 -1.3433
  149SAPE   O2116449   0.669   0.362  10.561 -0.8488  0.5844 -0.1868
  149SAPE   C2116450   0.789   0.357  10.502 -0.3182  0.2063 -0.2189
  149SAPE   O2216451   0.880   0.281  10.525 -0.0475  0.0284 -0.0515
  149SAPE   C2216452   0.790   0.460  10.398 -0.1795  0.3100  0.3714
  149SAPE   H2R16453   0.699   0.523  10.410 -0.1729  0.3724  0.0960
  149SAPE   H2S16454   0.880   0.522  10.414  0.2124 -0.1152 -0.1500
  149SAPE    C316455   0.613   0.133  10.589  0.0168 -0.2736  0.6938
  149SAPE    HX16456   0.579   0.061  10.666  1.6468  0.3918  2.1138
  149SAPE    HY16457   0.703   0.083  10.547 -1.0285 -0.3448 -1.6374
  149SAPE   O3116458   0.512   0.140  10.487  0.2855 -0.5799  0.2322
  149SAPE   C3116459   0.554   0.137  10.363 -0.3934 -0.3423  0.8235
  149SAPE   O3216460   0.667   0.115  10.323  0.0986  0.6164  0.2731
  149SAPE   C3216461   0.443   0.171  10.268  0.0158  0.7039 -0.6070
  149SAPE   H2X16462   0.421   0.279  10.274 -4.0405 -0.0088  1.8050
  149SAPE   H2Y16463   0.354   0.113  10.301  1.4749 -1.6215 -0.5126
  149SAPE   C2316464   0.792   0.405  10.264  0.1328  0.3023 -0.0068
  149SAPE   H3R16465   0.704   0.341  10.240 -0.5413  1.1247  0.2218
  149SAPE   H3S16466   0.885   0.344  10.259 -0.0209  0.0838 -0.2658
  149SAPE   C2416467   0.773   0.506  10.157 -0.4141 -0.1752 -0.2908
  149SAPE   H4R16468   0.857   0.579  10.158 -1.1988  0.7507 -0.1047
  149SAPE   H4S16469   0.674   0.552  10.180 -1.2497 -1.6147 -0.8744
  149SAPE   C2516470   0.765   0.451  10.018 -0.0948 -1.0869  0.5471
  149SAPE   H5R16471   0.665   0.415   9.990 -0.3473  0.7075 -1.0651
  149SAPE   C2616472   0.860   0.457   9.926 -0.9892  1.0530  0.1214
  149SAPE   H6R16473   0.840   0.398   9.836 -0.9842 -1.5087  1.6893
  149SAPE   C2716474   1.000   0.517   9.927  0.1489 -1.6763 -0.0911
  149SAPE   H7R16475   1.047   0.516  10.028  0.6112 -0.2752 -0.2787
  149SAPE   H7S16476   0.985   0.625   9.907  0.2439 -1.6393  0.0384
  149SAPE   C2816477   1.087   0.443   9.819  0.3003 -0.6453 -0.3296
  149SAPE   H8R16478   1.148   0.355   9.841  2.3839  1.4783  3.3144
  149SAPE   C2916479   1.080   0.482   9.689  0.0459  0.5456  0.2528
  149SAPE   H9R16480   1.152   0.432   9.623 -1.4766 -0.2929 -0.8424
  149SAPE  C21016481   0.988   0.582   9.620 -0.2370 -0.1713  0.3024
  149SAPE  H10R16482   1.046   0.640   9.545  0.4415 -1.3501 -0.0955
  149SAPE  H10S16483   0.964   0.658   9.697  3.1162  0.7372  0.5888
  149SAPE  C21116484   0.862   0.523   9.572  0.2372 -0.1802  0.8042
  149SAPE  H11R16485   0.786   0.509   9.650 -0.0132  1.3875  0.8644
  149SAPE  C21216486   0.837   0.500   9.438  0.4215  0.3482  0.0059
  149SAPE  H12R16487   0.731   0.479   9.414 -0.4811 -0.2754  3.9148
  149SAPE  C21316488   0.925   0.517   9.317 -0.1189 -0.0124  0.1675
  149SAPE  H13R16489   1.002   0.436   9.317 -0.6187 -0.5093 -0.9464
  149SAPE  H13S16490   0.967   0.620   9.315 -1.5113  0.6427  2.1471
  149SAPE  C21416491   0.845   0.512   9.188 -0.2610  0.3163  0.0524
  149SAPE  H14R16492   0.741   0.546   9.195  0.1989  2.0707 -0.9238
  149SAPE  C21516493   0.891   0.475   9.068  0.1592  0.4369 -0.1307
  149SAPE  H15R16494   0.820   0.461   8.985  0.9638  4.6156 -1.7442
  149SAPE  C21616495   1.029   0.429   9.028 -0.7985  0.2810 -0.4188
  149SAPE  H16R16496   1.053   0.329   9.070  0.1067  0.1891 -1.1174
  149SAPE  H16S16497   1.112   0.496   9.059  1.9380 -1.6208 -3.0598
  149SAPE  C21716498   1.063   0.417   8.878  0.3630  0.1297  0.5556
  149SAPE  H17R16499   1.172   0.422   8.855  0.4776  0.6677  1.2046
  149SAPE  H17S16500   1.016   0.503   8.827  0.3063 -0.5286 -0.5517
  149SAPE  C21816501   1.011   0.290   8.815 -0.2243  0.0535  0.8128
  149SAPE  H18R16502   0.900   0.296   8.808 -0.1039  0.8120 -1.1424
  149SAPE  H18S16503   1.039   0.206   8.882 -0.8564 -1.3034 -0.5669
  149SAPE  C21916504   1.063   0.261   8.676  0.2127  0.2283  0.0741
  149SAPE  H19R16505   1.046   0.155   8.647 -0.4885  0.7158 -1.4087
  149SAPE  H19S16506   1.174   0.272   8.676  0.1783  0.5866 -0.1546
  149SAPE  C22016507   1.003   0.343   8.566 -0.0269  0.1543 -0.6687
  149SAPE  H20R16508   1.014   0.451   8.587 -1.5487  0.2493 -0.2142
  149SAPE  H20S16509   0.894   0.318   8.561  0.5778 -2.9882 -0.0945
  149SAPE  H20T16510   1.051   0.326   8.467  2.8379  0.1803  0.6231
  149SAPE   C3316511   0.486   0.130  10.129 -0.7228 -0.2253 -0.1605
  149SAPE   H3X16512   0.505   0.020  10.132  0.3012 -0.0363  1.5195
  149SAPE   H3Y16513   0.577   0.172  10.082 -2.1265  0.2816 -2.5961
  149SAPE   C3416514   0.370   0.157  10.026 -0.6555 -0.1035  0.7140
  149SAPE   H4X16515   0.326   0.259  10.028  0.2196  0.3186 -0.3049
  149SAPE   H4Y16516   0.288   0.089  10.057 -0.4802 -1.1146 -0.8965
  149SAPE   C3516517   0.399   0.109   9.887 -0.3742 -0.2478  0.4940
  149SAPE   H5X16518   0.306   0.073   9.837  0.0644  0.9676 -1.3061
  149SAPE   H5Y16519   0.470   0.024   9.893 -1.7132 -1.3714  0.9474
  149SAPE   C3616520   0.472   0.220   9.795  0.1503 -0.5528 -0.0328
  149SAPE   H6X16521   0.570   0.248   9.840  1.0043 -2.6841 -0.4643
  149SAPE   H6Y16522   0.409   0.311   9.784  2.1375  0.7327 -1.5375
  149SAPE   C3716523   0.505   0.158   9.659  0.4635  1.0713 -0.3015
  149SAPE   H7X16524   0.430   0.079   9.641 -0.3377  2.0297 -1.3220
  149SAPE   H7Y16525   0.604   0.107   9.671  1.3720  1.8825 -3.4472
  149SAPE   C3816526   0.525   0.257   9.541  0.6400  0.5319 -0.0964
  149SAPE   H8X16527   0.577   0.348   9.577 -1.3616  1.2801  1.0228
  149SAPE   H8Y16528   0.419   0.281   9.515 -0.6367 -3.5397  0.5315
  149SAPE   C3916529   0.587   0.199   9.413 -0.6205 -0.4642  0.0276
  149SAPE   H9X16530   0.558   0.092   9.413  0.9795 -0.9394  0.8319
  149SAPE   H9Y16531   0.698   0.198   9.417 -0.4797  1.6180 -1.4719
  149SAPE  C31016532   0.542   0.258   9.278 -0.7336 -0.0988 -0.7816
  149SAPE  H10X16533   0.582   0.361   9.262  0.7109 -0.2371  1.4945
  149SAPE  H10Y16534   0.431   0.258   9.270 -1.1965  1.7603  3.3141
  149SAPE  C31116535   0.588   0.174   9.159 -0.0119  0.2946 -0.0727
  149SAPE  H11X16536   0.541   0.075   9.180  0.0242  0.4258  0.6580
  149SAPE  H11Y16537   0.696   0.149   9.163 -0.1940 -0.8748 -1.6562
  149SAPE  C31216538   0.559   0.229   9.020  0.2183 -0.0148 -0.0332
  149SAPE  H12X16539   0.604   0.330   9.008  1.9530 -0.6918  0.4919
  149SAPE  H12Y16540   0.451   0.251   9.003  0.3957  0.7258 -0.2564
  149SAPE  C31316541   0.590   0.124   8.906  0.2331  0.4789 -0.3072
  149SAPE  H13X16542   0.519   0.040   8.918 -1.4229  1.3659 -3.0342
  149SAPE  H13Y16543   0.695   0.088   8.918 -0.0860 -0.4681 -0.3305
  149SAPE  C31416544   0.577   0.188   8.761  0.2538 -0.3587 -0.3110
  149SAPE  H14X16545   0.629   0.285   8.772 -0.5486  0.0488 -0.0859
  149SAPE  H14Y16546   0.472   0.219   8.743  1.0813  1.4211 -2.6044
  149SAPE  C31516547   0.622   0.106   8.642 -0.2616 -0.2583 -0.4951
  149SAPE  H15X16548   0.573   0.007   8.659 -0.1613 -0.2968 -0.4271
  149SAPE  H15Y16549   0.731   0.084   8.639 -0.3344 -0.5884 -0.8387
  149SAPE  C31616550   0.572   0.169   8.514  0.8520 -0.0675  0.2367
  149SAPE  H16X16551   0.611   0.273   8.516  2.2757 -0.5632 -0.2270
  149SAPE  H16Y16552   0.463   0.188   8.501  0.9159  2.7190  2.7023
  149SAPE  C31716553   0.631   0.108   8.383  0.3692  0.2175 -0.5244
  149SAPE  H17X16554   0.739   0.131   8.379  1.3730 -4.0151 -2.9673
  149SAPE  H17Y16555   0.572   0.153   8.300 -1.6487 -1.9872 -0.4034
  149SAPE  C31816556   0.628  -0.042   8.387 -0.2337 -0.1130  0.2743
  149SAPE  H18X16557   0.674  -0.082   8.480  1.2952 -0.0570 -0.4375
  149SAPE  H18Y16558   0.669  -0.094   8.298  0.6089 -0.3548  0.8025
  149SAPE  H18Z16559   0.521  -0.074   8.392  0.0036 -1.1513 -0.8858
  150SAPE     N16560   2.142   6.510  10.540 -0.2594  0.0090  0.1056
  150SAPE   HN116561   2.135   6.587  10.470 -0.8512  1.7980  2.0421
  150SAPE   HN216562   2.242   6.483  10.549  0.1727  1.6886  0.6003
  150SAPE   HN316563   2.098   6.423  10.503  0.9561 -0.1939 -0.9451
  150SAPE   C1216564   2.095   6.560  10.672 -0.3440  0.7423  0.7479
  150SAPE  H12A16565   2.059   6.470  10.725  2.6206 -0.6300  0.6078
  150SAPE  H12B16566   2.006   6.623  10.650 -0.3105  0.2773 -0.8719
  150SAPE   C1116567   2.207   6.622  10.753  0.5111  0.6003 -0.3302
  150SAPE  H11A16568   2.240   6.535  10.812  1.1223  2.1620  1.7544
  150SAPE  H11B16569   2.182   6.695  10.833  0.6235  0.8884 -0.5513
  150SAPE     P16570   2.303   6.818  10.612 -0.3444 -0.2703  0.2686
  150SAPE   O1316571   2.260   6.904  10.721 -0.0859 -0.0451  0.2241
  150SAPE   O1416572   2.417   6.861  10.531 -0.7861 -0.3996  0.3092
  150SAPE   O1216573   2.322   6.669  10.676 -0.3028  0.2630  0.4576
  150SAPE   O1116574   2.172   6.791  10.523 -0.3023  0.1645  0.4477
  150SAPE    C116575   2.103   6.908  10.485  0.1027  0.3597 -0.0971
  150SAPE    HA16576   2.051   6.949  10.573 -0.0920  1.3468 -0.6641
  150SAPE    HB16577   2.174   6.984  10.446  1.9786  0.7558  3.6508
  150SAPE    C216578   2.007   6.884  10.369  0.2691  0.5587 -0.0240
  150SAPE    HS16579   1.924   6.814  10.396  1.3555 -0.2431  1.4202
  150SAPE   O2116580   2.078   6.844  10.255 -0.2451 -0.5427  0.3904
  150SAPE   C2116581   2.101   6.722  10.224 -0.2141  0.5343 -0.0612
  150SAPE   O2216582   2.072   6.623  10.294 -0.4842  0.2003 -0.0074
  150SAPE   C2216583   2.186   6.718  10.091  0.6123  0.2199  0.5647
  150SAPE   H2R16584   2.195   6.817  10.042 -0.7547 -0.5753 -1.4311
  150SAPE   H2S16585   2.288   6.696  10.130  1.3220 -0.5239 -1.5985
  150SAPE    C316586   1.919   7.010  10.349 -0.5271 -0.8498  0.4406
  150SAPE    HX16587   1.974   7.106  10.354  2.9903 -2.6670 -0.3671
  150SAPE    HY16588   1.851   7.019  10.437 -0.1565  3.2472  0.5019
  150SAPE   O3116589   1.857   6.986  10.221  0.3587 -0.2572 -0.4073
  150SAPE   C3116590   1.904   7.051  10.118  0.0939  0.9850 -0.0489
  150SAPE   O3216591   1.965   7.153  10.120  0.1344  0.5083 -0.2767
  150SAPE   C3216592   1.860   6.969   9.996  0.5466 -0.0824 -0.1027
  150SAPE   H2X16593   1.751   6.953   9.998  0.5948 -0.5057  2.4171
  150SAPE   H2Y16594   1.919   6.874  10.000  0.7693 -0.1448 -2.9125
  150SAPE   C2316595   2.140   6.614   9.993  0.7867 -0.5495  0.3098
  150SAPE   H3R16596   2.029   6.610  10.000  0.7979  1.0459  2.0609
  150SAPE   H3S16597   2.168   6.512  10.027  0.4676  0.0285  2.4914
  150SAPE   C2416598   2.178   6.638   9.849 -0.1465 -0.1477  0.7010
  150SAPE   H4R16599   2.287   6.658   9.848 -0.5238  2.4968 -1.6868
  150SAPE   H4S16600   2.135   6.735   9.816 -0.0689  0.8357  3.2463
  150SAPE   C2516601   2.131   6.531   9.755  0.4277 -0.0169 -0.3722
  150SAPE   H5R16602   2.032   6.544   9.708 -1.5326 -3.2625  2.4231
  150SAPE   C2616603   2.197   6.417   9.724 -0.2517  0.1252 -0.2176
  150SAPE   H6R16604   2.145   6.355   9.650  1.7685 -0.4860 -1.2057
  150SAPE   C2716605   2.329   6.374   9.774 -0.4419 -0.2194 -0.3228
  150SAPE   H7R16606   2.336   6.266   9.748 -1.3752 -0.7221  1.3111
  150SAPE   H7S16607   2.310   6.377   9.884 -0.6268 -1.5237 -0.2983
  150SAPE   C2816608   2.451   6.460   9.730 -0.0864  0.0350 -0.2090
  150SAPE   H8R16609   2.462   6.558   9.779  1.0949  0.2505 -0.8512
  150SAPE   C2916610   2.553   6.423   9.653 -1.1831  0.1972  0.1597
  150SAPE   H9R16611   2.640   6.490   9.653 -1.2004  0.2242 -0.4493
  150SAPE  C21016612   2.570   6.291   9.582  0.0461 -0.1642 -0.7136
  150SAPE  H10R16613   2.481   6.223   9.583  0.0905 -0.2362 -1.2718
  150SAPE  H10S16614   2.650   6.238   9.638 -0.4115  0.8329  0.9722
  150SAPE  C21116615   2.606   6.292   9.438 -0.0621 -0.0792  0.3566
  150SAPE  H11R16616   2.536   6.236   9.374 -1.4753  4.0280 -2.0853
  150SAPE  C21216617   2.725   6.337   9.388  0.3974  0.7178  0.0527
  150SAPE  H12R16618   2.751   6.334   9.281 -0.2047 -1.4062 -0.0844
  150SAPE  C21316619   2.846   6.389   9.474  0.1306  0.2562  0.2848
  150SAPE  H13R16620   2.932   6.326   9.444 -0.4921 -0.4537 -0.0612
  150SAPE  H13S16621   2.830   6.356   9.579 -2.6303 -1.6783 -0.6334
  150SAPE  C21416622   2.885   6.529   9.466  0.6997  0.5657 -0.4497
  150SAPE  H14R16623   2.868   6.590   9.555  0.6835 -1.6399  1.1347
  150SAPE  C21516624   2.965   6.590   9.373  0.7926 -0.2049 -0.2959
  150SAPE  H15R16625   2.974   6.698   9.387  0.7117 -0.1858 -0.3921
  150SAPE  C21616626   3.014   6.535   9.250 -0.4459  0.1456  0.7508
  150SAPE  H16R16627   2.968   6.592   9.167 -0.1316  1.9751  1.7737
  150SAPE  H16S16628   2.975   6.433   9.231  0.9314 -0.6428  1.9228
  150SAPE  C21716629   3.162   6.563   9.232 -0.4970  0.0511  0.0828
  150SAPE  H17R16630   3.213   6.483   9.289 -2.2858 -0.5937  0.8726
  150SAPE  H17S16631   3.195   6.659   9.276 -0.8471  0.1801  0.0693
  150SAPE  C21816632   3.209   6.568   9.080 -0.6465 -0.0961  0.6159
  150SAPE  H18R16633   3.171   6.660   9.032  0.1347 -0.0237  0.1041
  150SAPE  H18S16634   3.187   6.480   9.015 -0.6649 -0.7156  1.4408
  150SAPE  C21916635   3.362   6.562   9.063  0.6529  0.0925  0.4649
  150SAPE  H19R16636   3.403   6.467   9.103 -1.0343 -0.7483  0.2855
  150SAPE  H19S16637   3.418   6.647   9.107  1.0641  0.3624 -0.5452
  150SAPE  C22016638   3.385   6.568   8.905 -1.3539  0.0936  0.8277
  150SAPE  H20R16639   3.333   6.639   8.838  4.3051  0.4968 -3.9331
  150SAPE  H20S16640   3.362   6.469   8.861 -1.0406  0.2819  0.2341
  150SAPE  H20T16641   3.492   6.585   8.880 -2.0461  2.0848 -1.0554
  150SAPE   C3316642   1.902   7.034   9.867  0.2410 -0.3077  0.6802
  150SAPE   H3X16643   2.006   7.074   9.859  0.1238 -0.3875 -2.1889
  150SAPE   H3Y16644   1.838   7.122   9.847  0.5644  0.2267  1.8604
  150SAPE   C3416645   1.885   6.930   9.754 -0.3359  0.6656  0.5476
  150SAPE   H4X16646   1.777   6.917   9.733 -0.0575  0.6068 -0.9742
  150SAPE   H4Y16647   1.918   6.832   9.794  0.7119  1.0688  0.6947
  150SAPE   C3516648   1.963   6.959   9.627 -0.4075  0.7732 -0.2773
  150SAPE   H5X16649   2.074   6.955   9.630 -0.1565  4.5607  0.7275
  150SAPE   H5Y16650   1.922   7.060   9.606  0.0274  1.4449  1.8093
  150SAPE   C3616651   1.915   6.862   9.519  0.0808 -0.2691 -0.0439
  150SAPE   H6X16652   1.807   6.873   9.495  0.1236  1.1968  0.3169
  150SAPE   H6Y16653   1.934   6.759   9.557  0.0022 -0.1841  0.2235
  150SAPE   C3716654   1.981   6.878   9.386  0.0813 -0.5312  0.0590
  150SAPE   H7X16655   2.063   6.803   9.381  0.3037 -0.3005  0.2077
  150SAPE   H7Y16656   2.032   6.977   9.377 -0.6494 -0.1684 -0.1316
  150SAPE   C3816657   1.882   6.869   9.268  0.3802  0.1647  0.7135
  150SAPE   H8X16658   1.815   6.958   9.264  0.1526 -0.0403 -1.2203
  150SAPE   H8Y16659   1.826   6.774   9.280  2.0309 -1.2135 -1.6828
  150SAPE   C3916660   1.959   6.861   9.131  0.1859 -0.4106  0.1032
  150SAPE   H9X16661   1.992   6.756   9.116  3.2896 -0.0027  2.9010
  150SAPE   H9Y16662   2.043   6.934   9.138  0.9432 -0.9970 -1.9930
  150SAPE  C31016663   1.872   6.895   9.017  1.1073  0.4559 -0.2924
  150SAPE  H10X16664   1.828   6.996   9.029  1.7606  0.8001 -0.7524
  150SAPE  H10Y16665   1.782   6.833   8.998  0.8899  1.1566 -1.6644
  150SAPE  C31116666   1.940   6.905   8.883 -0.6333 -0.0215  0.6500
  150SAPE  H11X16667   1.860   6.900   8.805  0.0661 -0.7330 -0.0365
  150SAPE  H11Y16668   1.997   6.810   8.870  0.5326  0.5490  1.4557
  150SAPE  C31216669   2.035   7.029   8.869  0.7768  0.5967 -0.3542
  150SAPE  H12X16670   2.108   7.031   8.953 -0.1577  1.1124  0.4653
  150SAPE  H12Y16671   1.967   7.117   8.866 -0.4588 -0.3493 -2.7218
  150SAPE  C31316672   2.114   7.033   8.731 -0.6633  0.3063  0.6864
  150SAPE  H13X16673   2.188   6.950   8.740  0.5696  1.3129  0.1980
  150SAPE  H13Y16674   2.167   7.130   8.719 -0.1549 -0.1976 -1.5945
  150SAPE  C31416675   2.027   7.015   8.604  0.5763 -0.0480 -1.3407
  150SAPE  H14X16676   1.966   6.922   8.613 -2.1563  1.8191  1.2321
  150SAPE  H14Y16677   2.089   7.010   8.512  1.7640  1.2057 -0.6390
  150SAPE  C31516678   1.919   7.125   8.573  0.0820  0.0045 -0.0194
  150SAPE  H15X16679   1.969   7.223   8.556  0.9837 -0.1727  1.4316
  150SAPE  H15Y16680   1.846   7.127   8.657 -0.7759 -1.3453 -0.6893
  150SAPE  C31616681   1.829   7.093   8.459 -0.0709  0.0843  0.7261
  150SAPE  H16X16682   1.875   7.027   8.382 -1.0086  0.1353  0.1194
  150SAPE  H16Y16683   1.801   7.189   8.411  2.8536 -0.2991 -2.0476
  150SAPE  C31716684   1.700   7.019   8.508  0.0459 -0.1159  0.0825
  150SAPE  H17X16685   1.666   7.091   8.585 -1.9109 -0.7966 -0.0852
  150SAPE  H17Y16686   1.721   6.921   8.555  1.2670  0.9527  1.8490
  150SAPE  C31816687   1.595   7.003   8.398  0.0743  0.5242 -0.0853
  150SAPE  H18X16688   1.630   6.926   8.326 -2.1668  0.1718 -0.8854
  150SAPE  H18Y16689   1.590   7.101   8.346  0.0995  1.0308  0.8472
  150SAPE  H18Z16690   1.494   6.976   8.436  0.8039 -0.0680  1.5199
  151SAPE     N16691   6.066   3.634  10.185  0.4879 -0.7886 -0.0604
  151SAPE   HN116692   5.983   3.575  10.208  0.7106 -1.7708 -1.6220
  151SAPE   HN216693   6.086   3.642  10.083  1.1211 -0.5650  0.0732
  151SAPE   HN316694   6.150   3.589  10.226  1.5971  0.3074 -1.0625
  151SAPE   C1216695   6.053   3.775  10.240 -0.5594 -0.7515  0.2067
  151SAPE  H12A16696   6.048   3.852  10.160  0.3363  1.7178  2.3941
  151SAPE  H12B16697   6.152   3.795  10.284  0.1254 -1.7345 -0.8161
  151SAPE   C1116698   5.934   3.801  10.332 -0.0230 -1.0820 -0.1647
  151SAPE  H11A16699   5.945   3.736  10.420  0.4977  1.5884  1.8801
  151SAPE  H11B16700   5.837   3.781  10.281 -1.2220  0.0021  1.5895
  151SAPE     P16701   6.051   4.021  10.442 -0.1145  0.1042 -0.0289
  151SAPE   O1316702   5.991   4.143  10.502 -0.8776  0.1240  0.1705
  151SAPE   O1416703   6.111   3.939  10.549  0.4363  0.2639 -0.5646
  151SAPE   O1216704   5.934   3.941  10.372 -0.3960  0.8817  0.0194
  151SAPE   O1116705   6.163   4.060  10.334  0.0494 -0.2685 -0.1203
  151SAPE    C116706   6.143   4.186  10.261 -0.3039  0.3344 -0.0898
  151SAPE    HA16707   6.068   4.250  10.313 -0.3926 -1.1250  1.6708
  151SAPE    HB16708   6.242   4.236  10.276 -0.5632  1.2303 -1.2385
  151SAPE    C216709   6.099   4.158  10.111 -0.5597  0.6709  0.1163
  151SAPE    HS16710   6.082   4.257  10.062 -1.2503  1.9339  2.7216
  151SAPE   O2116711   5.973   4.091  10.110  0.3708  0.1933 -0.3701
  151SAPE   C2116712   5.855   4.152  10.124 -0.2359  0.2346  0.0822
  151SAPE   O2216713   5.846   4.270  10.164  0.0818 -0.0615 -0.2448
  151SAPE   C2216714   5.748   4.057  10.082 -0.3040  0.4516  0.8356
  151SAPE   H2R16715   5.758   3.956  10.127 -1.1862 -0.1768 -0.3258
  151SAPE   H2S16716   5.646   4.096  10.105 -0.5194  0.5534 -0.2101
  151SAPE    C316717   6.210   4.077  10.034 -0.7859 -0.4278 -0.6587
  151SAPE    HX16718   6.221   3.991  10.104  0.2312  0.5438  0.4015
  151SAPE    HY16719   6.300   4.142  10.025 -1.7087  0.7399 -1.7875
  151SAPE   O3116720   6.177   4.040   9.892 -0.0834  0.2724 -0.5201
  151SAPE   C3116721   6.241   3.938   9.837  0.0667 -0.8227 -0.4011
  151SAPE   O3216722   6.326   3.873   9.889 -0.5711 -0.5659  0.5011
  151SAPE   C3216723   6.193   3.918   9.696  0.2875  0.1333  0.0180
  151SAPE   H2X16724   6.167   4.020   9.660 -0.7183 -0.8927 -2.4043
  151SAPE   H2Y16725   6.094   3.869   9.695 -0.1465  0.8402  2.3536
  151SAPE   C2316726   5.721   4.044   9.926  0.2342 -0.0436  0.4169
  151SAPE   H3R16727   5.820   4.048   9.876  0.8464 -0.0767  1.5989
  151SAPE   H3S16728   5.672   4.138   9.893  1.5914  0.7673  0.6097
  151SAPE   C2416729   5.639   3.917   9.880  0.1180 -0.4776 -0.5869
  151SAPE   H4R16730   5.628   3.909   9.770  0.5408 -1.4432 -0.5640
  151SAPE   H4S16731   5.541   3.945   9.923  0.7528  0.4563  0.3137
  151SAPE   C2516732   5.682   3.781   9.937 -0.7363  0.3605  0.2304
  151SAPE   H5R16733   5.643   3.744  10.033  0.0141 -2.7779 -0.5629
  151SAPE   C2616734   5.766   3.696   9.875  0.4114  0.4631  0.2467
  151SAPE   H6R16735   5.781   3.598   9.922  0.2778 -0.3055 -1.2548
  151SAPE   C2716736   5.836   3.722   9.742  0.2336  0.3496  0.0319
  151SAPE   H7R16737   5.946   3.708   9.744  0.6298  2.9788  0.0765
  151SAPE   H7S16738   5.817   3.827   9.712  0.7642  0.2427 -0.7039
  151SAPE   C2816739   5.787   3.632   9.628 -0.2728 -0.9768 -0.3618
  151SAPE   H8R16740   5.692   3.582   9.649 -1.3760  2.3402  3.8040
  151SAPE   C2916741   5.854   3.602   9.514 -0.3838 -0.5220 -0.2395
  151SAPE   H9R16742   5.813   3.535   9.436 -0.9661 -1.1025  0.5484
  151SAPE  C21016743   5.987   3.664   9.484 -0.4206 -0.2360  0.6664
  151SAPE  H10R16744   6.052   3.664   9.574 -0.0817 -1.1987  0.4295
  151SAPE  H10S16745   5.976   3.773   9.464  0.3971 -0.5179 -1.5856
  151SAPE  C21116746   6.057   3.597   9.366 -0.9296 -0.4768 -0.5209
  151SAPE  H11R16747   6.146   3.538   9.392  0.8116  1.1643 -2.3598
  151SAPE  C21216748   6.034   3.631   9.235  0.2396  0.0460  0.1794
  151SAPE  H12R16749   6.090   3.571   9.163  0.7663  0.6314  0.0974
  151SAPE  C21316750   5.936   3.737   9.185 -0.6823  0.5318  0.0255
  151SAPE  H13R16751   5.992   3.833   9.188  0.1397  0.2701 -3.3284
  151SAPE  H13S16752   5.842   3.750   9.244 -1.7433 -3.7394 -0.4515
  151SAPE  C21416753   5.898   3.711   9.045 -0.0189  0.3596 -1.0080
  151SAPE  H14R16754   5.906   3.605   9.014 -1.0031  0.1591 -0.6146
  151SAPE  C21516755   5.862   3.800   8.949 -0.6448 -0.5669  0.1229
  151SAPE  H15R16756   5.836   3.764   8.848  2.4550  0.3549 -1.1225
  151SAPE  C21616757   5.851   3.947   8.971  0.4085 -0.0279 -0.6317
  151SAPE  H16R16758   5.953   3.989   8.963  0.8945 -1.4471 -2.5637
  151SAPE  H16S16759   5.804   3.970   9.069  0.1301  0.9005 -0.9647
  151SAPE  C21716760   5.759   4.025   8.878 -0.2741  0.2350  0.5367
  151SAPE  H17R16761   5.796   4.008   8.774 -0.7425 -0.9446  0.5490
  151SAPE  H17S16762   5.779   4.132   8.898 -0.8414  0.9789 -2.3331
  151SAPE  C21816763   5.610   3.996   8.892 -0.1818  0.5706  0.6090
  151SAPE  H18R16764   5.578   4.033   8.991 -0.1797  1.6452  0.2245
  151SAPE  H18S16765   5.593   3.889   8.870  1.4311  0.4231 -0.1359
  151SAPE  C21916766   5.527   4.088   8.787 -0.1425  0.3749 -0.5665
  151SAPE  H19R16767   5.428   4.039   8.777  0.6388 -1.5707  0.5530
  151SAPE  H19S16768   5.571   4.084   8.685  0.7879  0.5964 -0.1795
  151SAPE  C22016769   5.495   4.232   8.825 -0.2293 -0.2102  0.1088
  151SAPE  H20R16770   5.463   4.286   8.733 -1.1755  1.3899  1.3162
  151SAPE  H20S16771   5.586   4.288   8.857  1.1013  0.2805 -3.9686
  151SAPE  H20T16772   5.413   4.238   8.900 -0.8377 -0.8064 -0.5021
  151SAPE   C3316773   6.295   3.850   9.604  0.5431  0.0956 -0.2297
  151SAPE   H3X16774   6.237   3.775   9.547 -0.0814 -1.4909  2.3293
  151SAPE   H3Y16775   6.362   3.782   9.660 -0.5203 -1.9892 -1.3677
  151SAPE   C3416776   6.373   3.943   9.509 -0.3744  0.2765 -0.2241
  151SAPE   H4X16777   6.435   4.012   9.571  0.1046  0.0824 -0.4786
  151SAPE   H4Y16778   6.306   4.008   9.449 -0.1206 -0.4247 -1.3062
  151SAPE   C3516779   6.469   3.858   9.417 -0.4773 -0.0074 -0.2165
  151SAPE   H5X16780   6.520   3.786   9.485 -0.1265  0.9224  0.5275
  151SAPE   H5Y16781   6.552   3.918   9.374 -0.3215  0.3478  0.5713
  151SAPE   C3616782   6.391   3.780   9.300  0.2884  0.6227 -0.2209
  151SAPE   H6X16783   6.326   3.701   9.344 -0.8472  0.1796 -2.5704
  151SAPE   H6Y16784   6.471   3.723   9.249 -1.9905 -1.9278 -1.1892
  151SAPE   C3716785   6.325   3.873   9.198  0.3071  0.8970 -0.7840
  151SAPE   H7X16786   6.368   3.976   9.196 -0.5259  1.2610 -0.4551
  151SAPE   H7Y16787   6.222   3.892   9.234  0.3073 -0.0891 -0.2402
  151SAPE   C3816788   6.319   3.808   9.060 -0.4142  0.0200  0.0287
  151SAPE   H8X16789   6.268   3.710   9.071 -0.3072  0.1123  1.7044
  151SAPE   H8Y16790   6.423   3.786   9.027  0.0371 -1.7480  2.3475
  151SAPE   C3916791   6.244   3.889   8.950  0.5696  0.6508  0.3142
  151SAPE   H9X16792   6.285   3.986   8.917 -2.7474  1.8850 -0.5811
  151SAPE   H9Y16793   6.139   3.906   8.983 -0.5241 -0.7436 -2.1954
  151SAPE  C31016794   6.235   3.806   8.821 -0.1389 -0.7617  0.7701
  151SAPE  H10X16795   6.181   3.710   8.831  1.6051 -1.7365  1.2814
  151SAPE  H10Y16796   6.336   3.783   8.781 -0.7034 -1.8796 -0.0580
  151SAPE  C31116797   6.159   3.890   8.714 -0.2177 -0.1362  0.6184
  151SAPE  H11X16798   6.201   3.992   8.704  4.0704 -1.8378 -1.1809
  151SAPE  H11Y16799   6.057   3.896   8.756 -0.2551 -0.4163  0.5678
  151SAPE  C31216800   6.146   3.819   8.582  0.1428 -0.3531  0.1535
  151SAPE  H12X16801   6.246   3.815   8.534  0.1762  2.8244 -0.2444
  151SAPE  H12Y16802   6.089   3.893   8.521 -0.0987  0.4040  1.2663
  151SAPE  C31316803   6.069   3.686   8.581 -0.1846  0.6798  0.7825
  151SAPE  H13X16804   5.974   3.676   8.637 -1.5475 -0.3352 -1.5790
  151SAPE  H13Y16805   6.141   3.608   8.613 -1.3025 -0.0816  1.4966
  151SAPE  C31416806   6.020   3.649   8.438  0.1303  0.4165  0.1389
  151SAPE  H14X16807   6.112   3.634   8.378 -0.7940  0.3762 -1.3125
  151SAPE  H14Y16808   5.956   3.731   8.401  0.8208  1.9539  2.1696
  151SAPE  C31516809   5.952   3.509   8.436  0.0717 -0.1921  0.1097
  151SAPE  H15X16810   5.891   3.507   8.529 -0.6986 -1.4645 -0.3963
  151SAPE  H15Y16811   6.034   3.438   8.460 -0.9642 -0.3881  3.5558
  151SAPE  C31616812   5.880   3.482   8.313 -0.0235  0.2985 -0.0906
  151SAPE  H16X16813   5.817   3.570   8.286  2.2970  2.1824  0.3067
  151SAPE  H16Y16814   5.814   3.394   8.328 -1.6912  1.2186 -1.6275
  151SAPE  C31716815   5.972   3.468   8.181  0.4967  0.1472 -0.2755
  151SAPE  H17X16816   5.991   3.572   8.147 -1.8374  1.5714  2.2745
  151SAPE  H17Y16817   5.903   3.423   8.106  3.7249  0.1857 -3.5135
  151SAPE  C31816818   6.091   3.378   8.198  0.5010 -0.0441  0.6045
  151SAPE  H18X16819   6.160   3.429   8.268  0.3362 -2.4052  2.6529
  151SAPE  H18Y16820   6.149   3.349   8.108  2.1096 -0.3848  1.7074
  151SAPE  H18Z16821   6.061   3.280   8.242  0.3813 -0.3806 -0.2241
  152SAPE     N16822   6.100   3.127  10.574 -0.0419 -0.7948 -0.3340
  152SAPE   HN116823   6.105   3.220  10.529  0.3034 -0.7058 -0.1147
  152SAPE   HN216824   6.011   3.082  10.545  0.1138 -0.9134 -0.6337
  152SAPE   HN316825   6.114   3.131  10.677  0.9898  1.1902 -0.5079
  152SAPE   C1216826   6.207   3.041  10.500 -0.3164  0.5193 -0.4206
  152SAPE  H12A16827   6.212   2.936  10.535  2.8342 -0.5375 -3.4724
  152SAPE  H12B16828   6.310   3.081  10.510  1.0321 -2.7887  0.1758
  152SAPE   C1116829   6.174   3.032  10.349 -0.3323 -0.3001  0.2992
  152SAPE  H11A16830   6.241   2.951  10.312 -1.4746 -0.9084 -0.4913
  152SAPE  H11B16831   6.202   3.128  10.300  0.8049 -0.0459  1.3915
  152SAPE     P16832   5.997   2.842  10.317 -0.1125  0.1840  0.4628
  152SAPE   O1316833   6.037   2.769  10.439 -0.2325 -0.6361  0.0549
  152SAPE   O1416834   5.852   2.853  10.286  0.2945 -0.6433 -0.6568
  152SAPE   O1216835   6.039   2.991  10.323 -0.5617  0.2786 -0.2311
  152SAPE   O1116836   6.065   2.781  10.183 -0.1074 -0.5376 -0.3652
  152SAPE    C116837   6.102   2.864  10.076  0.1411  0.5640  0.4218
  152SAPE    HA16838   6.009   2.904  10.032 -2.7173 -2.2208  3.3793
  152SAPE    HB16839   6.163   2.949  10.116  0.4908 -0.2744  1.7232
  152SAPE    C216840   6.179   2.778   9.971 -0.3826 -0.0910  0.3105
  152SAPE    HS16841   6.276   2.748  10.016  0.6475  0.4203 -1.4628
  152SAPE   O2116842   6.196   2.862   9.850  0.1784  0.4901  0.2658
  152SAPE   C2116843   6.301   2.836   9.779  0.3795 -0.0110  0.0088
  152SAPE   O2216844   6.399   2.772   9.813 -0.3229  0.3530  0.1829
  152SAPE   C2216845   6.298   2.913   9.647  0.0973  0.7392 -0.0774
  152SAPE   H2R16846   6.191   2.938   9.632  0.4816  2.9302  0.4901
  152SAPE   H2S16847   6.354   3.007   9.664  0.6058  0.5909 -0.8901
  152SAPE    C316848   6.110   2.639   9.943 -0.0972  0.4546  0.1858
  152SAPE    HX16849   6.006   2.653   9.906  0.2442  1.7615 -0.3291
  152SAPE    HY16850   6.118   2.586  10.040 -1.8992  0.7277  0.5158
  152SAPE   O3116851   6.195   2.566   9.844  0.2954  0.0700  0.3229
  152SAPE   C3116852   6.158   2.438   9.838  0.0776 -0.3144 -0.4944
  152SAPE   O3216853   6.074   2.390   9.913  0.1673 -0.1429  0.3073
  152SAPE   C3216854   6.244   2.356   9.743  0.8255  0.1738 -0.1595
  152SAPE   H2X16855   6.267   2.267   9.805  0.4059  0.7451  0.8393
  152SAPE   H2Y16856   6.334   2.411   9.708 -0.9061  1.6279 -2.6401
  152SAPE   C2316857   6.362   2.829   9.535  0.6548 -0.5699 -0.2313
  152SAPE   H3R16858   6.306   2.733   9.540 -1.8060  0.7873 -0.1400
  152SAPE   H3S16859   6.464   2.795   9.561  0.2847  0.0530  2.2314
  152SAPE   C2416860   6.352   2.899   9.399 -0.6136  0.3582  0.3247
  152SAPE   H4R16861   6.409   2.995   9.394  0.1506 -0.1559 -2.2556
  152SAPE   H4S16862   6.245   2.922   9.385 -1.0417 -1.2649  0.6788
  152SAPE   C2516863   6.403   2.815   9.282  0.4873  0.1582 -0.4607
  152SAPE   H5R16864   6.465   2.727   9.303  0.8664  0.1995 -1.3805
  152SAPE   C2616865   6.368   2.827   9.145 -0.2866 -0.4336 -0.3932
  152SAPE   H6R16866   6.417   2.759   9.074  0.8081  0.8380 -0.9217
  152SAPE   C2716867   6.276   2.934   9.085 -0.1903 -0.3698 -0.1460
  152SAPE   H7R16868   6.333   3.016   9.036  2.8065 -1.7512  0.8479
  152SAPE   H7S16869   6.215   2.982   9.164 -1.4450 -1.2829 -0.5171
  152SAPE   C2816870   6.180   2.869   8.986 -0.2253 -0.2280 -0.2388
  152SAPE   H8R16871   6.105   2.804   9.034 -1.0258  1.7015  1.2612
  152SAPE   C2916872   6.179   2.901   8.851 -0.1579  0.2332  0.5280
  152SAPE   H9R16873   6.098   2.847   8.799 -0.2420  0.8034  0.0662
  152SAPE  C21016874   6.266   3.002   8.772  0.3086  0.0141 -0.7391
  152SAPE  H10R16875   6.364   2.952   8.786 -0.7677 -2.3434 -1.1140
  152SAPE  H10S16876   6.273   3.097   8.828  0.6983  0.8416 -2.1418
  152SAPE  C21116877   6.222   3.021   8.629 -0.5357 -0.6522 -1.0665
  152SAPE  H11R16878   6.274   2.948   8.565  1.3045  0.7671 -1.2809
  152SAPE  C21216879   6.123   3.092   8.576 -0.5344 -0.0123  0.6928
  152SAPE  H12R16880   6.104   3.078   8.468  1.7865  1.4621  0.0200
  152SAPE  C21316881   6.021   3.187   8.640 -0.0820  0.5132 -0.0837
  152SAPE  H13R16882   6.054   3.293   8.643 -2.8127  1.4928 -1.7279
  152SAPE  H13S16883   6.018   3.150   8.745 -0.5443 -4.4181 -1.5878
  152SAPE  C21416884   5.875   3.187   8.591  0.1691 -0.1761 -0.5828
  152SAPE  H14R16885   5.853   3.273   8.526  0.2217  0.8774  0.7255
  152SAPE  C21516886   5.779   3.091   8.606  0.6867  0.7836 -0.0724
  152SAPE  H15R16887   5.677   3.119   8.575  0.4900 -1.1530 -1.3101
  152SAPE  C21616888   5.801   2.961   8.691 -1.1806  0.0173  0.1024
  152SAPE  H16R16889   5.739   2.971   8.782 -0.4167  1.4467  0.5017
  152SAPE  H16S16890   5.906   2.953   8.726 -0.1825 -1.5957 -2.9145
  152SAPE  C21716891   5.761   2.832   8.625  0.5033  0.1517 -0.2674
  152SAPE  H17R16892   5.816   2.814   8.530 -0.7106 -0.1573 -0.9271
  152SAPE  H17S16893   5.653   2.834   8.601  0.3688  1.2618  0.3330
  152SAPE  C21816894   5.793   2.709   8.716  0.3860 -0.9631  0.0181
  152SAPE  H18R16895   5.743   2.725   8.814 -0.2357 -1.2339 -0.2494
  152SAPE  H18S16896   5.899   2.713   8.749  0.4501  2.3648 -0.2356
  152SAPE  C21916897   5.779   2.568   8.661  0.5480 -0.3079 -0.1763
  152SAPE  H19R16898   5.862   2.500   8.692  0.6662 -0.8322 -1.5534
  152SAPE  H19S16899   5.775   2.585   8.551 -2.5178  0.3915 -0.0289
  152SAPE  C22016900   5.647   2.503   8.707  0.1762  0.1338  0.9604
  152SAPE  H20R16901   5.640   2.399   8.670  0.7593  0.0129  1.1774
  152SAPE  H20S16902   5.561   2.565   8.673 -0.9911 -1.6510  0.5454
  152SAPE  H20T16903   5.635   2.491   8.817 -0.0530 -2.0400  0.7344
  152SAPE   C3316904   6.178   2.321   9.607  0.4682  0.2403 -0.8753
  152SAPE   H3X16905   6.088   2.258   9.622  0.1101  1.0364  0.4972
  152SAPE   H3Y16906   6.242   2.248   9.554 -0.9499 -1.2588 -0.6219
  152SAPE   C3416907   6.159   2.451   9.529  0.2753  0.3016 -0.6267
  152SAPE   H4X16908   6.251   2.513   9.523  1.4454 -1.4627 -1.4131
  152SAPE   H4Y16909   6.086   2.513   9.586  0.9643 -0.4233  1.1029
  152SAPE   C3516910   6.115   2.428   9.384  0.0839  0.1255 -1.1172
  152SAPE   H5X16911   6.027   2.360   9.380  0.0417  0.1765 -1.0580
  152SAPE   H5Y16912   6.189   2.356   9.344  0.5945  0.5644 -0.9789
  152SAPE   C3616913   6.099   2.544   9.297 -0.4699  0.2977  0.2857
  152SAPE   H6X16914   6.185   2.612   9.311 -0.9883  0.9158  0.5402
  152SAPE   H6Y16915   6.008   2.605   9.316 -1.1910  0.8393 -3.8646
  152SAPE   C3716916   6.082   2.520   9.147  0.1357  0.5618  0.6295
  152SAPE   H7X16917   6.144   2.442   9.099  0.5452  0.0386  1.9648
  152SAPE   H7Y16918   6.095   2.615   9.090  0.4061  0.4853  0.5642
  152SAPE   C3816919   5.939   2.479   9.112 -0.1507  0.2015  0.6324
  152SAPE   H8X16920   5.931   2.497   9.002 -1.3786 -0.8373  0.5298
  152SAPE   H8Y16921   5.861   2.532   9.169 -0.7343 -1.5340  1.5375
  152SAPE   C3916922   5.901   2.336   9.130 -0.0930 -0.1481  0.0208
  152SAPE   H9X16923   5.909   2.307   9.237 -1.5857  0.5723  0.3641
  152SAPE   H9Y16924   5.956   2.268   9.062  1.5018  1.7873 -0.7041
  152SAPE  C31016925   5.746   2.308   9.098  0.4543  0.3807  0.5560
  152SAPE  H10X16926   5.736   2.203   9.130  0.2770  0.2734  0.1620
  152SAPE  H10Y16927   5.729   2.311   8.988  2.1918  0.9945  0.2723
  152SAPE  C31116928   5.653   2.400   9.185 -0.2453 -0.8001 -0.8769
  152SAPE  H11X16929   5.551   2.359   9.173 -0.7598  0.3539 -0.5529
  152SAPE  H11Y16930   5.646   2.500   9.138 -0.4009 -1.0158 -1.3214
  152SAPE  C31216931   5.682   2.408   9.334  0.1133 -0.5077  0.7207
  152SAPE  H12X16932   5.617   2.488   9.374  0.4714  0.2445 -0.1594
  152SAPE  H12Y16933   5.790   2.435   9.344  0.0883  0.1174 -0.5230
  152SAPE  C31316934   5.665   2.273   9.415 -0.5854  0.2432  0.4888
  152SAPE  H13X16935   5.732   2.193   9.380 -1.0140  0.1410 -0.1120
  152SAPE  H13Y16936   5.558   2.244   9.401 -0.3202 -0.3378 -0.3745
  152SAPE  C31416937   5.694   2.286   9.562 -0.8734  0.1373 -0.5292
  152SAPE  H14X16938   5.627   2.368   9.598  2.8037  3.1837 -0.0154
  152SAPE  H14Y16939   5.795   2.330   9.571  0.3278 -2.8554  3.0736
  152SAPE  C31516940   5.698   2.159   9.646  0.2223 -0.0008  1.0290
  152SAPE  H15X16941   5.775   2.089   9.605 -1.1352 -0.9686  0.0470
  152SAPE  H15Y16942   5.598   2.115   9.627 -0.5189  1.6791  0.9237
  152SAPE  C31616943   5.711   2.186   9.797 -0.7975  0.4914 -0.3052
  152SAPE  H16X16944   5.792   2.262   9.807 -0.5793  0.5620 -2.3049
  152SAPE  H16Y16945   5.732   2.095   9.857 -5.3486 -1.1831 -0.8601
  152SAPE  C31716946   5.581   2.229   9.851  0.3802 -0.3658  0.9312
  152SAPE  H17X16947   5.503   2.154   9.825 -0.5378  0.7374  0.4013
  152SAPE  H17Y16948   5.557   2.327   9.804  2.8370  0.7060  1.7126
  152SAPE  C31816949   5.583   2.255  10.002 -0.4418  0.4751  0.3666
  152SAPE  H18X16950   5.627   2.174  10.064  0.1397  1.8327  1.7807
  152SAPE  H18Y16951   5.479   2.275  10.035 -1.1016 -0.4649 -1.0163
  152SAPE  H18Z16952   5.649   2.341  10.024  1.6430 -0.6666 -1.0580
  153SAPE     N16953   6.796   3.506  11.011  0.2940  0.0012 -0.9129
  153SAPE   HN116954   6.696   3.484  10.994 -0.6982  0.5211  3.0631
  153SAPE   HN216955   6.857   3.455  10.944  1.5914 -0.1922  0.3723
  153SAPE   HN316956   6.826   3.492  11.110  0.7994 -1.2774 -1.2268
  153SAPE   C1216957   6.805   3.655  10.976 -0.3765 -0.3654  0.0710
  153SAPE  H12A16958   6.875   3.697  11.052  0.6526  1.2088 -1.6458
  153SAPE  H12B16959   6.709   3.704  11.004  0.6944  0.5239  2.5084
  153SAPE   C1116960   6.856   3.691  10.835  0.1738 -0.0053  0.4353
  153SAPE  H11A16961   6.942   3.630  10.799 -1.1997 -0.6539 -2.0011
  153SAPE  H11B16962   6.881   3.799  10.825 -0.2942  0.0275 -0.4935
  153SAPE     P16963   6.773   3.731  10.589 -0.3498 -0.2845  0.1885
  153SAPE   O1316964   6.717   3.622  10.503 -0.3557  0.1688  0.5276
  153SAPE   O1416965   6.709   3.866  10.602  0.1679 -0.0316  0.2380
  153SAPE   O1216966   6.761   3.670  10.730 -0.2417  0.1696  0.0014
  153SAPE   O1116967   6.927   3.743  10.564 -0.3774 -0.3059  0.6081
  153SAPE    C116968   6.998   3.842  10.495 -0.2877 -0.0359 -0.2066
  153SAPE    HA16969   6.953   3.944  10.502 -2.3841 -0.8110 -1.5454
  153SAPE    HB16970   7.097   3.849  10.544  0.2134  0.8253 -1.3170
  153SAPE    C216971   7.019   3.806  10.349  0.6557 -0.6516  0.5558
  153SAPE    HS16972   7.094   3.875  10.305 -0.5151  0.4777  0.2630
  153SAPE   O2116973   6.899   3.824  10.270 -0.8226  0.2354 -0.1962
  153SAPE   C2116974   6.861   3.954  10.238  0.0367  0.6815 -0.4443
  153SAPE   O2216975   6.914   4.049  10.291  0.2838 -0.1905  0.6167
  153SAPE   C2216976   6.771   3.964  10.115 -0.2570  0.2016 -0.4677
  153SAPE   H2R16977   6.770   3.864  10.067 -2.3273 -0.3991  0.6855
  153SAPE   H2S16978   6.669   3.978  10.159 -0.4826 -2.8482  0.2266
  153SAPE    C316979   7.073   3.660  10.330 -0.1777 -0.0967  0.0802
  153SAPE    HX16980   6.997   3.594  10.377 -1.7074  2.4903  1.4802
  153SAPE    HY16981   7.165   3.647  10.391 -0.6057 -0.3132  0.6874
  153SAPE   O3116982   7.110   3.629  10.193 -0.8400  0.3020 -1.0298
  153SAPE   C3116983   7.016   3.569  10.121  0.1516  0.4960  0.8495
  153SAPE   O3216984   6.898   3.568  10.147  0.3944  0.9064  0.0854
  153SAPE   C3216985   7.083   3.497  10.005  0.2520  0.5607 -0.7473
  153SAPE   H2X16986   7.144   3.411  10.040 -0.4600  0.1244 -0.5717
  153SAPE   H2Y16987   7.144   3.570   9.948  1.7313  1.3735  1.7147
  153SAPE   C2316988   6.808   4.087  10.031  0.0556 -0.1082 -0.8091
  153SAPE   H3R16989   6.903   4.067   9.977 -0.8510 -0.7599 -2.2236
  153SAPE   H3S16990   6.817   4.175  10.098 -0.6599 -1.7252  1.5711
  153SAPE   C2416991   6.705   4.130   9.924 -0.1901  0.3607 -0.4182
  153SAPE   H4R16992   6.753   4.218   9.876  0.0232  0.9853  0.8999
  153SAPE   H4S16993   6.622   4.159   9.992 -0.0021 -1.2706  0.5564
  153SAPE   C2516994   6.671   4.034   9.815  0.3592  0.1781 -0.0202
  153SAPE   H5R16995   6.625   3.943   9.856  0.8034  0.1396  0.4026
  153SAPE   C2616996   6.720   4.032   9.686  0.0738 -0.2953  0.0940
  153SAPE   H6R16997   6.685   3.958   9.613 -0.8718 -0.7148  0.9529
  153SAPE   C2716998   6.811   4.142   9.630 -0.3070 -0.5530  0.4213
  153SAPE   H7R16999   6.902   4.089   9.593 -0.4841  0.3866 -1.4758
  153SAPE   H7S17000   6.849   4.219   9.700  0.6316 -0.8439  0.2474
  153SAPE   C2817001   6.752   4.227   9.522  0.1045 -0.7466  0.1748
  153SAPE   H8R17002   6.648   4.210   9.491  0.4496 -3.2428  0.2438
  153SAPE   C2917003   6.816   4.325   9.459  0.6520 -0.7614 -0.0134
  153SAPE   H9R17004   6.773   4.391   9.382  0.7268 -1.0131 -0.2700
  153SAPE  C21017005   6.960   4.361   9.481 -0.6988 -0.0694 -0.2364
  153SAPE  H10R17006   7.015   4.302   9.556  0.1158 -0.3192 -1.0147
  153SAPE  H10S17007   6.967   4.466   9.517 -1.4568  0.1693 -0.7396
  153SAPE  C21117008   7.032   4.340   9.350 -0.1486 -0.2233 -1.4262
  153SAPE  H11R17009   6.986   4.272   9.277 -0.5502  1.8501 -3.1904
  153SAPE  C21217010   7.139   4.408   9.309  0.1719 -0.0833 -0.2045
  153SAPE  H12R17011   7.187   4.377   9.214 -0.3690 -0.4193 -0.3717
  153SAPE  C21317012   7.225   4.511   9.378 -0.2715 -0.5328  0.9691
  153SAPE  H13R17013   7.329   4.475   9.388 -0.6339 -2.0869 -0.4107
  153SAPE  H13S17014   7.191   4.540   9.479  0.2116  0.8011  0.7673
  153SAPE  C21417015   7.239   4.625   9.284  0.6976 -0.1645  0.2644
  153SAPE  H14R17016   7.154   4.695   9.293  0.7654  0.1034 -0.9952
  153SAPE  C21517017   7.319   4.650   9.183 -0.1251 -0.1002  0.1467
  153SAPE  H15R17018   7.301   4.741   9.123  0.7640  0.0383  0.0649
  153SAPE  C21617019   7.435   4.567   9.131 -0.0128  0.5794 -0.4495
  153SAPE  H16R17020   7.455   4.486   9.204 -2.2158  0.7405  0.4153
  153SAPE  H16S17021   7.525   4.632   9.128 -1.1945  2.4575  1.3034
  153SAPE  C21717022   7.393   4.511   8.997  0.6413 -0.2893  0.2851
  153SAPE  H17R17023   7.313   4.434   9.000  1.2373 -0.9012  1.3540
  153SAPE  H17S17024   7.480   4.448   8.966  0.7567  0.0639 -0.1180
  153SAPE  C21817025   7.351   4.613   8.887 -0.0507  0.3352 -0.2251
  153SAPE  H18R17026   7.444   4.674   8.885 -0.8510  1.6101  0.1654
  153SAPE  H18S17027   7.266   4.674   8.922 -1.5705 -2.1680  0.7211
  153SAPE  C21917028   7.330   4.544   8.754  0.5599 -0.1441  0.3989
  153SAPE  H19R17029   7.233   4.491   8.748  0.5968 -0.0736 -2.2512
  153SAPE  H19S17030   7.412   4.473   8.732  1.0727  0.5026  0.1991
  153SAPE  C22017031   7.328   4.649   8.640 -0.0816 -0.9796 -0.2788
  153SAPE  H20R17032   7.329   4.594   8.543 -0.7843 -1.6844  0.0903
  153SAPE  H20S17033   7.414   4.718   8.643  0.8289 -1.8108 -3.5278
  153SAPE  H20T17034   7.242   4.719   8.644  1.5342  1.0479  0.1552
  153SAPE   C3317035   6.982   3.442   9.901  0.4417  0.5416 -0.0569
  153SAPE   H3X17036   6.894   3.509   9.889  1.7607  2.4561  0.5181
  153SAPE   H3Y17037   6.946   3.345   9.941  2.2927 -0.8424 -1.5931
  153SAPE   C3417038   7.039   3.414   9.761  0.2671 -1.0330  0.0570
  153SAPE   H4X17039   7.033   3.507   9.700 -1.2491 -0.2523  1.3197
  153SAPE   H4Y17040   6.977   3.344   9.700 -1.1587  0.6990 -0.5944
  153SAPE   C3517041   7.183   3.368   9.751  0.0798  1.0175 -0.1518
  153SAPE   H5X17042   7.185   3.264   9.791 -2.3735  0.3809 -1.4857
  153SAPE   H5Y17043   7.259   3.434   9.798  1.1337  0.4516 -1.0079
  153SAPE   C3617044   7.243   3.353   9.608  0.2442 -0.2461 -0.8814
  153SAPE   H6X17045   7.343   3.307   9.623  0.0099 -1.0159 -1.5569
  153SAPE   H6Y17046   7.257   3.450   9.555  0.5575  0.2395  0.0769
  153SAPE   C3717047   7.174   3.259   9.509  0.1018 -0.4495 -0.0955
  153SAPE   H7X17048   7.071   3.296   9.495 -0.0762 -0.8001  0.2922
  153SAPE   H7Y17049   7.175   3.153   9.541  2.0834 -0.9387 -1.5750
  153SAPE   C3817050   7.242   3.267   9.365 -0.2103 -0.0080 -0.1658
  153SAPE   H8X17051   7.326   3.195   9.354  0.8973  1.0424  1.1036
  153SAPE   H8Y17052   7.282   3.370   9.351 -2.2316  0.7950 -0.3759
  153SAPE   C3917053   7.142   3.247   9.251 -0.1495  1.1049  0.6823
  153SAPE   H9X17054   7.062   3.324   9.257  0.2697  1.6773 -0.6787
  153SAPE   H9Y17055   7.114   3.140   9.250  3.0105  0.1144 -2.5212
  153SAPE  C31017056   7.207   3.257   9.108 -0.2209 -0.1625 -0.0380
  153SAPE  H10X17057   7.284   3.179   9.087  0.4403  0.6942 -0.9038
  153SAPE  H10Y17058   7.268   3.350   9.102 -0.5686  0.1240  0.7384
  153SAPE  C31117059   7.124   3.244   8.977 -1.1033 -1.3139 -0.3187
  153SAPE  H11X17060   7.057   3.157   8.984 -1.9384 -0.5404  2.7107
  153SAPE  H11Y17061   7.194   3.242   8.891  0.6306  2.7556  0.7428
  153SAPE  C31217062   7.036   3.366   8.972 -1.3361  0.0579 -0.2132
  153SAPE  H12X17063   7.091   3.462   8.984 -0.8147 -0.0768 -1.3878
  153SAPE  H12Y17064   6.967   3.367   9.059 -0.6892 -0.8175  0.3328
  153SAPE  C31317065   6.959   3.365   8.841 -0.1823 -0.3614 -0.4631
  153SAPE  H13X17066   6.890   3.278   8.837  0.0678 -0.5187 -1.8541
  153SAPE  H13Y17067   7.029   3.354   8.756 -1.4245 -1.4386 -1.3927
  153SAPE  C31417068   6.884   3.489   8.824  0.1200 -0.0852  0.2436
  153SAPE  H14X17069   6.946   3.574   8.860 -1.0869  1.2283 -0.6516
  153SAPE  H14Y17070   6.789   3.485   8.883 -0.3219  0.5618 -0.4008
  153SAPE  C31517071   6.847   3.517   8.679  0.0782  0.3831 -0.7357
  153SAPE  H15X17072   6.759   3.457   8.649 -1.5528  1.9215  0.7119
  153SAPE  H15Y17073   6.934   3.489   8.616  1.5592 -0.1728  1.4511
  153SAPE  C31617074   6.817   3.667   8.649 -0.3575 -0.2464 -0.9604
  153SAPE  H16X17075   6.739   3.686   8.726 -0.4459  2.7112 -1.6759
  153SAPE  H16Y17076   6.777   3.682   8.547 -1.4158 -2.7986 -0.9988
  153SAPE  C31717077   6.933   3.771   8.655 -0.8202  0.4822  0.4309
  153SAPE  H17X17078   7.010   3.736   8.583  1.2676  0.7044  2.4350
  153SAPE  H17Y17079   7.000   3.766   8.744  0.0195  0.3812 -0.1943
  153SAPE  C31817080   6.898   3.913   8.610 -0.1840  0.4107 -0.3677
  153SAPE  H18X17081   6.822   3.911   8.529  1.4999 -1.6317 -1.9793
  153SAPE  H18Y17082   6.982   3.974   8.573  0.7728 -0.3290  0.5178
  153SAPE  H18Z17083   6.867   3.967   8.702  0.4395  0.0263  0.0748
  154SAPE     N17084   1.054   3.342  10.592 -0.3733  0.5567 -0.0825
  154SAPE   HN117085   1.143   3.322  10.543 -0.9815  1.4188 -1.5735
  154SAPE   HN217086   1.082   3.410  10.666  1.5771  0.4495 -0.6710
  154SAPE   HN317087   1.030   3.260  10.653  1.3157 -0.6750 -0.9897
  154SAPE   C1217088   0.958   3.407  10.489 -0.3509 -0.2175 -0.7005
  154SAPE  H12A17089   0.871   3.339  10.479 -0.6591 -0.0899  0.8042
  154SAPE  H12B17090   1.017   3.420  10.396 -0.0706 -1.4255 -0.7094
  154SAPE   C1117091   0.909   3.532  10.553 -0.2049 -0.9211 -0.0466
  154SAPE  H11A17092   0.863   3.504  10.650  2.4532 -2.9549  0.7570
  154SAPE  H11B17093   0.835   3.573  10.481 -1.0565 -0.5169  1.0392
  154SAPE     P17094   0.976   3.772  10.619 -0.2777 -0.1128 -0.0084
  154SAPE   O1317095   0.845   3.767  10.692  0.3828 -0.4135 -0.4271
  154SAPE   O1417096   1.090   3.830  10.695  0.4017 -0.1282 -0.0640
  154SAPE   O1217097   1.015   3.622  10.583 -0.2341 -0.7847 -0.8862
  154SAPE   O1117098   0.968   3.836  10.480 -0.0283 -0.0029 -0.3580
  154SAPE    C117099   1.072   3.894  10.404 -0.4233  0.5529 -0.7664
  154SAPE    HA17100   1.085   3.998  10.442 -0.9918  0.2426  0.3202
  154SAPE    HB17101   1.164   3.835  10.426 -1.2325 -0.0561  1.1611
  154SAPE    C217102   1.052   3.894  10.251  0.5083  0.0826  0.0333
  154SAPE    HS17103   1.140   3.947  10.207  0.0443  0.9114  0.0848
  154SAPE   O2117104   0.931   3.967  10.220  0.0146  0.4345  0.3080
  154SAPE   C2117105   0.928   4.029  10.104  0.0688 -0.2434 -0.2879
  154SAPE   O2217106   1.024   4.037  10.029  0.5623 -0.1349  0.0858
  154SAPE   C2217107   0.789   4.089  10.087 -0.5617 -0.4198 -0.5035
  154SAPE   H2R17108   0.769   4.171  10.160 -0.3362 -0.4448 -0.4109
  154SAPE   H2S17109   0.783   4.141   9.989 -0.3561  1.9344  0.6561
  154SAPE    C317110   1.045   3.750  10.187 -0.6207 -1.2408  0.3233
  154SAPE    HX17111   0.944   3.714  10.216 -1.7519  1.3358 -0.0976
  154SAPE    HY17112   1.124   3.691  10.239 -0.0140 -0.4345  0.3419
  154SAPE   O3117113   1.056   3.763  10.042  0.2453 -0.1022  0.0841
  154SAPE   C3117114   1.180   3.746   9.992  0.7794 -0.2432 -1.1327
  154SAPE   O3217115   1.275   3.742  10.070 -0.0025  0.4273 -0.0129
  154SAPE   C3217116   1.180   3.731   9.838  0.5377 -0.1134  0.2337
  154SAPE   H2X17117   1.209   3.625   9.818  0.1151 -0.0326 -0.9068
  154SAPE   H2Y17118   1.267   3.787   9.800 -0.1380 -0.3287 -1.7830
  154SAPE   C2317119   0.678   3.979  10.092  0.1750  0.2025  0.1274
  154SAPE   H3R17120   0.579   4.024  10.072  1.0002  2.2564  0.4256
  154SAPE   H3S17121   0.671   3.926  10.190  0.3081 -0.8136 -0.3980
  154SAPE   C2417122   0.694   3.869   9.985  0.2251 -0.2350 -0.3458
  154SAPE   H4R17123   0.640   3.781  10.024  2.2606 -1.3293  0.1691
  154SAPE   H4S17124   0.794   3.819   9.990  0.6730  0.6766  0.1282
  154SAPE   C2517125   0.649   3.911   9.843  0.1023 -0.0759 -0.7523
  154SAPE   H5R17126   0.730   3.972   9.799  2.6651 -2.0223  0.9154
  154SAPE   C2617127   0.524   3.896   9.787 -0.8744 -0.1079 -0.1101
  154SAPE   H6R17128   0.505   3.948   9.691 -0.4055 -0.8219 -0.6000
  154SAPE   C2717129   0.405   3.807   9.843 -0.1663 -0.6687  0.9221
  154SAPE   H7R17130   0.401   3.808   9.954 -2.9846  0.2343  0.8964
  154SAPE   H7S17131   0.429   3.706   9.805  0.5252  1.0105 -3.8146
  154SAPE   C2817132   0.267   3.849   9.800 -0.5169 -0.7544  0.4940
  154SAPE   H8R17133   0.212   3.896   9.883 -2.8932  0.2455 -1.5211
  154SAPE   C2917134   0.214   3.840   9.679  0.1927 -0.0563  0.4840
  154SAPE   H9R17135   0.115   3.882   9.657 -0.1804 -1.4151 -0.5875
  154SAPE  C21017136   0.289   3.788   9.556 -0.1421 -0.4776 -0.0535
  154SAPE  H10R17137   0.212   3.734   9.496  1.5410  0.2698 -3.1052
  154SAPE  H10S17138   0.378   3.726   9.579 -0.3696 -0.4657  0.8723
  154SAPE  C21117139   0.326   3.901   9.465  0.3128 -0.6611 -0.0798
  154SAPE  H11R17140   0.272   3.994   9.484  1.6488  0.2421 -0.5605
  154SAPE  C21217141   0.408   3.911   9.356  0.6720 -0.0584  0.2257
  154SAPE  H12R17142   0.410   4.011   9.310  0.3623  0.0032  0.3405
  154SAPE  C21317143   0.490   3.798   9.300 -0.3298 -0.7849  0.6376
  154SAPE  H13R17144   0.418   3.724   9.259 -0.5096 -0.2251 -0.0909
  154SAPE  H13S17145   0.550   3.754   9.382  2.4178  1.8016  0.1867
  154SAPE  C21417146   0.589   3.842   9.199  0.1953 -0.3971 -0.3380
  154SAPE  H14R17147   0.686   3.873   9.242  1.0971 -3.4801  0.0453
  154SAPE  C21517148   0.577   3.856   9.073  0.5958  0.0291 -0.4022
  154SAPE  H15R17149   0.668   3.874   9.014  0.3448  1.4617 -0.4097
  154SAPE  C21617150   0.456   3.825   8.986  0.7501 -0.5565 -0.2547
  154SAPE  H16R17151   0.366   3.810   9.050  1.6523 -1.5878  0.8175
  154SAPE  H16S17152   0.481   3.733   8.930 -1.3023 -1.4851  0.2613
  154SAPE  C21717153   0.413   3.939   8.888  0.2131  0.0630  0.1665
  154SAPE  H17R17154   0.369   3.897   8.795  2.9894 -0.1419 -1.1375
  154SAPE  H17S17155   0.500   3.997   8.852 -1.0553  0.6052 -2.2643
  154SAPE  C21817156   0.311   4.042   8.947 -0.0097 -0.0457  0.2187
  154SAPE  H18R17157   0.332   4.063   9.054  0.0509  1.6078 -0.0916
  154SAPE  H18S17158   0.206   4.006   8.956 -1.0289  2.1154 -1.9822
  154SAPE  C21917159   0.322   4.178   8.879 -0.2029  0.5599  0.1428
  154SAPE  H19R17160   0.324   4.141   8.774  2.6701  0.3072  0.1872
  154SAPE  H19S17161   0.423   4.221   8.896  1.1296 -2.7375  1.3764
  154SAPE  C22017162   0.205   4.277   8.893 -0.6995  0.0267 -0.7110
  154SAPE  H20R17163   0.207   4.322   8.995  4.1431  1.0559 -1.0027
  154SAPE  H20S17164   0.103   4.238   8.874 -0.1122 -0.6743 -2.6617
  154SAPE  H20T17165   0.220   4.363   8.824  0.0179 -0.1589 -0.7964
  154SAPE   C3317166   1.051   3.776   9.767 -0.4194 -0.1901 -0.7458
  154SAPE   H3X17167   1.023   3.868   9.824 -0.0526  0.2520 -1.2703
  154SAPE   H3Y17168   0.979   3.695   9.791  0.4279 -0.5741  0.5857
  154SAPE   C3417169   1.060   3.799   9.618 -0.7233 -0.2245  0.5917
  154SAPE   H4X17170   1.136   3.876   9.593  0.9880 -2.2755 -0.8752
  154SAPE   H4Y17171   0.961   3.838   9.586 -0.6528 -0.6436 -0.1612
  154SAPE   C3517172   1.095   3.662   9.554  0.3887  0.4002  0.3379
  154SAPE   H5X17173   1.002   3.605   9.574 -0.2632  1.1995 -0.3197
  154SAPE   H5Y17174   1.177   3.614   9.613  0.6518 -0.7379 -0.9192
  154SAPE   C3617175   1.129   3.669   9.411 -0.3349 -0.2163  0.4954
  154SAPE   H6X17176   1.196   3.754   9.389  0.6218 -0.9520  0.5140
  154SAPE   H6Y17177   1.032   3.673   9.357  0.9556 -1.5799 -2.1124
  154SAPE   C3717178   1.189   3.535   9.358 -0.7168  1.3339  1.1099
  154SAPE   H7X17179   1.134   3.446   9.394 -0.6694 -0.3887 -2.6257
  154SAPE   H7Y17180   1.295   3.541   9.389  0.6575 -0.6734 -2.5888
  154SAPE   C3817181   1.188   3.532   9.203 -0.8190 -0.1361 -0.2714
  154SAPE   H8X17182   1.247   3.620   9.168 -1.1606  0.0898 -0.2809
  154SAPE   H8Y17183   1.084   3.537   9.164 -0.3236  3.3413 -1.5376
  154SAPE   C3917184   1.274   3.415   9.144  0.4339  0.4628  0.9543
  154SAPE   H9X17185   1.249   3.319   9.193  0.2158  0.3472  0.6240
  154SAPE   H9Y17186   1.381   3.433   9.168  0.8663 -0.5042 -0.1869
  154SAPE  C31017187   1.265   3.393   8.999 -0.6354  0.1222 -0.6025
  154SAPE  H10X17188   1.281   3.499   8.968  1.3474 -0.0580 -0.2892
  154SAPE  H10Y17189   1.162   3.374   8.960 -0.1918 -2.1312 -0.7762
  154SAPE  C31117190   1.368   3.293   8.952 -0.3158 -0.3535 -0.3126
  154SAPE  H11X17191   1.345   3.186   8.971  0.0812 -0.3222  0.3716
  154SAPE  H11Y17192   1.467   3.308   9.000 -0.6745 -0.2366  0.4091
  154SAPE  C31217193   1.396   3.307   8.800  0.2238  0.0168  0.0733
  154SAPE  H12X17194   1.425   3.406   8.756 -2.8552  0.1745 -1.9247
  154SAPE  H12Y17195   1.300   3.280   8.750  0.3174 -0.2920  0.0615
  154SAPE  C31317196   1.506   3.201   8.765 -0.0213 -0.2183  0.3409
  154SAPE  H13X17197   1.459   3.101   8.776 -1.3184  0.3303 -0.0512
  154SAPE  H13Y17198   1.586   3.224   8.839 -2.1992 -0.2791  2.8831
  154SAPE  C31417199   1.556   3.228   8.623  0.1551  0.5117  0.7209
  154SAPE  H14X17200   1.636   3.150   8.616  0.4102  0.8507 -0.4935
  154SAPE  H14Y17201   1.622   3.318   8.619  2.0676 -0.8517 -0.2337
  154SAPE  C31517202   1.450   3.215   8.510 -1.0578  0.0754 -0.5835
  154SAPE  H15X17203   1.399   3.314   8.506 -0.4683  0.4026 -0.1092
  154SAPE  H15Y17204   1.381   3.131   8.532 -0.7386 -0.0060  0.1407
  154SAPE  C31617205   1.499   3.198   8.364  0.2815 -0.1020 -0.2502
  154SAPE  H16X17206   1.549   3.099   8.361  1.8895  0.6477  0.6186
  154SAPE  H16Y17207   1.566   3.283   8.338  1.3097 -0.1204  2.0341
  154SAPE  C31717208   1.385   3.188   8.261  0.2842 -0.2105 -0.9733
  154SAPE  H17X17209   1.322   3.278   8.252  0.7087  0.1503 -0.3685
  154SAPE  H17Y17210   1.325   3.104   8.302  2.7853 -2.8260 -2.2567
  154SAPE  C31817211   1.449   3.143   8.129 -0.4796 -0.4255  0.3983
  154SAPE  H18X17212   1.474   3.035   8.129 -0.6918 -0.4986 -1.2373
  154SAPE  H18Y17213   1.536   3.208   8.106 -0.6281  0.1293  1.3555
  154SAPE  H18Z17214   1.378   3.164   8.046 -0.0945  0.6932  0.3305
  155SAPE     N17215   2.572   4.783  10.974  0.9335  0.5667  0.0342
  155SAPE   HN117216   2.602   4.715  10.902  0.8971 -2.2303  2.4707
  155SAPE   HN217217   2.647   4.791  11.046  0.3146 -3.2891  1.3227
  155SAPE   HN317218   2.503   4.722  11.023  0.0270  0.7287 -1.0106
  155SAPE   C1217219   2.501   4.908  10.945  0.6210  0.0144  0.7232
  155SAPE  H12A17220   2.483   4.961  11.041  0.6781 -0.7430  1.1602
  155SAPE  H12B17221   2.400   4.876  10.913  0.2958  1.6467 -0.0135
  155SAPE   C1117222   2.570   4.999  10.840  0.4914 -0.5126 -0.3466
  155SAPE  H11A17223   2.503   5.081  10.809  0.9196 -1.0095 -2.7590
  155SAPE  H11B17224   2.586   4.929  10.755  1.2018  0.2985 -0.8875
  155SAPE     P17225   2.757   5.164  10.816  0.6033  0.3470 -0.2975
  155SAPE   O1317226   2.667   5.277  10.841 -0.1060  0.6334 -0.0610
  155SAPE   O1417227   2.894   5.188  10.868  0.0454  0.1206 -0.5342
  155SAPE   O1217228   2.698   5.039  10.894  0.4280  0.3255 -0.5522
  155SAPE   O1117229   2.766   5.127  10.661 -0.0760 -0.2662 -0.1190
  155SAPE    C117230   2.890   5.149  10.593  0.3434 -0.0572 -0.0405
  155SAPE    HA17231   2.967   5.093  10.651 -0.1010 -1.2853 -0.5955
  155SAPE    HB17232   2.877   5.103  10.492  1.7614 -1.3295  0.3193
  155SAPE    C217233   2.926   5.295  10.589 -0.3088 -0.6237  0.0943
  155SAPE    HS17234   2.902   5.350  10.682 -1.8402  1.5328 -1.4574
  155SAPE   O2117235   2.858   5.356  10.487 -0.6052  0.4014 -0.7590
  155SAPE   C2117236   2.841   5.488  10.498  0.6151 -0.3893 -0.3657
  155SAPE   O2217237   2.877   5.563  10.589  0.4650 -0.0471  0.5587
  155SAPE   C2217238   2.776   5.541  10.369 -0.0813 -0.2952 -0.3944
  155SAPE   H2R17239   2.854   5.601  10.317  1.0072 -0.3637  1.0916
  155SAPE   H2S17240   2.741   5.457  10.305  1.8949  0.8203 -3.1223
  155SAPE    C317241   3.082   5.309  10.564  0.1700  0.3158  0.0126
  155SAPE    HX17242   3.137   5.269  10.652 -1.6597  3.0514  2.5616
  155SAPE    HY17243   3.114   5.413  10.545 -1.1211  0.6476 -0.4519
  155SAPE   O3117244   3.110   5.221  10.451  0.5766 -0.4397 -0.3385
  155SAPE   C3117245   3.115   5.281  10.329 -0.3878  0.3317 -0.7887
  155SAPE   O3217246   3.097   5.402  10.312  0.4163  0.2320  0.1315
  155SAPE   C3217247   3.152   5.173  10.230  0.1039 -0.4318 -0.2715
  155SAPE   H2X17248   3.073   5.099  10.256 -1.3954  1.4413  0.7122
  155SAPE   H2Y17249   3.252   5.135  10.262  0.1808  2.1552  3.1577
  155SAPE   C2317250   2.653   5.635  10.389  0.2733 -0.0628  0.5567
  155SAPE   H3R17251   2.673   5.724  10.452 -0.6511  2.8062 -2.8503
  155SAPE   H3S17252   2.569   5.573  10.423 -1.4959  2.2245  0.6007
  155SAPE   C2417253   2.589   5.685  10.256  0.3411  0.1333  0.0708
  155SAPE   H4R17254   2.503   5.753  10.277  0.9221  1.6131 -2.0433
  155SAPE   H4S17255   2.551   5.592  10.210  0.1994 -0.1355  0.7243
  155SAPE   C2517256   2.695   5.749  10.167 -0.1318 -0.3348 -0.5853
  155SAPE   H5R17257   2.713   5.855  10.191  2.3932 -0.3241 -2.1750
  155SAPE   C2617258   2.761   5.696  10.069  0.2055  0.3841 -0.4913
  155SAPE   H6R17259   2.835   5.752  10.010 -0.8990  1.7563 -0.6388
  155SAPE   C2717260   2.740   5.548  10.034 -0.5220  0.0737 -1.0203
  155SAPE   H7R17261   2.677   5.532   9.944 -0.4764 -2.8653 -0.6173
  155SAPE   H7S17262   2.703   5.487  10.119  1.4642  1.3538  0.8886
  155SAPE   C2817263   2.873   5.491  10.008  0.4233 -0.2799  0.5177
  155SAPE   H8R17264   2.934   5.499  10.099  1.3228  3.6300 -0.2559
  155SAPE   C2917265   2.918   5.426   9.896  0.3755  0.0967  0.1713
  155SAPE   H9R17266   3.023   5.392   9.901  0.4869  0.3440 -0.4048
  155SAPE  C21017267   2.841   5.410   9.768 -0.4669 -0.0589  0.2740
  155SAPE  H10R17268   2.731   5.399   9.780 -0.5979  1.1495  0.3727
  155SAPE  H10S17269   2.878   5.323   9.710 -0.5173  0.1446 -0.0741
  155SAPE  C21117270   2.864   5.530   9.676 -0.2080  0.3610 -0.0465
  155SAPE  H11R17271   2.877   5.626   9.729  1.0410  0.2556 -0.1303
  155SAPE  C21217272   2.877   5.544   9.545 -0.6740  0.5279  0.5916
  155SAPE  H12R17273   2.892   5.646   9.507 -0.2435  0.4486  0.5533
  155SAPE  C21317274   2.861   5.439   9.441 -0.0869 -0.0995  0.0059
  155SAPE  H13R17275   2.854   5.336   9.482 -0.0892  0.0584  0.4047
  155SAPE  H13S17276   2.952   5.427   9.379  0.6238  1.3325  0.7125
  155SAPE  C21417277   2.747   5.453   9.341  0.2988  0.5988  0.3789
  155SAPE  H14R17278   2.651   5.426   9.387 -0.8479 -0.3852 -2.3722
  155SAPE  C21517279   2.761   5.493   9.210  0.4667  0.4220  0.5153
  155SAPE  H15R17280   2.667   5.496   9.153 -0.6470  0.0675  2.2360
  155SAPE  C21617281   2.894   5.506   9.133  0.6298  0.5590 -0.6808
  155SAPE  H16R17282   2.941   5.407   9.118  2.8458  1.2526  1.0885
  155SAPE  H16S17283   2.964   5.565   9.196  1.4153 -1.6609  0.6174
  155SAPE  C21717284   2.881   5.584   8.999 -0.8134  0.6343 -0.5017
  155SAPE  H17R17285   2.981   5.613   8.961 -0.0614 -0.0661  0.8762
  155SAPE  H17S17286   2.836   5.683   9.019  0.6306  1.0166  0.9822
  155SAPE  C21817287   2.798   5.510   8.896 -0.6814 -0.1374  0.7853
  155SAPE  H18R17288   2.690   5.498   8.922 -1.2582  1.3270 -0.7211
  155SAPE  H18S17289   2.845   5.412   8.873  2.0552  0.7907  2.0304
  155SAPE  C21917290   2.790   5.584   8.763 -0.3432  0.4038  0.0380
  155SAPE  H19R17291   2.746   5.687   8.771  1.1003  1.1740 -1.4540
  155SAPE  H19S17292   2.731   5.516   8.699 -0.8584  0.5156  0.3808
  155SAPE  C22017293   2.927   5.597   8.703  0.5659  1.4030 -0.2890
  155SAPE  H20R17294   2.907   5.617   8.596 -2.4165  1.1699  0.1267
  155SAPE  H20S17295   2.987   5.504   8.712  0.1629  1.2078  0.4721
  155SAPE  H20T17296   2.985   5.676   8.755  0.2095  1.2945  0.2918
  155SAPE   C3317297   3.156   5.214  10.081 -0.0116 -0.5780  0.1371
  155SAPE   H3X17298   3.072   5.283  10.056  1.0075  0.0702 -1.6922
  155SAPE   H3Y17299   3.128   5.124  10.022 -2.1257 -0.3494  0.7104
  155SAPE   C3417300   3.277   5.298  10.037 -0.5816 -0.7514 -0.4324
  155SAPE   H4X17301   3.369   5.245  10.068  0.7052  1.2711 -0.5936
  155SAPE   H4Y17302   3.276   5.388  10.102 -0.0398 -0.8442 -0.2915
  155SAPE   C3517303   3.287   5.320   9.887  0.2354 -0.0790  0.0094
  155SAPE   H5X17304   3.369   5.395   9.888 -0.0748  0.2523  0.7819
  155SAPE   H5Y17305   3.200   5.371   9.840 -0.0981 -2.3954 -2.0774
  155SAPE   C3617306   3.345   5.203   9.804 -0.0782  0.4537 -0.3816
  155SAPE   H6X17307   3.417   5.154   9.874 -0.7545  0.0170  0.0156
  155SAPE   H6Y17308   3.393   5.251   9.717 -2.9475  2.3425 -1.0181
  155SAPE   C3717309   3.250   5.099   9.753  0.8371 -0.1064 -0.4594
  155SAPE   H7X17310   3.151   5.147   9.739  0.2300 -0.8534  1.0761
  155SAPE   H7Y17311   3.237   5.019   9.829 -2.5167 -0.9629 -1.7799
  155SAPE   C3817312   3.280   5.033   9.623 -0.8003  0.1511 -0.6475
  155SAPE   H8X17313   3.229   4.934   9.629 -1.1745  0.4287  2.8573
  155SAPE   H8Y17314   3.386   5.002   9.623 -1.0677 -0.8556 -1.9484
  155SAPE   C3917315   3.224   5.109   9.502  0.6088  0.7774 -0.1468
  155SAPE   H9X17316   3.278   5.204   9.486  1.2697  0.1192 -2.0014
  155SAPE   H9Y17317   3.122   5.139   9.537  0.5156  0.1081  0.1780
  155SAPE  C31017318   3.215   5.016   9.375  0.6882 -0.4530 -0.0213
  155SAPE  H10X17319   3.160   5.072   9.297 -2.1545 -1.4700  1.1264
  155SAPE  H10Y17320   3.144   4.936   9.401 -1.1777  0.9710 -0.5310
  155SAPE  C31117321   3.354   4.976   9.326  0.4324 -0.0652 -0.2717
  155SAPE  H11X17322   3.395   4.895   9.390  1.4213  1.4726  1.1074
  155SAPE  H11Y17323   3.416   5.064   9.353  0.7460 -0.7946  1.5067
  155SAPE  C31217324   3.358   4.955   9.172  0.4494  0.5862 -0.8882
  155SAPE  H12X17325   3.269   4.895   9.142 -0.2726  1.6794 -1.0067
  155SAPE  H12Y17326   3.449   4.901   9.138  0.0310 -0.3281 -0.5833
  155SAPE  C31317327   3.340   5.089   9.088 -0.0647  0.5281  0.0580
  155SAPE  H13X17328   3.422   5.161   9.110 -0.9341  1.0636  1.7609
  155SAPE  H13Y17329   3.243   5.131   9.123 -0.3856 -0.1189 -0.0252
  155SAPE  C31417330   3.333   5.077   8.934  0.2276 -0.5752 -0.4305
  155SAPE  H14X17331   3.234   5.036   8.904 -0.2152  0.6784 -0.7410
  155SAPE  H14Y17332   3.401   4.995   8.901  0.5683 -2.3365  3.9357
  155SAPE  C31517333   3.353   5.220   8.870 -0.5184  0.8085 -0.1354
  155SAPE  H15X17334   3.436   5.274   8.921  0.1847  0.1080 -0.5092
  155SAPE  H15Y17335   3.262   5.282   8.878 -0.6864  0.3595  2.1470
  155SAPE  C31617336   3.394   5.216   8.719 -0.0261  0.0197 -0.2140
  155SAPE  H16X17337   3.315   5.161   8.664  0.7469  0.1305 -1.4738
  155SAPE  H16Y17338   3.495   5.170   8.707  0.5197  1.0799  0.1684
  155SAPE  C31717339   3.410   5.355   8.660  0.2765 -0.0002  0.0098
  155SAPE  H17X17340   3.322   5.421   8.680  1.3339  2.0842 -1.8095
  155SAPE  H17Y17341   3.411   5.351   8.549  1.2541 -0.0765  0.0124
  155SAPE  C31817342   3.546   5.423   8.700  0.2882  0.0752 -0.1686
  155SAPE  H18X17343   3.550   5.465   8.803 -1.2339  1.8481 -0.7614
  155SAPE  H18Y17344   3.569   5.510   8.635 -0.5709  0.7171  0.3525
  155SAPE  H18Z17345   3.623   5.343   8.697 -1.0414 -1.3284  1.0576
  156SAPE     N17346   5.521   3.416  10.666  0.0081 -0.5799 -0.1304
  156SAPE   HN117347   5.488   3.480  10.742 -0.8452 -2.9191  1.6015
  156SAPE   HN217348   5.427   3.390  10.629 -1.0505  1.7054  0.7248
  156SAPE   HN317349   5.568   3.335  10.711 -0.7701 -1.4785 -0.8994
  156SAPE   C1217350   5.598   3.485  10.557  0.1072 -0.0593 -0.6199
  156SAPE  H12A17351   5.608   3.590  10.592  2.3334  0.1000 -1.5787
  156SAPE  H12B17352   5.542   3.486  10.461 -0.3005 -0.2030 -0.3870
  156SAPE   C1117353   5.728   3.408  10.547 -0.2000  0.2502 -0.3446
  156SAPE  H11A17354   5.724   3.300  10.520  1.5163  0.3211 -0.9929
  156SAPE  H11B17355   5.782   3.414  10.643  0.0640 -1.9321 -0.3090
  156SAPE     P17356   5.777   3.451  10.289  0.3274 -0.1197 -0.5395
  156SAPE   O1317357   5.724   3.583  10.247  0.1861 -0.3009  0.0917
  156SAPE   O1417358   5.901   3.414  10.220 -0.6256  0.4662  0.2342
  156SAPE   O1217359   5.814   3.461  10.445  0.1735  0.8171  0.2970
  156SAPE   O1117360   5.663   3.341  10.274 -0.2914 -0.8860 -0.0495
  156SAPE    C117361   5.697   3.204  10.240 -0.4720  0.4600  0.5813
  156SAPE    HA17362   5.790   3.172  10.291 -0.7508 -0.4817  0.5136
  156SAPE    HB17363   5.625   3.132  10.284 -0.2047 -0.1041  0.1071
  156SAPE    C217364   5.722   3.188  10.088  0.4613 -0.2983 -0.5514
  156SAPE    HS17365   5.820   3.237  10.069  0.0157  1.5642  1.5399
  156SAPE   O2117366   5.625   3.264  10.018  0.2066  0.4830  0.1122
  156SAPE   C2117367   5.629   3.290   9.888  0.0067  0.2020 -0.2593
  156SAPE   O2217368   5.716   3.259   9.808 -0.4865 -0.1068  0.2060
  156SAPE   C2217369   5.499   3.363   9.856  0.2997 -0.1285  0.0893
  156SAPE   H2R17370   5.423   3.314   9.921 -1.2612  1.8034 -0.1909
  156SAPE   H2S17371   5.502   3.472   9.874 -1.1263 -0.0528 -0.0416
  156SAPE    C317372   5.718   3.035  10.041 -0.7497  0.2890  0.0203
  156SAPE    HX17373   5.797   2.989  10.104  1.2045  0.5628 -2.1091
  156SAPE    HY17374   5.751   3.018   9.936  1.4926  1.1490  0.5327
  156SAPE   O3117375   5.594   2.970  10.067  0.8463 -0.9713 -0.7215
  156SAPE   C3117376   5.594   2.844  10.079  0.3483  0.6918  0.1320
  156SAPE   O3217377   5.689   2.769  10.044  0.2448  0.0304 -0.5362
  156SAPE   C3217378   5.459   2.782  10.130 -0.2865  0.1522 -0.2698
  156SAPE   H2X17379   5.374   2.847  10.100 -0.6498 -0.8264 -1.4620
  156SAPE   H2Y17380   5.456   2.781  10.241 -3.1732 -1.8430 -0.2380
  156SAPE   C2317381   5.446   3.341   9.713 -0.4635 -0.7143 -0.7198
  156SAPE   H3R17382   5.441   3.232   9.690  0.8448 -1.2712  1.2946
  156SAPE   H3S17383   5.508   3.398   9.641 -1.0856 -0.4123 -1.0221
  156SAPE   C2417384   5.306   3.405   9.703 -0.3135  0.6650 -0.0196
  156SAPE   H4R17385   5.238   3.365   9.781  1.3518 -0.4987  0.8974
  156SAPE   H4S17386   5.265   3.359   9.609  2.2838  0.0132 -0.9111
  156SAPE   C2517387   5.311   3.556   9.687 -0.6568  0.7613 -0.0017
  156SAPE   H5R17388   5.298   3.606   9.784  2.5576  1.2226  0.2939
  156SAPE   C2617389   5.356   3.617   9.574 -0.2937 -0.2968 -0.4597
  156SAPE   H6R17390   5.354   3.727   9.578 -0.5700 -0.2084 -2.1128
  156SAPE   C2717391   5.409   3.547   9.444 -0.1362 -0.7473  0.1041
  156SAPE   H7R17392   5.361   3.447   9.428 -0.9178 -0.1132 -1.8298
  156SAPE   H7S17393   5.518   3.533   9.454  0.0429  0.8093  0.4637
  156SAPE   C2817394   5.390   3.619   9.316 -0.2682  0.0081  0.3944
  156SAPE   H8R17395   5.338   3.556   9.242  0.1942  0.1882 -0.0891
  156SAPE   C2917396   5.445   3.730   9.273 -0.2108 -0.5542  0.5938
  156SAPE   H9R17397   5.432   3.761   9.168 -1.4339 -0.6291  0.7152
  156SAPE  C21017398   5.548   3.803   9.347  0.1254  0.6689 -0.3372
  156SAPE  H10R17399   5.645   3.750   9.354 -0.8729 -1.2002 -0.2030
  156SAPE  H10S17400   5.517   3.811   9.454 -0.7416  0.7884 -0.5863
  156SAPE  C21117401   5.566   3.941   9.291 -0.1992  0.4815 -0.0126
  156SAPE  H11R17402   5.492   3.968   9.214 -0.0715 -0.7244 -0.5692
  156SAPE  C21217403   5.660   4.026   9.342  0.5683  0.3897 -0.1040
  156SAPE  H12R17404   5.678   4.118   9.285 -1.4390  0.5086 -0.6206
  156SAPE  C21317405   5.758   3.990   9.453  0.1456  0.4857  0.0802
  156SAPE  H13R17406   5.833   3.937   9.390 -0.3026 -1.0657  0.8194
  156SAPE  H13S17407   5.717   3.912   9.520  0.7471 -0.2574 -0.4085
  156SAPE  C21417408   5.813   4.105   9.529  0.4572  0.5517  0.4189
  156SAPE  H14R17409   5.743   4.150   9.601 -2.2784 -0.1044 -1.6368
  156SAPE  C21517410   5.930   4.169   9.505  0.2279 -0.5132  0.5446
  156SAPE  H15R17411   5.955   4.250   9.575 -0.8440  0.5329 -0.2453
  156SAPE  C21617412   6.026   4.123   9.396 -0.0248 -0.4529  0.1231
  156SAPE  H16R17413   6.039   4.013   9.396  1.5614 -0.2879  0.2629
  156SAPE  H16S17414   6.124   4.166   9.427 -0.5202  0.7447  0.1009
  156SAPE  C21717415   5.993   4.183   9.261  0.2643  0.2609  0.6581
  156SAPE  H17R17416   5.962   4.289   9.273 -0.7015  0.7825 -4.3995
  156SAPE  H17S17417   5.917   4.120   9.210  1.7383 -1.0881  0.0306
  156SAPE  C21817418   6.111   4.200   9.163 -0.5816 -0.1330  0.6095
  156SAPE  H18R17419   6.141   4.103   9.118  0.7817  0.5842 -0.0773
  156SAPE  H18S17420   6.189   4.258   9.216  1.7721 -1.6997 -0.9499
  156SAPE  C21917421   6.064   4.269   9.026  0.3090 -1.2420  0.5634
  156SAPE  H19R17422   6.054   4.380   9.033  1.0613 -1.1252 -0.0469
  156SAPE  H19S17423   5.965   4.228   8.998  0.8497 -3.3478  1.5511
  156SAPE  C22017424   6.162   4.234   8.906 -0.0251 -0.1583  0.3006
  156SAPE  H20R17425   6.157   4.129   8.871  0.8393  0.4667 -1.9069
  156SAPE  H20S17426   6.267   4.267   8.925 -0.0542 -1.7315  4.0501
  156SAPE  H20T17427   6.123   4.284   8.815 -5.5231 -3.9246  0.1151
  156SAPE   C3317428   5.441   2.640  10.069  0.7399  0.0906 -0.0195
  156SAPE   H3X17429   5.353   2.605  10.126 -0.9346  1.6578 -1.5166
  156SAPE   H3Y17430   5.521   2.567  10.093 -0.4305 -1.1806  0.1125
  156SAPE   C3417431   5.402   2.643   9.922 -0.1908 -0.5837 -0.7614
  156SAPE   H4X17432   5.492   2.654   9.858 -0.8186 -1.0340 -1.7437
  156SAPE   H4Y17433   5.342   2.733   9.901 -0.0261  0.1187  1.4515
  156SAPE   C3517434   5.319   2.522   9.868  0.1154  0.3925 -0.2761
  156SAPE   H5X17435   5.216   2.524   9.908 -0.2948 -1.2773 -1.1571
  156SAPE   H5Y17436   5.363   2.432   9.916 -0.1402  1.3907  1.9609
  156SAPE   C3617437   5.298   2.507   9.720 -0.3458  0.6326  0.5678
  156SAPE   H6X17438   5.377   2.455   9.662 -1.5413 -0.1887 -0.3807
  156SAPE   H6Y17439   5.283   2.603   9.667  0.2139  1.3190  1.6285
  156SAPE   C3717440   5.171   2.420   9.699 -1.0102  0.5459  0.1489
  156SAPE   H7X17441   5.090   2.468   9.759  0.3971 -0.1871  2.7749
  156SAPE   H7Y17442   5.200   2.316   9.723  1.4713  1.1101 -0.1611
  156SAPE   C3817443   5.118   2.422   9.550  1.0507 -0.2600 -0.6793
  156SAPE   H8X17444   5.100   2.527   9.520 -1.0957 -0.5247 -0.4543
  156SAPE   H8Y17445   5.021   2.369   9.550  0.9579 -0.1105 -1.9857
  156SAPE   C3917446   5.212   2.378   9.449 -0.4268  1.1082 -0.0376
  156SAPE   H9X17447   5.238   2.274   9.480  1.3715  1.8738  1.1335
  156SAPE   H9Y17448   5.306   2.436   9.444  0.4428 -0.3285 -1.6135
  156SAPE  C31017449   5.150   2.378   9.311  0.0473  0.0180 -0.4910
  156SAPE  H10X17450   5.060   2.313   9.312 -0.6366  0.9239 -1.6097
  156SAPE  H10Y17451   5.220   2.334   9.238  0.0783  1.4664 -1.3599
  156SAPE  C31117452   5.115   2.515   9.261  0.1079  0.0286 -0.3054
  156SAPE  H11X17453   5.207   2.576   9.280  1.3961 -2.5557  2.6331
  156SAPE  H11Y17454   5.032   2.562   9.317  2.0543  0.0659  2.8309
  156SAPE  C31217455   5.089   2.527   9.105 -0.8443 -0.0814  0.4916
  156SAPE  H12X17456   5.129   2.443   9.046  0.7713  0.8289  0.2319
  156SAPE  H12Y17457   5.148   2.615   9.071 -0.5308 -1.3110 -2.4249
  156SAPE  C31317458   4.941   2.537   9.070 -0.2071 -0.2972  0.4206
  156SAPE  H13X17459   4.912   2.639   9.104 -0.0747 -0.2906  0.5137
  156SAPE  H13Y17460   4.881   2.462   9.126 -0.1631 -0.1013  0.7339
  156SAPE  C31417461   4.915   2.525   8.913 -0.6939 -0.0971 -0.2866
  156SAPE  H14X17462   4.931   2.417   8.889  3.0461  0.5495 -1.3305
  156SAPE  H14Y17463   4.996   2.577   8.858 -0.1307 -0.6659 -0.0077
  156SAPE  C31517464   4.778   2.575   8.884  0.3981 -0.3461 -0.0517
  156SAPE  H15X17465   4.781   2.686   8.887 -0.4674 -0.3129 -0.3100
  156SAPE  H15Y17466   4.705   2.534   8.956  0.5976 -0.0889  0.2967
  156SAPE  C31617467   4.730   2.555   8.740 -0.6375  0.2130 -0.4570
  156SAPE  H16X17468   4.628   2.599   8.740  0.4050  2.8325  0.6987
  156SAPE  H16Y17469   4.721   2.450   8.708  0.0673  0.5471 -1.8085
  156SAPE  C31717470   4.815   2.627   8.644  0.6024  0.2290 -0.1907
  156SAPE  H17X17471   4.912   2.576   8.622  0.4483  1.2611 -3.9301
  156SAPE  H17Y17472   4.838   2.727   8.688  0.6314  0.4318 -0.6550
  156SAPE  C31817473   4.749   2.659   8.508 -0.3460  0.5528 -0.2765
  156SAPE  H18X17474   4.747   2.577   8.433  0.9322  1.8019 -1.7118
  156SAPE  H18Y17475   4.794   2.746   8.457 -0.1108  0.9863  0.6376
  156SAPE  H18Z17476   4.640   2.673   8.522 -0.4263  0.5320 -0.8763
  157SAPE     N17477   5.074   4.065  10.759  0.1742  0.6040 -0.6050
  157SAPE   HN117478   5.082   3.969  10.719 -2.0728 -0.4588  1.2677
  157SAPE   HN217479   4.978   4.103  10.762 -0.5345 -1.1432  0.0309
  157SAPE   HN317480   5.134   4.122  10.696  0.3577  1.3375  0.2027
  157SAPE   C1217481   5.133   4.061  10.894  0.1754  0.5002 -0.3071
  157SAPE  H12A17482   5.244   4.065  10.886  0.2882 -1.6012 -0.1602
  157SAPE  H12B17483   5.101   3.966  10.941  0.5267  0.6521  0.2475
  157SAPE   C1117484   5.077   4.176  10.978 -0.5179  0.2332  0.1369
  157SAPE  H11A17485   5.116   4.274  10.943 -1.0650  0.5042  0.2744
  157SAPE  H11B17486   5.114   4.167  11.083  0.2317 -1.1510 -0.2256
  157SAPE     P17487   4.832   4.270  10.911 -0.1571 -0.3970 -0.1047
  157SAPE   O1317488   4.698   4.206  10.896 -0.4735  0.1866 -0.5693
  157SAPE   O1417489   4.826   4.403  10.983  0.2692 -0.1105  0.0051
  157SAPE   O1217490   4.934   4.176  10.989  0.3655  0.2359  0.2444
  157SAPE   O1117491   4.884   4.290  10.767 -0.0757  0.2868 -0.2429
  157SAPE    C117492   4.841   4.411  10.699  0.2988  0.0300  0.0809
  157SAPE    HA17493   4.736   4.431  10.731  1.0442  0.1764  2.6974
  157SAPE    HB17494   4.899   4.501  10.727 -0.9927  1.2577 -1.0408
  157SAPE    C217495   4.858   4.410  10.543 -0.4995  0.4901 -0.3552
  157SAPE    HS17496   4.850   4.513  10.502  2.8226  0.7419 -0.6068
  157SAPE   O2117497   4.763   4.310  10.485 -0.1819  0.7347  0.4546
  157SAPE   C2117498   4.639   4.352  10.473 -0.5334  0.0760  0.2043
  157SAPE   O2217499   4.593   4.452  10.522 -0.5359  0.3368  0.2303
  157SAPE   C2217500   4.555   4.231  10.429 -0.7138  0.0986  0.3819
  157SAPE   H2R17501   4.622   4.145  10.410 -1.1370 -1.1648  3.8680
  157SAPE   H2S17502   4.494   4.199  10.515 -0.6022  0.6296  0.6642
  157SAPE    C317503   5.013   4.377  10.512 -0.4389  0.5611 -0.4877
  157SAPE    HX17504   5.032   4.286  10.572  0.9776  0.6320 -0.7854
  157SAPE    HY17505   5.077   4.454  10.561 -1.3193  1.9930 -1.4956
  157SAPE   O3117506   5.031   4.377  10.371 -0.0335  0.4833 -0.1024
  157SAPE   C3117507   5.028   4.255  10.323  0.9934  0.2055 -0.1489
  157SAPE   O3217508   5.020   4.150  10.385  0.3588 -0.5245  0.0912
  157SAPE   C3217509   5.037   4.269  10.174  0.0471  0.3598 -0.0759
  157SAPE   H2X17510   5.126   4.332  10.151  1.6134 -0.5521  2.8989
  157SAPE   H2Y17511   4.946   4.327  10.148 -1.2999 -1.5622  0.1136
  157SAPE   C2317512   4.471   4.275  10.311  0.0786  0.5482  0.5816
  157SAPE   H3R17513   4.395   4.351  10.337 -0.7428  1.2492 -3.2944
  157SAPE   H3S17514   4.403   4.190  10.286  0.6906  0.8612 -2.5549
  157SAPE   C2417515   4.544   4.338  10.190  0.0410 -0.7420  0.1890
  157SAPE   H4R17516   4.590   4.432  10.227 -2.6163  0.3786  0.9166
  157SAPE   H4S17517   4.467   4.365  10.114  1.6366 -0.0998 -1.2635
  157SAPE   C2517518   4.653   4.252  10.129 -0.0940 -0.1157 -0.1973
  157SAPE   H5R17519   4.714   4.202  10.206  0.3490  1.6209  0.6421
  157SAPE   C2617520   4.671   4.222  10.003 -0.3566 -0.2026 -0.0540
  157SAPE   H6R17521   4.747   4.145   9.984  0.1523  0.1026  0.7146
  157SAPE   C2717522   4.590   4.270   9.886 -0.5166  0.4353 -0.1609
  157SAPE   H7R17523   4.491   4.220   9.898 -0.5218  0.8952  2.5048
  157SAPE   H7S17524   4.642   4.221   9.801  0.6085  0.5745  0.4289
  157SAPE   C2817525   4.570   4.415   9.863  0.3982  0.9930 -0.1004
  157SAPE   H8R17526   4.636   4.479   9.922 -0.1458  3.4138 -1.9897
  157SAPE   C2917527   4.512   4.463   9.752  0.7679  0.5274  0.1295
  157SAPE   H9R17528   4.496   4.572   9.752 -0.2506  0.5459 -3.9380
  157SAPE  C21017529   4.456   4.380   9.633  0.0959 -0.1274 -0.4993
  157SAPE  H10R17530   4.370   4.344   9.694 -1.0025  1.4936 -1.0357
  157SAPE  H10S17531   4.524   4.295   9.613 -0.8272 -1.1761  0.6573
  157SAPE  C21117532   4.395   4.441   9.507 -0.3788  0.8749 -0.3741
  157SAPE  H11R17533   4.288   4.462   9.518 -0.6767 -0.7135 -0.0841
  157SAPE  C21217534   4.454   4.450   9.388 -0.1855  0.0497  0.2918
  157SAPE  H12R17535   4.384   4.471   9.305  0.3535 -1.8333 -0.6943
  157SAPE  C21317536   4.590   4.412   9.346 -0.2053  0.1265 -0.0803
  157SAPE  H13R17537   4.658   4.384   9.429 -1.5107 -0.6910  0.7539
  157SAPE  H13S17538   4.640   4.501   9.304 -0.2322 -0.1218 -0.6480
  157SAPE  C21417539   4.601   4.297   9.255  1.0582  0.2689  0.0635
  157SAPE  H14R17540   4.652   4.204   9.286 -0.5127 -0.2013  1.4586
  157SAPE  C21517541   4.574   4.298   9.126 -0.6875 -0.0530 -0.3241
  157SAPE  H15R17542   4.583   4.199   9.079  0.8580 -0.5935  0.9866
  157SAPE  C21617543   4.521   4.408   9.042 -0.0518 -0.7132  0.8585
  157SAPE  H16R17544   4.559   4.506   9.080  0.5292 -0.5691 -0.0749
  157SAPE  H16S17545   4.410   4.409   9.035 -0.2652 -0.9078  3.3226
  157SAPE  C21717546   4.564   4.403   8.895  0.3100 -0.1924  0.1082
  157SAPE  H17R17547   4.496   4.461   8.829  1.9462 -0.9830 -2.4243
  157SAPE  H17S17548   4.545   4.298   8.866 -0.6305 -0.8088  2.6938
  157SAPE  C21817549   4.714   4.430   8.876  0.0923 -0.0245  0.1468
  157SAPE  H18R17550   4.783   4.371   8.941  1.0607  1.0091  0.0917
  157SAPE  H18S17551   4.743   4.531   8.913  2.3668 -0.8186  0.7155
  157SAPE  C21917552   4.755   4.411   8.728  0.2747 -0.6316 -0.5755
  157SAPE  H19R17553   4.853   4.458   8.706  0.2110 -0.0668  0.3291
  157SAPE  H19S17554   4.680   4.452   8.657  1.1098  1.2132 -0.4303
  157SAPE  C22017555   4.767   4.267   8.681 -0.3333  0.1271  0.0775
  157SAPE  H20R17556   4.665   4.224   8.693 -1.3046  2.5264  0.9334
  157SAPE  H20S17557   4.831   4.211   8.752  0.0110  2.0083  1.3016
  157SAPE  H20T17558   4.797   4.258   8.574 -0.8894 -2.3347  0.0682
  157SAPE   C3317559   5.024   4.141  10.101 -0.3141 -0.1195  0.8038
  157SAPE   H3X17560   4.922   4.103  10.122 -1.3887  2.1189 -0.0546
  157SAPE   H3Y17561   5.091   4.060  10.136  2.3831  2.4124  1.9905
  157SAPE   C3417562   5.036   4.160   9.954  0.3722 -0.1757  0.1998
  157SAPE   H4X17563   5.139   4.188   9.925  0.8368 -2.2848 -0.3223
  157SAPE   H4Y17564   4.965   4.241   9.924  1.6909  0.2299 -1.9908
  157SAPE   C3517565   5.014   4.033   9.869 -0.6812  0.2601 -0.4176
  157SAPE   H5X17566   4.908   3.999   9.877 -0.3990 -1.0426 -1.6952
  157SAPE   H5Y17567   5.087   3.957   9.904  0.6415  0.6998 -2.1054
  157SAPE   C3617568   5.043   4.056   9.724  0.2230 -0.1147 -0.6910
  157SAPE   H6X17569   5.149   4.089   9.722  0.0922  0.8436  2.4988
  157SAPE   H6Y17570   4.983   4.142   9.685  0.3989 -0.3358 -1.4620
  157SAPE   C3717571   5.036   3.929   9.637  0.2457 -0.7073  0.0467
  157SAPE   H7X17572   4.943   3.873   9.657 -0.6967 -0.6331 -3.4189
  157SAPE   H7Y17573   5.115   3.855   9.663 -1.3008 -2.2070  0.6341
  157SAPE   C3817574   5.061   3.954   9.491  0.9454  0.1719  0.4596
  157SAPE   H8X17575   4.968   4.004   9.458  0.0598 -1.6931 -0.0385
  157SAPE   H8Y17576   5.064   3.852   9.446 -0.6090  0.6464 -0.7903
  157SAPE   C3917577   5.193   4.033   9.462 -0.2653 -0.5762  0.9681
  157SAPE   H9X17578   5.275   3.965   9.494  0.6373  0.4860  0.9518
  157SAPE   H9Y17579   5.212   4.120   9.527  0.8611 -0.3596  0.3706
  157SAPE  C31017580   5.183   4.083   9.314 -0.4035  0.3955 -0.1436
  157SAPE  H10X17581   5.277   4.141   9.299  1.5166 -1.4062  3.5385
  157SAPE  H10Y17582   5.088   4.140   9.309 -0.2215  0.6223 -1.2697
  157SAPE  C31117583   5.172   3.980   9.211 -0.0323  0.4274 -0.3457
  157SAPE  H11X17584   5.106   3.898   9.244 -0.8766  1.0776 -0.4007
  157SAPE  H11Y17585   5.272   3.933   9.198  1.0617  1.8504  2.0927
  157SAPE  C31217586   5.124   4.031   9.072 -0.1050  0.1900 -0.5421
  157SAPE  H12X17587   5.196   4.106   9.031 -0.8418  2.0773  1.4071
  157SAPE  H12Y17588   5.027   4.082   9.091 -1.2522 -2.6153  1.9697
  157SAPE  C31317589   5.105   3.928   8.962  0.1222  0.2856  0.2442
  157SAPE  H13X17590   5.021   3.858   8.981  1.1830 -0.8267  1.0470
  157SAPE  H13Y17591   5.197   3.865   8.959 -0.4345 -0.5276  0.0381
  157SAPE  C31417592   5.088   3.984   8.825  0.4366 -0.0873 -0.6627
  157SAPE  H14X17593   5.174   4.050   8.800  0.4561  0.1752  0.0846
  157SAPE  H14Y17594   4.990   4.034   8.817  0.4449  0.1809  0.6995
  157SAPE  C31517595   5.070   3.868   8.725  0.0399 -1.4009 -0.1098
  157SAPE  H15X17596   5.001   3.790   8.762 -1.0729 -0.6083 -0.4635
  157SAPE  H15Y17597   5.171   3.821   8.717  0.3428 -1.0673  1.4794
  157SAPE  C31617598   5.015   3.925   8.588 -0.6053  0.2907  0.7692
  157SAPE  H16X17599   5.073   4.013   8.551 -2.6063  1.5838  0.5652
  157SAPE  H16Y17600   4.909   3.954   8.603 -1.0800 -1.2276  0.4520
  157SAPE  C31717601   5.015   3.825   8.471 -0.3131  0.0734  0.3088
  157SAPE  H17X17602   5.116   3.779   8.472  0.6001  1.9987  1.0124
  157SAPE  H17Y17603   4.997   3.880   8.376 -1.0032  1.5942  1.2891
  157SAPE  C31817604   4.899   3.730   8.491  0.0469  0.8343 -0.3025
  157SAPE  H18X17605   4.938   3.657   8.566  1.9095  1.2186 -0.8323
  157SAPE  H18Y17606   4.869   3.665   8.406 -1.7054 -0.3408  1.1346
  157SAPE  H18Z17607   4.807   3.782   8.524  0.0424  0.6359 -0.0010
  158SAPE     N17608   6.697   3.371  10.451 -0.1279  0.2224 -0.8599
  158SAPE   HN117609   6.670   3.355  10.351 -1.1247  1.1820 -0.7652
  158SAPE   HN217610   6.695   3.473  10.470  1.5261  0.0218  0.6541
  158SAPE   HN317611   6.797   3.343  10.462  0.4140  2.6015  1.0819
  158SAPE   C1217612   6.597   3.295  10.546  0.2549  0.1425  0.2640
  158SAPE  H12A17613   6.628   3.292  10.653  1.3714  0.8251 -0.0312
  158SAPE  H12B17614   6.597   3.188  10.515  2.2896  0.1429  0.1705
  158SAPE   C1117615   6.453   3.354  10.535 -0.0210  0.0703  0.1111
  158SAPE  H11A17616   6.466   3.463  10.553 -0.3620 -0.0348  1.0802
  158SAPE  H11B17617   6.393   3.319  10.622 -1.3686 -1.4081 -1.3427
  158SAPE     P17618   6.366   3.428  10.300 -0.2565  0.3958  0.1708
  158SAPE   O1317619   6.281   3.531  10.349  0.6157 -0.1398  0.0253
  158SAPE   O1417620   6.505   3.467  10.256  0.6585  0.6009  0.6024
  158SAPE   O1217621   6.393   3.321  10.408  0.3685  0.4784  0.1612
  158SAPE   O1117622   6.294   3.351  10.182  0.3424  0.1141 -0.6791
  158SAPE    C117623   6.357   3.249  10.101 -0.0146 -0.2390 -0.4352
  158SAPE    HA17624   6.468   3.262  10.101 -0.1825  1.5187  0.6817
  158SAPE    HB17625   6.323   3.156  10.153 -1.3121 -0.2462 -1.2562
  158SAPE    C217626   6.298   3.253   9.965  0.6126  0.1684  0.0441
  158SAPE    HS17627   6.332   3.171   9.898  0.2052  0.3400 -0.3824
  158SAPE   O2117628   6.323   3.372   9.896 -0.3261 -0.2150  0.5196
  158SAPE   C2117629   6.446   3.392   9.850  0.5427 -0.1505 -0.3998
  158SAPE   O2217630   6.538   3.314   9.859 -0.4009 -0.3590 -0.5036
  158SAPE   C2217631   6.457   3.527   9.778  0.7494 -0.7960  0.5682
  158SAPE   H2R17632   6.380   3.539   9.698  0.8159 -1.3894  0.4130
  158SAPE   H2S17633   6.427   3.601   9.855 -0.7150 -1.1959  0.4195
  158SAPE    C317634   6.145   3.225   9.974  0.1946 -0.2578  0.2326
  158SAPE    HX17635   6.098   3.315  10.021  2.7240  0.6960  1.1230
  158SAPE    HY17636   6.130   3.140  10.043  3.0971 -0.3973  0.8102
  158SAPE   O3117637   6.105   3.190   9.837 -0.4833 -0.0039  0.0999
  158SAPE   C3117638   6.031   3.279   9.778  0.0676  0.5138  0.2342
  158SAPE   O3217639   6.001   3.389   9.826 -0.4924  0.3328 -0.0976
  158SAPE   C3217640   5.994   3.226   9.637  0.3505 -0.0977  0.2122
  158SAPE   H2X17641   5.887   3.250   9.617  0.8348 -0.0829 -2.8978
  158SAPE   H2Y17642   6.001   3.116   9.647 -0.0346 -0.0958  0.5154
  158SAPE   C2317643   6.593   3.551   9.713 -0.7841  0.5319  0.3039
  158SAPE   H3R17644   6.680   3.528   9.777  1.1318  1.6202 -1.7463
  158SAPE   H3S17645   6.607   3.657   9.684  1.0646  0.2191 -0.0993
  158SAPE   C2417646   6.611   3.463   9.583 -0.5801 -0.1486  0.4417
  158SAPE   H4R17647   6.540   3.499   9.506  1.6113  1.4411 -0.9530
  158SAPE   H4S17648   6.577   3.360   9.605  0.4285 -0.5171  0.3052
  158SAPE   C2517649   6.751   3.455   9.533 -0.0906  0.4671 -0.2194
  158SAPE   H5R17650   6.823   3.435   9.614  1.0325 -0.5248 -1.4178
  158SAPE   C2617651   6.801   3.474   9.411  0.1911 -0.4920  0.1074
  158SAPE   H6R17652   6.910   3.463   9.396  0.5854  3.2050 -0.8325
  158SAPE   C2717653   6.714   3.507   9.290 -0.3946 -0.1988 -0.5176
  158SAPE   H7R17654   6.639   3.583   9.320 -0.2060 -0.7994  1.6184
  158SAPE   H7S17655   6.661   3.415   9.258 -1.9821  0.5467 -0.1454
  158SAPE   C2817656   6.788   3.559   9.172 -0.2541  0.0634  0.2358
  158SAPE   H8R17657   6.796   3.485   9.091  0.4595  0.1062  0.2610
  158SAPE   C2917658   6.836   3.687   9.152  0.0343  0.2865 -1.0061
  158SAPE   H9R17659   6.902   3.712   9.067  2.3073  0.0101  0.5637
  158SAPE  C21017660   6.823   3.800   9.251 -0.0367 -0.2217  0.0489
  158SAPE  H10R17661   6.870   3.777   9.349 -0.7924  2.3028  1.0889
  158SAPE  H10S17662   6.715   3.801   9.277  0.3303  0.8196  1.6653
  158SAPE  C21117663   6.866   3.932   9.195  0.2548  0.0091 -0.3935
  158SAPE  H11R17664   6.936   3.987   9.260 -0.3408 -0.5257  0.7301
  158SAPE  C21217665   6.811   4.010   9.101 -0.5518  0.7088 -0.3545
  158SAPE  H12R17666   6.860   4.104   9.074  2.0395 -0.2174  0.7803
  158SAPE  C21317667   6.694   3.969   9.013 -0.7024 -0.3733  0.5642
  158SAPE  H13R17668   6.644   3.881   9.058 -0.8251 -1.3683 -1.4229
  158SAPE  H13S17669   6.729   3.926   8.917 -1.1698 -1.2631  0.7832
  158SAPE  C21417670   6.602   4.090   8.986 -0.3288  0.1160  0.3457
  158SAPE  H14R17671   6.560   4.138   9.076  0.4619  0.5756  0.4787
  158SAPE  C21517672   6.557   4.132   8.869 -0.6891 -0.4345 -0.0914
  158SAPE  H15R17673   6.497   4.224   8.868 -0.0002  0.0203 -0.2669
  158SAPE  C21617674   6.598   4.085   8.725  0.3393  0.6548  0.5103
  158SAPE  H16R17675   6.582   3.978   8.704  1.5936  0.1903  1.7694
  158SAPE  H16S17676   6.703   4.107   8.695  0.1128  0.4023 -0.5106
  158SAPE  C21717677   6.504   4.153   8.621 -0.3896  1.0223 -0.2518
  158SAPE  H17R17678   6.561   4.241   8.584  0.1771  0.7212 -0.1061
  158SAPE  H17S17679   6.415   4.200   8.669 -0.3694  0.5334  0.2822
  158SAPE  C21817680   6.454   4.053   8.504  0.2291 -0.0995 -0.4938
  158SAPE  H18R17681   6.406   3.960   8.542  0.7829 -0.9371 -1.7575
  158SAPE  H18S17682   6.549   4.020   8.456 -0.9935 -2.9265 -1.1587
  158SAPE  C21917683   6.375   4.119   8.387 -0.3543 -0.4031  0.5281
  158SAPE  H19R17684   6.359   4.050   8.301  2.9619  1.5778 -1.8924
  158SAPE  H19S17685   6.446   4.196   8.350  1.1972 -1.6522  0.7822
  158SAPE  C22017686   6.244   4.178   8.431  0.1924 -0.2844  0.0844
  158SAPE  H20R17687   6.198   4.255   8.365 -1.8533 -1.2873  0.2672
  158SAPE  H20S17688   6.254   4.229   8.529 -1.3482  0.0323  0.1096
  158SAPE  H20T17689   6.166   4.101   8.448  0.0690 -0.2751 -0.4223
  158SAPE   C3317690   6.084   3.281   9.517 -0.1958  0.3758  0.4671
  158SAPE   H3X17691   6.090   3.390   9.538 -0.9010  0.6564 -0.6839
  158SAPE   H3Y17692   6.029   3.269   9.421  0.2853 -0.2337  0.2566
  158SAPE   C3417693   6.229   3.232   9.506 -0.0274 -0.1290  0.2537
  158SAPE   H4X17694   6.225   3.128   9.467 -1.0056  0.4718 -1.3903
  158SAPE   H4Y17695   6.279   3.237   9.604 -1.8428 -0.8977  1.2717
  158SAPE   C3517696   6.312   3.321   9.405  0.2721  0.6603 -0.0258
  158SAPE   H5X17697   6.419   3.292   9.420  0.0913 -0.9637 -1.5344
  158SAPE   H5Y17698   6.304   3.425   9.442 -1.2751  0.0180  1.5998
  158SAPE   C3617699   6.274   3.297   9.260 -0.0269  0.1034 -0.1300
  158SAPE   H6X17700   6.163   3.306   9.252  0.1213  0.7112 -2.2049
  158SAPE   H6Y17701   6.295   3.193   9.227 -0.4103  0.3366 -1.1481
  158SAPE   C3717702   6.344   3.383   9.155  0.4997  0.3199  0.2080
  158SAPE   H7X17703   6.452   3.355   9.160 -0.1582 -2.7316 -0.6843
  158SAPE   H7Y17704   6.343   3.493   9.172 -0.7759  0.6441 -1.7303
  158SAPE   C3817705   6.311   3.348   9.004  0.7436 -0.2109  0.0289
  158SAPE   H8X17706   6.202   3.327   8.997  0.0505  2.7728  0.2709
  158SAPE   H8Y17707   6.368   3.255   8.983  3.1302  1.9041 -4.0961
  158SAPE   C3917708   6.353   3.444   8.895 -0.1064  0.2212  0.3478
  158SAPE   H9X17709   6.458   3.476   8.911  0.0104  0.2954 -0.4969
  158SAPE   H9Y17710   6.289   3.535   8.894 -2.6435 -1.4479  1.6018
  158SAPE  C31017711   6.332   3.391   8.749  0.6075 -0.0053  0.2357
  158SAPE  H10X17712   6.227   3.382   8.715  0.9031  0.9085 -0.9437
  158SAPE  H10Y17713   6.373   3.288   8.736 -0.0741 -0.4810  1.6126
  158SAPE  C31117714   6.409   3.476   8.643 -0.0592 -0.1752 -0.0045
  158SAPE  H11X17715   6.516   3.470   8.672  0.0230  1.7072  0.1848
  158SAPE  H11Y17716   6.378   3.581   8.664  1.9809  0.3656  0.4611
  158SAPE  C31217717   6.391   3.434   8.501 -0.0847  0.1824  0.3668
  158SAPE  H12X17718   6.284   3.403   8.501  0.7929 -3.3844  1.0912
  158SAPE  H12Y17719   6.457   3.345   8.488 -1.1963 -1.0146  2.3534
  158SAPE  C31317720   6.420   3.544   8.397  0.5963  0.3474 -0.8935
  158SAPE  H13X17721   6.379   3.635   8.446 -2.1342 -1.1435 -0.2296
  158SAPE  H13Y17722   6.363   3.521   8.305  0.0762  0.0473 -0.5001
  158SAPE  C31417723   6.561   3.566   8.354 -0.0254  0.2159 -0.9596
  158SAPE  H14X17724   6.593   3.481   8.290  4.8536  1.1134 -0.0726
  158SAPE  H14Y17725   6.630   3.552   8.439  0.4075 -2.0706 -1.6416
  158SAPE  C31517726   6.574   3.699   8.279 -0.0595 -0.1908  0.4241
  158SAPE  H15X17727   6.560   3.780   8.354  0.6492 -0.2572  0.6324
  158SAPE  H15Y17728   6.490   3.713   8.208 -1.1839 -3.1883  1.0186
  158SAPE  C31617729   6.702   3.716   8.202 -0.0232 -0.2596  0.6704
  158SAPE  H16X17730   6.695   3.652   8.111 -0.1476  0.1544  0.3905
  158SAPE  H16Y17731   6.786   3.684   8.268  0.5299 -3.3317 -1.2965
  158SAPE  C31717732   6.733   3.862   8.168 -0.3203 -0.1614 -0.4975
  158SAPE  H17X17733   6.711   3.929   8.253 -1.3808 -0.0241 -0.8716
  158SAPE  H17Y17734   6.663   3.902   8.092 -0.8866  0.3348  0.2810
  158SAPE  C31817735   6.882   3.870   8.123  0.8468 -0.0479  0.1203
  158SAPE  H18X17736   6.906   3.799   8.041  1.6535  1.0171 -0.5828
  158SAPE  H18Y17737   6.944   3.850   8.213 -0.4527 -3.1828  0.4593
  158SAPE  H18Z17738   6.909   3.969   8.083 -0.2179 -0.9669 -3.1958
  159SAPE     N17739   6.371   0.983   6.406  0.4309 -0.1636  0.6201
  159SAPE   HN117740   6.457   1.025   6.366 -0.5496  0.0679 -1.3313
  159SAPE   HN217741   6.360   0.899   6.346 -1.7710  0.0305  0.6903
  159SAPE   HN317742   6.288   1.044   6.396  1.8865  1.5588 -2.6282
  159SAPE   C1217743   6.395   0.935   6.544  0.8820 -0.3411  0.7310
  159SAPE  H12A17744   6.296   0.926   6.592 -0.7511  3.3576 -1.4763
  159SAPE  H12B17745   6.460   1.006   6.600 -0.3388 -0.1698  1.9826
  159SAPE   C1117746   6.469   0.796   6.540  0.3388  0.2125 -0.6408
  159SAPE  H11A17747   6.521   0.785   6.638  0.6310  0.0938 -0.8102
  159SAPE  H11B17748   6.544   0.807   6.458  1.0506 -1.2370 -0.2181
  159SAPE     P17749   6.407   0.540   6.518  0.1428  0.7979 -0.0724
  159SAPE   O1317750   6.295   0.471   6.453 -0.5273  0.0135  0.0141
  159SAPE   O1417751   6.542   0.520   6.465  0.3848  0.4665 -0.1555
  159SAPE   O1217752   6.374   0.689   6.520  0.4448 -0.2359  0.1422
  159SAPE   O1117753   6.415   0.496   6.671 -0.1824  0.2771  0.5297
  159SAPE    C117754   6.314   0.551   6.753  0.2597  0.2593 -0.0444
  159SAPE    HA17755   6.277   0.651   6.722 -2.3903 -1.1283 -1.7814
  159SAPE    HB17756   6.229   0.479   6.751  0.3924  0.0871  0.3825
  159SAPE    C217757   6.356   0.543   6.901 -0.4089  0.3895  0.1502
  159SAPE    HS17758   6.273   0.585   6.962 -1.1489  1.2511 -1.3826
  159SAPE   O2117759   6.475   0.619   6.917 -0.6479  0.0297 -0.1405
  159SAPE   C2117760   6.460   0.752   6.919 -0.4464 -0.1866  0.8910
  159SAPE   O2217761   6.354   0.812   6.915 -0.2113 -0.3753 -0.3430
  159SAPE   C2217762   6.596   0.820   6.920  0.6997  0.5404  0.0424
  159SAPE   H2R17763   6.676   0.767   6.978  0.6713  0.1892 -0.2329
  159SAPE   H2S17764   6.629   0.822   6.814 -0.7062 -0.9084 -0.4642
  159SAPE    C317765   6.370   0.401   6.955  0.1212 -0.7791  0.8069
  159SAPE    HX17766   6.448   0.355   6.890 -1.2568  0.0109 -1.5496
  159SAPE    HY17767   6.277   0.346   6.929 -0.6241  0.4200  0.8501
  159SAPE   O3117768   6.400   0.415   7.095  0.2566  0.4451 -0.4956
  159SAPE   C3117769   6.295   0.401   7.181  0.3407 -0.0573  0.0354
  159SAPE   O3217770   6.184   0.368   7.150  0.0798 -0.2869 -0.0994
  159SAPE   C3217771   6.345   0.414   7.334 -0.7387  0.1274 -0.4047
  159SAPE   H2X17772   6.436   0.351   7.336 -1.7256 -1.3474  1.6662
  159SAPE   H2Y17773   6.269   0.360   7.395 -0.9848  0.1688 -0.6697
  159SAPE   C2317774   6.585   0.966   6.961 -0.4160 -0.1478  0.3205
  159SAPE   H3R17775   6.508   1.026   6.908  1.3851  0.2317 -2.0445
  159SAPE   H3S17776   6.680   1.020   6.938 -0.6673 -0.2672 -1.0559
  159SAPE   C2417777   6.587   0.987   7.119 -0.1804 -0.3721  0.3298
  159SAPE   H4R17778   6.623   1.091   7.136  0.3914 -0.5504  0.2120
  159SAPE   H4S17779   6.663   0.919   7.162  0.8011 -1.4405 -2.8139
  159SAPE   C2517780   6.455   0.983   7.188  0.2200 -0.1086  0.4785
  159SAPE   H5R17781   6.373   0.966   7.117  0.8128 -1.3948  0.0713
  159SAPE   C2617782   6.428   0.984   7.324  0.4445 -0.4587  0.3170
  159SAPE   H6R17783   6.325   0.979   7.361  0.6571  1.0174  1.2190
  159SAPE   C2717784   6.541   0.989   7.420  0.0022  0.0897  0.0530
  159SAPE   H7R17785   6.630   1.046   7.387  1.0107 -1.0574  0.6858
  159SAPE   H7S17786   6.582   0.886   7.431  1.1191  0.3121 -1.6655
  159SAPE   C2817787   6.505   1.037   7.563 -0.2865 -0.6138  0.6139
  159SAPE   H8R17788   6.399   1.042   7.594 -0.5361  3.3336 -0.3545
  159SAPE   C2917789   6.598   1.087   7.650  0.1760  0.2899  0.1102
  159SAPE   H9R17790   6.551   1.125   7.742  0.4313  1.6455 -0.2993
  159SAPE  C21017791   6.746   1.099   7.637 -0.0483  0.1208  0.2434
  159SAPE  H10R17792   6.773   1.194   7.689  0.4820  1.2786 -2.0266
  159SAPE  H10S17793   6.770   1.126   7.532  1.6981  0.4137  0.6875
  159SAPE  C21117794   6.833   0.991   7.695  0.0883  0.4391  0.3731
  159SAPE  H11R17795   6.832   0.988   7.805 -2.9376 -0.3415  0.4127
  159SAPE  C21217796   6.926   0.914   7.632  0.1230  0.2065 -0.2012
  159SAPE  H12R17797   6.999   0.855   7.689  1.7629  1.9638 -0.3484
  159SAPE  C21317798   6.951   0.905   7.481 -0.2575  0.0602  0.2236
  159SAPE  H13R17799   6.885   0.979   7.431 -0.6413  0.2462  0.9992
  159SAPE  H13S17800   6.917   0.808   7.437  1.6759 -0.4206 -0.2975
  159SAPE  C21417801   7.096   0.926   7.437 -0.9104  0.6540 -0.5923
  159SAPE  H14R17802   7.124   1.031   7.422 -0.5887  0.7956  0.8604
  159SAPE  C21517803   7.188   0.833   7.411 -0.0353  0.2096 -0.3932
  159SAPE  H15R17804   7.290   0.859   7.381  1.7282 -2.5729  2.4791
  159SAPE  C21617805   7.175   0.681   7.429  0.1789 -0.9234  0.3861
  159SAPE  H16R17806   7.187   0.626   7.333  0.1867  2.2074 -1.5560
  159SAPE  H16S17807   7.073   0.663   7.469 -1.3305  1.3273 -2.0375
  159SAPE  C21717808   7.263   0.612   7.536 -0.0974  0.2768 -0.4997
  159SAPE  H17R17809   7.368   0.622   7.500  0.7814 -1.5871  1.2920
  159SAPE  H17S17810   7.238   0.504   7.530  2.5147 -0.4057 -0.4894
  159SAPE  C21817811   7.250   0.676   7.677 -0.8115  0.1299 -0.2566
  159SAPE  H18R17812   7.149   0.641   7.707 -0.4688 -0.8712 -0.2403
  159SAPE  H18S17813   7.256   0.787   7.666  2.1980  0.4967  3.0197
  159SAPE  C21917814   7.376   0.657   7.758  0.0777  0.1286 -0.8768
  159SAPE  H19R17815   7.379   0.708   7.857  1.8748 -2.2244  0.3811
  159SAPE  H19S17816   7.466   0.702   7.712  1.3720  0.6193  1.9296
  159SAPE  C22017817   7.407   0.509   7.788 -0.3095 -0.3049  0.4539
  159SAPE  H20R17818   7.324   0.457   7.839  0.9719 -1.9683  0.9332
  159SAPE  H20S17819   7.488   0.495   7.862 -1.0250  1.3841  1.6275
  159SAPE  H20T17820   7.451   0.457   7.700 -0.6989  3.9142 -2.6098
  159SAPE   C3317821   6.378   0.549   7.401 -0.5867 -0.2748  0.4094
  159SAPE   H3X17822   6.289   0.615   7.391  0.0012  0.6128  0.9240
  159SAPE   H3Y17823   6.454   0.608   7.346  0.4757 -1.1352  0.9275
  159SAPE   C3417824   6.412   0.540   7.551 -0.9373 -0.2637  0.1769
  159SAPE   H4X17825   6.436   0.645   7.579 -1.3201  0.3156 -1.5614
  159SAPE   H4Y17826   6.505   0.482   7.568 -0.0853  1.2576  0.9247
  159SAPE   C3517827   6.299   0.484   7.642 -0.7331  0.0398 -0.5601
  159SAPE   H5X17828   6.263   0.388   7.598  0.2915 -0.4252 -0.4214
  159SAPE   H5Y17829   6.220   0.561   7.644  0.3445  1.1780  1.0388
  159SAPE   C3617830   6.356   0.458   7.786  0.1565 -0.0900  0.0169
  159SAPE   H6X17831   6.367   0.558   7.834 -1.0360  0.6947 -1.2854
  159SAPE   H6Y17832   6.460   0.419   7.777 -0.0456 -0.2674 -2.0652
  159SAPE   C3717833   6.268   0.362   7.868  0.1499 -0.2894 -0.2510
  159SAPE   H7X17834   6.264   0.257   7.830 -0.4623 -0.2229 -0.3826
  159SAPE   H7Y17835   6.168   0.409   7.878  0.3582 -0.1857  1.8002
  159SAPE   C3817836   6.324   0.352   8.010  0.3946  0.3375  0.4268
  159SAPE   H8X17837   6.341   0.455   8.051  0.0256 -0.1079  1.7627
  159SAPE   H8Y17838   6.425   0.306   8.010  0.8697  1.3270  0.8891
  159SAPE   C3917839   6.233   0.277   8.107 -0.0340 -0.2069 -0.1947
  159SAPE   H9X17840   6.194   0.187   8.054  2.9428 -1.5094 -0.3967
  159SAPE   H9Y17841   6.163   0.354   8.146  1.9454  2.1679 -1.0407
  159SAPE  C31017842   6.313   0.230   8.234  0.0006  0.1365 -0.1988
  159SAPE  H10X17843   6.399   0.168   8.201 -0.3629  1.1747 -3.5081
  159SAPE  H10Y17844   6.243   0.167   8.293 -1.2841 -0.7455 -2.5099
  159SAPE  C31117845   6.364   0.344   8.325 -0.8338  0.1892 -0.8100
  159SAPE  H11X17846   6.301   0.436   8.320  0.1553  1.3303  3.5237
  159SAPE  H11Y17847   6.469   0.368   8.296 -0.7256  1.6405  0.6471
  159SAPE  C31217848   6.371   0.303   8.473 -0.5101  0.4360 -0.0504
  159SAPE  H12X17849   6.422   0.205   8.478  0.8665  0.9720 -2.0900
  159SAPE  H12Y17850   6.268   0.297   8.513 -0.0446  0.5771  1.2266
  159SAPE  C31317851   6.443   0.402   8.567  0.4174  0.0877 -0.1948
  159SAPE  H13X17852   6.391   0.500   8.559  0.8740  0.3052 -0.6686
  159SAPE  H13Y17853   6.551   0.416   8.543  0.5299  0.8348  0.6849
  159SAPE  C31417854   6.431   0.361   8.716  0.0235  0.2891  0.1057
  159SAPE  H14X17855   6.348   0.288   8.729  0.5135 -0.3570 -0.3462
  159SAPE  H14Y17856   6.399   0.449   8.775  0.7443  0.2762  0.5390
  159SAPE  C31517857   6.565   0.306   8.764  0.0350  0.5577 -0.2737
  159SAPE  H15X17858   6.646   0.382   8.763  0.7517 -0.1713  0.4098
  159SAPE  H15Y17859   6.597   0.214   8.710 -0.4156 -0.0443  0.4568
  159SAPE  C31617860   6.556   0.261   8.913 -0.2940 -0.0407  0.0907
  159SAPE  H16X17861   6.470   0.192   8.929  1.4958 -2.2318  0.8054
  159SAPE  H16Y17862   6.530   0.354   8.969 -0.5990 -0.5307  0.7756
  159SAPE  C31717863   6.684   0.201   8.982 -0.4790 -0.8467 -0.7023
  159SAPE  H17X17864   6.696   0.106   8.926 -2.4707 -1.5960  0.0353
  159SAPE  H17Y17865   6.679   0.172   9.089 -0.8228  0.8031 -0.2336
  159SAPE  C31817866   6.802   0.294   8.959  0.2331 -0.0397  0.3341
  159SAPE  H18X17867   6.835   0.287   8.853 -0.1097  0.4035  0.1946
  159SAPE  H18Y17868   6.881   0.267   9.032  0.6626 -0.9910 -0.4465
  159SAPE  H18Z17869   6.776   0.400   8.980  1.0771  1.1400 -3.7656
  160SAPE     N17870   4.762   1.481   6.105 -0.0483 -0.0122  0.3691
  160SAPE   HN117871   4.660   1.465   6.112 -0.4819  1.4142 -1.7621
  160SAPE   HN217872   4.771   1.574   6.060  0.8547  0.3197  1.1959
  160SAPE   HN317873   4.804   1.406   6.046 -1.9871 -0.1444 -0.9169
  160SAPE   C1217874   4.829   1.492   6.238 -0.3871 -0.1957 -0.8519
  160SAPE  H12A17875   4.811   1.399   6.296 -0.9220  0.1690 -0.4185
  160SAPE  H12B17876   4.782   1.570   6.302  2.3961  0.1860  0.8666
  160SAPE   C1117877   4.981   1.529   6.230  0.5856  0.6512 -0.1235
  160SAPE  H11A17878   5.011   1.547   6.336 -1.2621  0.7849  0.4122
  160SAPE  H11B17879   4.992   1.626   6.177 -1.5301 -0.4524 -2.7638
  160SAPE     P17880   5.111   1.304   6.238  0.3050  0.3839 -0.3946
  160SAPE   O1317881   5.023   1.184   6.216  0.5606  0.0080  0.2915
  160SAPE   O1417882   5.254   1.293   6.204  0.3180  0.0144 -0.5516
  160SAPE   O1217883   5.051   1.424   6.158 -0.7600 -0.1798  0.9463
  160SAPE   O1117884   5.090   1.347   6.393  0.0624  0.8899 -0.1646
  160SAPE    C117885   5.201   1.393   6.472 -0.0165  0.1771  0.3605
  160SAPE    HA17886   5.283   1.448   6.421 -1.8188  2.9505  0.2527
  160SAPE    HB17887   5.154   1.470   6.538 -1.8381 -0.8320  0.3138
  160SAPE    C217888   5.240   1.272   6.554 -0.4186  0.3852  0.0217
  160SAPE    HS17889   5.279   1.199   6.479 -0.5200  0.0135  0.3280
  160SAPE   O2117890   5.128   1.223   6.633 -0.9748  0.0974 -0.2851
  160SAPE   C2117891   5.138   1.099   6.678 -0.9158 -0.1892  0.3690
  160SAPE   O2217892   5.221   1.014   6.653 -0.7960 -0.4455  0.2444
  160SAPE   C2217893   5.020   1.087   6.770  0.9747 -0.3204  0.2725
  160SAPE   H2R17894   5.007   1.176   6.835 -4.2293 -0.6572  0.0732
  160SAPE   H2S17895   4.924   1.106   6.719  0.6311  3.7177  2.0711
  160SAPE    C317896   5.360   1.310   6.651  0.9258  0.9260  0.7783
  160SAPE    HX17897   5.445   1.326   6.581 -1.6439 -1.8451 -3.4369
  160SAPE    HY17898   5.377   1.216   6.707 -0.5315 -0.5123 -1.0797
  160SAPE   O3117899   5.332   1.432   6.735  0.1474 -0.2125  0.0843
  160SAPE   C3117900   5.294   1.398   6.860 -0.3332 -0.3509 -0.0471
  160SAPE   O3217901   5.281   1.282   6.894  0.6135  0.0588 -0.0460
  160SAPE   C3217902   5.262   1.522   6.935 -0.5556 -0.0186  1.4166
  160SAPE   H2X17903   5.152   1.529   6.945 -0.5323  1.2201  0.9133
  160SAPE   H2Y17904   5.297   1.611   6.879  0.0884 -0.9735  0.2489
  160SAPE   C2317905   5.018   0.948   6.842 -0.5982  0.2433  0.1655
  160SAPE   H3R17906   5.122   0.916   6.861  0.6282  0.8545 -4.3406
  160SAPE   H3S17907   4.987   0.867   6.772 -1.7233  0.7151  0.0912
  160SAPE   C2417908   4.939   0.948   6.972  0.1967 -0.0968 -0.4543
  160SAPE   H4R17909   4.831   0.943   6.947  0.6124 -0.6265 -2.3145
  160SAPE   H4S17910   4.983   1.024   7.040 -0.4222 -0.7384  0.6876
  160SAPE   C2517911   4.965   0.823   7.054  0.0166 -0.0525  0.6877
  160SAPE   H5R17912   5.010   0.741   6.995  1.7562  0.8820  0.6441
  160SAPE   C2617913   4.945   0.819   7.184 -0.3869  0.0942  0.1570
  160SAPE   H6R17914   4.964   0.721   7.230  0.3811 -1.7723 -3.7693
  160SAPE   C2717915   4.889   0.926   7.268  0.8766  0.5466 -0.9793
  160SAPE   H7R17916   4.885   1.029   7.226 -0.3528  1.1603  0.5309
  160SAPE   H7S17917   4.940   0.937   7.365 -2.1744 -2.1858  1.1813
  160SAPE   C2817918   4.750   0.886   7.308 -0.6664  0.3025  0.7667
  160SAPE   H8R17919   4.685   0.900   7.220 -1.3207  0.3080  1.2485
  160SAPE   C2917920   4.699   0.845   7.422 -0.1504 -0.4885  0.1653
  160SAPE   H9R17921   4.594   0.816   7.427 -0.7687  1.4930 -0.1850
  160SAPE  C21017922   4.771   0.831   7.554 -0.6746  0.3157 -0.0126
  160SAPE  H10R17923   4.692   0.817   7.630 -1.5447 -1.3755 -1.1683
  160SAPE  H10S17924   4.830   0.924   7.567  1.9189 -0.9374 -1.9686
  160SAPE  C21117925   4.871   0.721   7.570 -0.4995 -0.0470  0.3823
  160SAPE  H11R17926   4.901   0.674   7.475 -0.1093  1.4529 -0.2750
  160SAPE  C21217927   4.917   0.678   7.685 -0.4188  0.1952 -0.1581
  160SAPE  H12R17928   4.997   0.603   7.688  1.0394  1.7226  1.0838
  160SAPE  C21317929   4.879   0.726   7.823  0.3722  0.5168  0.4259
  160SAPE  H13R17930   4.772   0.700   7.838 -0.2149  1.1941 -2.1447
  160SAPE  H13S17931   4.889   0.837   7.824 -0.4604  0.6300 -0.8357
  160SAPE  C21417932   4.966   0.663   7.930 -0.1200  0.6469  0.5190
  160SAPE  H14R17933   5.069   0.635   7.905 -0.3436  0.2464  0.0246
  160SAPE  C21517934   4.931   0.648   8.061 -0.2899 -0.5386 -0.1394
  160SAPE  H15R17935   4.993   0.605   8.141  0.2106  0.4412  0.0156
  160SAPE  C21617936   4.798   0.693   8.125  0.0258  0.9599 -0.2760
  160SAPE  H16R17937   4.772   0.606   8.189  2.7574  1.1231  1.1967
  160SAPE  H16S17938   4.713   0.714   8.056 -1.0568  1.1938  1.0863
  160SAPE  C21717939   4.830   0.809   8.218  0.0310  0.1944 -0.0200
  160SAPE  H17R17940   4.892   0.783   8.307 -0.7162 -0.8627  0.2145
  160SAPE  H17S17941   4.742   0.849   8.272 -0.4308 -1.8399  0.8233
  160SAPE  C21817942   4.880   0.932   8.136 -0.0156 -1.6608  0.0996
  160SAPE  H18R17943   4.789   0.967   8.083  1.2433 -0.4614 -1.4024
  160SAPE  H18S17944   4.958   0.900   8.063 -0.4367  1.4295 -1.8912
  160SAPE  C21917945   4.941   1.040   8.222 -0.5440 -1.0148 -0.7831
  160SAPE  H19R17946   4.852   1.095   8.260 -1.6390 -3.1577 -0.0980
  160SAPE  H19S17947   4.997   1.106   8.151  0.6898  1.9995  2.6572
  160SAPE  C22017948   5.027   1.003   8.341 -0.1017  0.8460 -0.1068
  160SAPE  H20R17949   5.115   0.946   8.304 -1.0328 -0.3775 -0.5034
  160SAPE  H20S17950   4.961   0.959   8.419 -0.4527  1.8317  0.1617
  160SAPE  H20T17951   5.077   1.090   8.388  0.0801  1.7313 -1.8507
  160SAPE   C3317952   5.308   1.532   7.079  0.6042  0.4966  1.0871
  160SAPE   H3X17953   5.416   1.505   7.082  1.0146  2.0409  0.8441
  160SAPE   H3Y17954   5.256   1.459   7.144  1.3928 -1.4316 -0.3498
  160SAPE   C3417955   5.295   1.673   7.141  0.1507 -0.0631  0.1731
  160SAPE   H4X17956   5.186   1.694   7.130  0.1384  0.1811  0.7471
  160SAPE   H4Y17957   5.359   1.749   7.092 -0.7700 -1.1583 -3.0215
  160SAPE   C3517958   5.308   1.673   7.293 -0.7267 -0.0927 -0.5428
  160SAPE   H5X17959   5.326   1.775   7.335  1.9333 -1.0002  0.7787
  160SAPE   H5Y17960   5.399   1.618   7.326 -0.6491 -0.9244 -2.0489
  160SAPE   C3617961   5.188   1.618   7.368  0.4583  0.1698 -0.3126
  160SAPE   H6X17962   5.171   1.512   7.337 -1.0199 -0.3202  1.9222
  160SAPE   H6Y17963   5.101   1.679   7.338 -0.4773 -1.7117 -1.6107
  160SAPE   C3717964   5.215   1.606   7.518 -0.2262  0.3517 -0.1880
  160SAPE   H7X17965   5.310   1.551   7.531 -1.0432 -1.3397 -1.0156
  160SAPE   H7Y17966   5.145   1.533   7.566  2.7474 -1.5481  1.5799
  160SAPE   C3817967   5.210   1.738   7.600 -0.2183 -0.2863 -0.8740
  160SAPE   H8X17968   5.113   1.791   7.585 -1.5169 -2.5162 -0.8987
  160SAPE   H8Y17969   5.298   1.802   7.577 -0.1973  0.4115  0.9879
  160SAPE   C3917970   5.208   1.715   7.753  0.3184 -0.4136  0.9966
  160SAPE   H9X17971   5.117   1.655   7.774 -0.6854  1.2417  1.5266
  160SAPE   H9Y17972   5.198   1.813   7.804 -1.2634 -0.9659  1.8212
  160SAPE  C31017973   5.333   1.647   7.806  0.1102  0.1762  0.5807
  160SAPE  H10X17974   5.423   1.669   7.745 -0.7738  2.5032  0.0131
  160SAPE  H10Y17975   5.325   1.536   7.812 -0.8877  0.2630  1.0459
  160SAPE  C31117976   5.367   1.707   7.948  0.3050  0.3849 -0.0033
  160SAPE  H11X17977   5.303   1.659   8.025  1.4164 -1.2233 -0.0268
  160SAPE  H11Y17978   5.352   1.817   7.956  1.0882  0.4179  1.3121
  160SAPE  C31217979   5.511   1.686   7.979 -0.3474 -0.7090 -0.7052
  160SAPE  H12X17980   5.580   1.695   7.893  1.2680  1.0486  0.6844
  160SAPE  H12Y17981   5.526   1.587   8.027  0.2118  0.0667  0.7882
  160SAPE  C31317982   5.573   1.785   8.074 -0.3187 -0.3970 -0.4169
  160SAPE  H13X17983   5.505   1.798   8.160  2.1057  0.6477  1.4651
  160SAPE  H13Y17984   5.568   1.883   8.022 -2.4622 -0.5826 -0.6184
  160SAPE  C31417985   5.717   1.763   8.114  0.1372 -0.4474  0.5048
  160SAPE  H14X17986   5.780   1.759   8.022 -0.6763  0.7215 -0.1321
  160SAPE  H14Y17987   5.730   1.660   8.152 -1.3566 -1.0875 -0.6146
  160SAPE  C31517988   5.762   1.877   8.199  0.2528  0.1798 -0.0699
  160SAPE  H15X17989   5.708   1.887   8.295  0.7929  0.7505  0.1812
  160SAPE  H15Y17990   5.735   1.971   8.146  0.6944  0.8422  0.8650
  160SAPE  C31617991   5.914   1.885   8.222  0.2522  0.6223 -0.3608
  160SAPE  H16X17992   5.940   1.976   8.281  0.9068 -0.4673  1.0883
  160SAPE  H16Y17993   5.967   1.901   8.125  1.7909 -0.0515  0.3345
  160SAPE  C31717994   5.977   1.765   8.300  0.3632 -0.3322  0.3927
  160SAPE  H17X17995   5.966   1.671   8.242 -1.6031  0.7008 -1.0273
  160SAPE  H17Y17996   5.908   1.740   8.383  0.0589  0.0597  0.2634
  160SAPE  C31817997   6.116   1.778   8.348 -0.7801  0.0728  1.0342
  160SAPE  H18X17998   6.193   1.801   8.271  0.8868 -0.1444  2.5504
  160SAPE  H18Y17999   6.151   1.684   8.395  2.7318  0.9386  0.4597
  160SAPE  H18Z18000   6.124   1.867   8.415 -1.2432  3.6584 -3.1814
  161SAPE     N18001   0.767   0.347   6.275  0.8886  0.1869 -0.6705
  161SAPE   HN118002   0.669   0.363   6.304  1.2010  1.3465 -0.1856
  161SAPE   HN218003   0.764   0.271   6.204 -1.8908 -0.3994 -0.0133
  161SAPE   HN318004   0.821   0.313   6.357 -0.5432 -3.3496 -1.0195
  161SAPE   C1218005   0.825   0.472   6.226 -0.4051 -0.3183 -0.5674
  161SAPE  H12A18006   0.829   0.534   6.318 -0.4350 -0.1645 -0.6676
  161SAPE  H12B18007   0.757   0.529   6.158  0.1322  0.0682 -0.7841
  161SAPE   C1118008   0.963   0.461   6.163  0.0450 -0.6430  0.7061
  161SAPE  H11A18009   0.984   0.562   6.123 -0.7259 -0.9136 -0.4258
  161SAPE  H11B18010   0.964   0.388   6.080  2.8829 -1.2076  1.1607
  161SAPE     P18011   1.200   0.388   6.241  0.1369 -0.0506 -0.4211
  161SAPE   O1318012   1.204   0.288   6.135 -0.9620 -0.4198 -0.2765
  161SAPE   O1418013   1.270   0.519   6.220 -0.4145 -0.0923  0.1366
  161SAPE   O1218014   1.047   0.418   6.262  0.1648  0.9025 -0.2421
  161SAPE   O1118015   1.245   0.324   6.375 -0.6806 -0.1671 -0.3074
  161SAPE    C118016   1.176   0.222   6.450  0.5466 -0.1351 -0.4276
  161SAPE    HA18017   1.076   0.200   6.408 -0.5434  3.2828  0.0465
  161SAPE    HB18018   1.235   0.128   6.443 -0.7324 -1.0075  0.3482
  161SAPE    C218019   1.161   0.258   6.598 -0.0033 -0.6724 -0.1577
  161SAPE    HS18020   1.102   0.189   6.662  0.3593  1.9585  3.2910
  161SAPE   O2118021   1.097   0.389   6.611 -0.4349 -0.7991  0.0734
  161SAPE   C2118022   0.970   0.413   6.569  0.3972 -0.2517 -0.1207
  161SAPE   O2218023   0.893   0.330   6.530 -0.1785 -0.0754  0.4168
  161SAPE   C2218024   0.935   0.564   6.583  0.6371 -0.1668 -0.4051
  161SAPE   H2R18025   0.992   0.599   6.672 -0.3259 -0.6059  0.3915
  161SAPE   H2S18026   0.965   0.615   6.488  2.4266 -0.6309 -0.1188
  161SAPE    C318027   1.288   0.261   6.666 -0.2845 -0.0050  0.2192
  161SAPE    HX18028   1.356   0.339   6.625 -0.2058 -1.0279 -1.7391
  161SAPE    HY18029   1.339   0.163   6.653 -0.8526 -0.6696  2.5817
  161SAPE   O3118030   1.259   0.287   6.810 -0.1354  0.1789 -0.4681
  161SAPE   C3118031   1.245   0.173   6.886 -0.6405 -0.5819 -0.0949
  161SAPE   O3218032   1.252   0.058   6.856  0.6559 -0.6417  0.0033
  161SAPE   C3218033   1.223   0.223   7.030 -0.2465  0.0376  0.4574
  161SAPE   H2X18034   1.113   0.231   7.049 -0.2547 -0.4349  0.6198
  161SAPE   H2Y18035   1.261   0.326   7.047 -0.9196 -0.0291  2.7630
  161SAPE   C2318036   0.788   0.585   6.635  0.7783  0.3795  1.4169
  161SAPE   H3R18037   0.779   0.544   6.738  0.1121 -0.6799  0.9598
  161SAPE   H3S18038   0.719   0.535   6.563 -0.7922  0.5185  2.7526
  161SAPE   C2418039   0.769   0.736   6.648 -1.0232  0.2190  0.0058
  161SAPE   H4R18040   0.809   0.770   6.550 -0.8217 -2.1864 -0.8298
  161SAPE   H4S18041   0.845   0.787   6.711 -0.0205 -0.5474 -0.5431
  161SAPE   C2518042   0.629   0.779   6.674 -0.7780  0.3584 -0.0262
  161SAPE   H5R18043   0.546   0.725   6.626 -1.5330  2.7942 -1.6763
  161SAPE   C2618044   0.598   0.871   6.776  0.6106  0.5646 -0.1744
  161SAPE   H6R18045   0.492   0.899   6.786  0.2908 -0.3044 -1.0076
  161SAPE   C2718046   0.691   0.946   6.870 -0.5266 -0.5510  0.1273
  161SAPE   H7R18047   0.664   1.053   6.869 -1.6914 -0.8259 -1.0064
  161SAPE   H7S18048   0.795   0.942   6.831  0.2037  2.2477  1.5346
  161SAPE   C2818049   0.706   0.892   7.007  0.0765 -0.1820  0.7411
  161SAPE   H8R18050   0.761   0.797   7.006 -0.5236 -0.5363  0.7093
  161SAPE   C2918051   0.650   0.943   7.117 -0.1022  1.1011  0.4112
  161SAPE   H9R18052   0.652   0.874   7.203 -1.1222 -2.1354 -1.9774
  161SAPE  C21018053   0.563   1.066   7.120 -0.0862 -0.3918 -0.1910
  161SAPE  H10R18054   0.497   1.050   7.208  1.8226 -1.1718  1.1977
  161SAPE  H10S18055   0.502   1.070   7.028 -0.3330 -3.2251 -0.2545
  161SAPE  C21118056   0.661   1.186   7.120 -0.4758  0.5837 -0.4681
  161SAPE  H11R18057   0.746   1.182   7.050 -1.1644 -1.4941 -1.2500
  161SAPE  C21218058   0.657   1.293   7.209  0.7424 -0.1126 -0.6104
  161SAPE  H12R18059   0.734   1.370   7.200 -0.3822  1.0974 -0.2115
  161SAPE  C21318060   0.555   1.312   7.321  0.0542  0.3807 -0.2525
  161SAPE  H13R18061   0.534   1.208   7.354  3.0830  0.4120  2.4114
  161SAPE  H13S18062   0.454   1.347   7.291 -0.7323 -1.7825 -0.2844
  161SAPE  C21418063   0.605   1.385   7.442  0.1194 -0.5722 -0.2785
  161SAPE  H14R18064   0.610   1.492   7.418 -1.8020 -0.8646 -2.2351
  161SAPE  C21518065   0.643   1.351   7.564 -0.0624 -0.4747 -0.1700
  161SAPE  H15R18066   0.666   1.425   7.642  0.4476  1.4968 -2.0683
  161SAPE  C21618067   0.655   1.211   7.620  0.1863 -0.5510  0.3013
  161SAPE  H16R18068   0.755   1.179   7.584  1.5481 -0.0417  3.3494
  161SAPE  H16S18069   0.573   1.156   7.568 -0.6076  0.6520  0.2317
  161SAPE  C21718070   0.650   1.182   7.771  0.9112  0.3962 -0.3382
  161SAPE  H17R18071   0.543   1.185   7.801  1.1654 -1.0679  0.7966
  161SAPE  H17S18072   0.707   1.255   7.833 -0.8436  1.7606 -0.2688
  161SAPE  C21818073   0.699   1.040   7.805 -0.3756  0.0506  0.3729
  161SAPE  H18R18074   0.637   0.969   7.746 -1.7665  0.4739  1.2558
  161SAPE  H18S18075   0.674   1.023   7.912 -2.0414 -1.8537 -0.2495
  161SAPE  C21918076   0.845   1.020   7.781 -0.4942 -0.0548 -0.4964
  161SAPE  H19R18077   0.901   1.105   7.825 -0.1018  0.8060 -2.5689
  161SAPE  H19S18078   0.871   1.017   7.673 -2.5198 -1.2166 -1.0095
  161SAPE  C22018079   0.903   0.897   7.844  0.5845 -0.4275 -0.2835
  161SAPE  H20R18080   1.014   0.898   7.852  0.6519 -2.4733 -0.4152
  161SAPE  H20S18081   0.869   0.814   7.778 -0.1888 -0.7437  0.4883
  161SAPE  H20T18082   0.869   0.890   7.950 -2.7421 -0.0075 -1.2214
  161SAPE   C3318083   1.281   0.132   7.138 -0.5789  0.3629 -0.7780
  161SAPE   H3X18084   1.388   0.119   7.110 -0.0215  1.9607  0.4669
  161SAPE   H3Y18085   1.236   0.031   7.128 -1.1058  0.3209  1.4562
  161SAPE   C3418086   1.258   0.192   7.277 -0.0861  1.3155  0.5186
  161SAPE   H4X18087   1.152   0.182   7.309  0.6361 -2.3489  2.3793
  161SAPE   H4Y18088   1.290   0.298   7.274  0.7677  1.0599  0.2651
  161SAPE   C3518089   1.343   0.145   7.399 -1.0166 -0.7869  0.0291
  161SAPE   H5X18090   1.450   0.170   7.383 -0.7987 -1.5048  0.3175
  161SAPE   H5Y18091   1.344   0.034   7.407  0.0439 -0.7941  0.0053
  161SAPE   C3618092   1.289   0.205   7.526  0.6684 -0.0207 -0.3826
  161SAPE   H6X18093   1.184   0.169   7.531  1.5893 -3.1837 -1.5600
  161SAPE   H6Y18094   1.282   0.316   7.527  2.5295  0.1388  0.5194
  161SAPE   C3718095   1.332   0.136   7.659  0.1801 -0.1131  0.1012
  161SAPE   H7X18096   1.305   0.029   7.656 -1.4165  0.2814 -0.9243
  161SAPE   H7Y18097   1.277   0.167   7.751  2.1628 -1.1045  1.7112
  161SAPE   C3818098   1.483   0.140   7.684 -0.3347 -0.6776  0.2919
  161SAPE   H8X18099   1.514   0.237   7.730  1.3171 -1.1496  0.2277
  161SAPE   H8Y18100   1.535   0.124   7.587  0.0233  0.7564  0.2132
  161SAPE   C3918101   1.510   0.029   7.784 -0.0951  0.4482 -0.3997
  161SAPE   H9X18102   1.478  -0.068   7.742 -0.7118  0.8532 -0.8850
  161SAPE   H9Y18103   1.454   0.043   7.879  0.1140 -1.5968  0.0680
  161SAPE  C31018104   1.662   0.007   7.822 -0.3045 -0.3703 -0.2298
  161SAPE  H10X18105   1.722  -0.008   7.729  0.7034  0.2107  0.3079
  161SAPE  H10Y18106   1.664  -0.081   7.891  0.9989  0.5764  0.9996
  161SAPE  C31118107   1.710   0.123   7.911 -0.4241  0.5749 -0.0022
  161SAPE  H11X18108   1.633   0.125   7.990  0.0355 -0.6113  0.5044
  161SAPE  H11Y18109   1.714   0.215   7.849 -1.7458 -0.1977 -1.2760
  161SAPE  C31218110   1.846   0.099   7.981 -0.6125 -0.5752 -1.0326
  161SAPE  H12X18111   1.926   0.072   7.908  0.0884  0.3613 -0.6308
  161SAPE  H12Y18112   1.838   0.013   8.051  1.4996  1.8789  2.5591
  161SAPE  C31318113   1.894   0.219   8.057 -0.1655 -0.1389 -0.2430
  161SAPE  H13X18114   1.910   0.199   8.164 -1.0316 -0.8341 -0.2273
  161SAPE  H13Y18115   1.808   0.290   8.054 -0.5476 -0.6130 -1.0749
  161SAPE  C31418116   2.012   0.294   7.998  0.7225 -0.6221 -0.1018
  161SAPE  H14X18117   2.049   0.381   8.057  2.0038 -0.2738 -1.3846
  161SAPE  H14Y18118   1.967   0.333   7.904 -0.1092 -0.0188  0.5219
  161SAPE  C31518119   2.138   0.214   7.968  0.5466  0.3009 -0.2937
  161SAPE  H15X18120   2.138   0.110   7.928  0.2103  0.0498  0.3578
  161SAPE  H15Y18121   2.188   0.201   8.066  1.5584  1.6657 -0.5916
  161SAPE  C31618122   2.242   0.282   7.874 -0.3438  1.1931  0.1379
  161SAPE  H16X18123   2.195   0.331   7.786  0.9213  3.2828  0.5761
  161SAPE  H16Y18124   2.298   0.198   7.826  1.5644  3.1155 -1.1539
  161SAPE  C31718125   2.339   0.380   7.949 -0.1278 -0.1691 -0.5968
  161SAPE  H17X18126   2.386   0.345   8.043  2.6620 -0.2093 -1.8914
  161SAPE  H17Y18127   2.274   0.469   7.963 -1.4985 -1.2464  0.0093
  161SAPE  C31818128   2.453   0.422   7.864 -0.5266 -0.8930 -0.0464
  161SAPE  H18X18129   2.515   0.333   7.838 -0.1313 -1.3164  2.1147
  161SAPE  H18Y18130   2.521   0.497   7.909  0.8283  1.3901 -5.1789
  161SAPE  H18Z18131   2.418   0.471   7.771  0.7150  0.4137  0.1384
  162SAPE     N18132   5.502   2.644   5.808  0.2783 -0.6552 -0.1027
  162SAPE   HN118133   5.528   2.544   5.814  1.7880 -0.2338  0.9276
  162SAPE   HN218134   5.420   2.655   5.745 -0.8433 -0.8732  1.2696
  162SAPE   HN318135   5.580   2.708   5.782 -2.3971  4.0302  2.0023
  162SAPE   C1218136   5.472   2.692   5.945 -0.0446  0.1825 -0.6959
  162SAPE  H12A18137   5.362   2.686   5.945 -0.0152 -1.1737  1.4208
  162SAPE  H12B18138   5.512   2.795   5.959 -0.2679 -0.0636  2.6178
  162SAPE   C1118139   5.528   2.603   6.057  0.0315  0.4699  0.3755
  162SAPE  H11A18140   5.492   2.654   6.149 -3.2619 -1.2938  0.2045
  162SAPE  H11B18141   5.638   2.609   6.069 -0.1361  0.7767  2.0699
  162SAPE     P18142   5.544   2.343   6.020 -0.1945 -0.0112 -0.1686
  162SAPE   O1318143   5.483   2.217   6.074 -0.0580  0.5448 -0.0463
  162SAPE   O1418144   5.577   2.358   5.874  0.1599  0.0628  0.4415
  162SAPE   O1218145   5.466   2.473   6.056 -0.0274  0.8286 -0.4471
  162SAPE   O1118146   5.683   2.370   6.088 -0.1092 -0.4483  0.7714
  162SAPE    C118147   5.758   2.274   6.163  0.3013  0.5197 -0.0982
  162SAPE    HA18148   5.740   2.169   6.132 -0.7033  0.7283 -0.2634
  162SAPE    HB18149   5.865   2.292   6.139  0.7088 -0.3539  1.0382
  162SAPE    C218150   5.744   2.300   6.318  0.5055  0.1899  0.2662
  162SAPE    HS18151   5.803   2.224   6.374 -0.0076 -0.5667 -0.2106
  162SAPE   O2118152   5.609   2.294   6.365  0.2524 -0.4607  0.1930
  162SAPE   C2118153   5.563   2.172   6.384 -0.2482  0.2647 -0.3519
  162SAPE   O2218154   5.637   2.072   6.405  0.0130 -0.7836 -0.2770
  162SAPE   C2218155   5.412   2.166   6.376 -0.4171 -0.5265 -0.0897
  162SAPE   H2R18156   5.371   2.261   6.415 -1.9991 -0.9461 -0.6214
  162SAPE   H2S18157   5.378   2.149   6.271  0.3403 -1.1001 -0.2532
  162SAPE    C318158   5.801   2.438   6.341 -0.2678 -0.2702 -0.5924
  162SAPE    HX18159   5.743   2.512   6.282  2.1721  0.6775 -1.9884
  162SAPE    HY18160   5.906   2.437   6.303  0.2844  1.3441  0.7937
  162SAPE   O3118161   5.803   2.464   6.482 -0.2213 -0.3051  0.1560
  162SAPE   C3118162   5.825   2.590   6.513  0.7170 -0.5357 -0.0549
  162SAPE   O3218163   5.820   2.686   6.438 -0.1220 -0.0243  0.3549
  162SAPE   C3218164   5.859   2.593   6.658  0.5726  0.0679 -0.0490
  162SAPE   H2X18165   5.970   2.588   6.671  0.6737  2.1653  0.2458
  162SAPE   H2Y18166   5.805   2.510   6.709  0.7959  0.7787  1.4050
  162SAPE   C2318167   5.344   2.050   6.459 -0.4721  0.1318  0.5408
  162SAPE   H3R18168   5.373   1.948   6.424  1.4402  0.0772  2.1136
  162SAPE   H3S18169   5.234   2.047   6.443 -0.5209 -1.1828  0.9985
  162SAPE   C2418170   5.359   2.087   6.610 -0.2693 -0.3441  0.5555
  162SAPE   H4R18171   5.307   2.184   6.625 -0.5195  0.1069 -2.5765
  162SAPE   H4S18172   5.468   2.087   6.635 -0.0974 -2.8856  0.0221
  162SAPE   C2518173   5.292   1.980   6.696  0.1484 -0.6605  0.3051
  162SAPE   H5R18174   5.223   1.908   6.650  1.2001 -0.9868 -0.8158
  162SAPE   C2618175   5.332   1.949   6.821 -0.1905  0.2641 -0.4808
  162SAPE   H6R18176   5.272   1.877   6.878  0.0466  0.2311 -0.2754
  162SAPE   C2718177   5.436   2.013   6.910 -0.0858  0.0926 -0.4246
  162SAPE   H7R18178   5.390   2.017   7.011 -1.2891 -1.5885 -0.8673
  162SAPE   H7S18179   5.469   2.115   6.882  2.8237 -1.2298 -2.2837
  162SAPE   C2818180   5.565   1.927   6.912  0.3600 -0.3611 -0.3376
  162SAPE   H8R18181   5.598   1.889   6.814 -1.3767 -1.3208 -0.5794
  162SAPE   C2918182   5.649   1.906   7.018  0.5031  0.5958 -0.2463
  162SAPE   H9R18183   5.726   1.835   6.985  0.0762  0.1987 -0.4050
  162SAPE  C21018184   5.629   1.957   7.157 -1.4000  0.3413 -0.4451
  162SAPE  H10R18185   5.550   1.899   7.210  0.5845  0.2553  2.6863
  162SAPE  H10S18186   5.604   2.065   7.163  1.2247  0.9782  0.1244
  162SAPE  C21118187   5.748   1.939   7.252  0.4127 -0.0931  0.3467
  162SAPE  H11R18188   5.834   1.895   7.200 -2.3911 -1.3769 -3.6861
  162SAPE  C21218189   5.753   1.969   7.381  0.0063 -0.3766  0.6801
  162SAPE  H12R18190   5.851   1.940   7.423  1.0428  1.4894 -0.3379
  162SAPE  C21318191   5.653   2.040   7.467 -0.9921 -0.1875 -0.3064
  162SAPE  H13R18192   5.577   2.095   7.407  0.0396 -0.0403 -1.5133
  162SAPE  H13S18193   5.697   2.129   7.518  0.3860 -0.6415 -0.6684
  162SAPE  C21418194   5.590   1.946   7.563 -0.2363  1.1622  0.4237
  162SAPE  H14R18195   5.496   1.918   7.513  0.4839  3.2231 -2.3294
  162SAPE  C21518196   5.626   1.910   7.683 -0.4355 -0.2302  0.4696
  162SAPE  H15R18197   5.575   1.828   7.734 -1.9054 -0.1816 -0.8379
  162SAPE  C21618198   5.754   1.970   7.742 -0.2002  0.5033  0.2308
  162SAPE  H16R18199   5.827   2.003   7.665 -1.0014 -0.9563 -1.2362
  162SAPE  H16S18200   5.797   1.897   7.814 -3.2035 -0.8518  0.8325
  162SAPE  C21718201   5.712   2.093   7.825  0.5541  0.8681  0.0687
  162SAPE  H17R18202   5.634   2.067   7.901 -0.1673  2.6598 -0.0174
  162SAPE  H17S18203   5.682   2.184   7.769 -1.0683 -0.0910 -0.7241
  162SAPE  C21818204   5.827   2.136   7.920 -0.3417  0.4864  0.0752
  162SAPE  H18R18205   5.909   2.177   7.858 -0.3565 -0.7685 -0.8168
  162SAPE  H18S18206   5.871   2.044   7.965 -0.0473 -0.2564 -1.6263
  162SAPE  C21918207   5.800   2.234   8.032  0.7264  0.4808  0.4395
  162SAPE  H19R18208   5.731   2.177   8.099 -0.0631 -0.5791 -1.2177
  162SAPE  H19S18209   5.756   2.326   7.989 -1.0802 -0.2160  0.6655
  162SAPE  C22018210   5.922   2.280   8.110 -0.1336  0.0142  0.0499
  162SAPE  H20R18211   5.974   2.195   8.158 -0.2573 -0.7045 -1.0529
  162SAPE  H20S18212   5.888   2.345   8.194 -0.1423 -1.2127  1.0229
  162SAPE  H20T18213   5.997   2.337   8.051 -0.0956 -1.1733 -1.0741
  162SAPE   C3318214   5.818   2.712   6.744 -0.2883  0.3229  0.0891
  162SAPE   H3X18215   5.715   2.741   6.713 -0.0092 -1.8753 -3.4909
  162SAPE   H3Y18216   5.879   2.802   6.718 -0.5210  0.3334 -0.4202
  162SAPE   C3418217   5.846   2.684   6.890 -0.4680  0.8374 -0.0395
  162SAPE   H4X18218   5.955   2.662   6.901 -0.8513 -1.3257 -0.1515
  162SAPE   H4Y18219   5.786   2.597   6.924  0.6591 -0.0805 -0.3098
  162SAPE   C3518220   5.800   2.793   6.982  0.2806  0.3180  0.0531
  162SAPE   H5X18221   5.689   2.803   6.980  0.1747 -0.5085  0.9026
  162SAPE   H5Y18222   5.839   2.892   6.949  2.7998 -0.6397 -0.0218
  162SAPE   C3618223   5.849   2.760   7.126  0.2989  0.3796 -0.3120
  162SAPE   H6X18224   5.959   2.754   7.123  0.4298  0.2993  2.1701
  162SAPE   H6Y18225   5.817   2.658   7.156  0.5812  0.6294  0.8802
  162SAPE   C3718226   5.807   2.867   7.231 -0.0289  0.2953 -0.1475
  162SAPE   H7X18227   5.712   2.911   7.193 -0.1605  1.0668  1.0199
  162SAPE   H7Y18228   5.886   2.944   7.216  0.3314 -0.0088  0.1985
  162SAPE   C3818229   5.804   2.829   7.381  0.8065 -0.1812  0.0195
  162SAPE   H8X18230   5.882   2.758   7.415  2.4236  1.0979 -0.8988
  162SAPE   H8Y18231   5.703   2.788   7.404 -0.5496  2.2772 -1.0978
  162SAPE   C3918232   5.829   2.949   7.470  0.1485 -0.4520 -0.2383
  162SAPE   H9X18233   5.764   3.034   7.442  2.6291  1.3044 -1.0252
  162SAPE   H9Y18234   5.930   2.992   7.453  0.4762 -0.6671  1.0082
  162SAPE  C31018235   5.802   2.923   7.621 -0.2485  0.2601  0.0979
  162SAPE  H10X18236   5.875   2.844   7.649  1.0160  1.5040  0.4691
  162SAPE  H10Y18237   5.697   2.894   7.640 -0.1427  0.9540  1.8910
  162SAPE  C31118238   5.822   3.044   7.714  0.6614  0.5930  0.1572
  162SAPE  H11X18239   5.769   3.132   7.672 -1.2080  0.0205  1.2421
  162SAPE  H11Y18240   5.929   3.068   7.734  0.3980 -0.0382  2.5772
  162SAPE  C31218241   5.767   3.033   7.855  0.0859 -0.7691  0.2348
  162SAPE  H12X18242   5.784   2.931   7.896 -0.8375 -1.0418 -0.0334
  162SAPE  H12Y18243   5.656   3.041   7.859  0.1753  0.6694  0.2232
  162SAPE  C31318244   5.842   3.129   7.960  0.3558  0.6579  0.1422
  162SAPE  H13X18245   5.823   3.234   7.931 -2.8733 -0.6140 -3.0094
  162SAPE  H13Y18246   5.953   3.122   7.960  0.3609  0.7266 -0.4809
  162SAPE  C31418247   5.790   3.094   8.102 -0.2030 -0.0923 -0.2448
  162SAPE  H14X18248   5.873   3.119   8.172 -1.3672  2.0204  0.5039
  162SAPE  H14Y18249   5.771   2.985   8.108  0.9351 -0.3448 -1.0222
  162SAPE  C31518250   5.660   3.164   8.143 -0.4374 -0.2594  0.4419
  162SAPE  H15X18251   5.597   3.137   8.056 -1.7263  1.7309  0.6953
  162SAPE  H15Y18252   5.655   3.275   8.151 -1.8898 -0.3678  1.6796
  162SAPE  C31618253   5.596   3.115   8.271  0.2257 -0.6072 -0.4809
  162SAPE  H16X18254   5.669   3.112   8.355  0.6412  0.4170 -0.7956
  162SAPE  H16Y18255   5.555   3.011   8.267 -2.5491  0.3480  0.2531
  162SAPE  C31718256   5.480   3.210   8.317  0.2591  0.5043 -0.3076
  162SAPE  H17X18257   5.416   3.216   8.226 -1.9310 -0.1968  1.1188
  162SAPE  H17Y18258   5.519   3.309   8.348 -0.4787  0.4995  0.6799
  162SAPE  C31818259   5.396   3.161   8.435 -0.5489 -0.0183  0.1865
  162SAPE  H18X18260   5.339   3.249   8.473  1.5106  1.9362 -0.9931
  162SAPE  H18Y18261   5.458   3.120   8.518  1.8665  1.3432 -0.8341
  162SAPE  H18Z18262   5.343   3.071   8.399 -1.3022  0.2926  0.4896
  163SAPE     N18263   4.921   0.781   6.115 -0.2206  0.0523 -0.3272
  163SAPE   HN118264   4.823   0.815   6.117  0.3748  1.8483  1.4082
  163SAPE   HN218265   4.970   0.808   6.028  0.9637 -0.0675  0.2717
  163SAPE   HN318266   4.915   0.677   6.112  1.5186 -0.0564 -0.8215
  163SAPE   C1218267   4.996   0.841   6.223  0.4838 -0.1876  0.3419
  163SAPE  H12A18268   4.990   0.951   6.204 -0.6039 -0.6041 -2.1018
  163SAPE  H12B18269   5.104   0.820   6.209  0.7204  1.1412  0.0539
  163SAPE   C1118270   4.943   0.797   6.361  0.1594  0.1971 -0.4827
  163SAPE  H11A18271   4.992   0.840   6.450 -0.7848  2.5250 -1.0047
  163SAPE  H11B18272   4.952   0.687   6.370  1.6642  0.3851  0.8116
  163SAPE     P18273   4.683   0.716   6.403  0.2726 -0.5805 -0.0092
  163SAPE   O1318274   4.561   0.796   6.395  0.4266 -0.5837 -0.9173
  163SAPE   O1418275   4.700   0.596   6.316 -0.6171 -0.2163  0.2732
  163SAPE   O1218276   4.798   0.824   6.376 -0.5067 -0.2748  0.6183
  163SAPE   O1118277   4.699   0.674   6.553  0.0512 -0.4244 -0.0771
  163SAPE    C118278   4.813   0.697   6.633 -0.0712  0.0648 -0.4028
  163SAPE    HA18279   4.906   0.643   6.602 -0.7399 -1.2144 -0.2591
  163SAPE    HB18280   4.835   0.805   6.638 -1.6822  0.3530  2.3329
  163SAPE    C218281   4.787   0.652   6.778  0.7374 -0.7394  0.3811
  163SAPE    HS18282   4.855   0.714   6.840  1.2490 -0.3448 -0.5517
  163SAPE   O2118283   4.813   0.515   6.799 -0.1655 -0.4540 -0.2247
  163SAPE   C2118284   4.940   0.488   6.822 -0.3819 -0.9766 -0.5286
  163SAPE   O2218285   5.033   0.565   6.820  0.4453 -0.3681  0.5257
  163SAPE   C2218286   4.945   0.344   6.865  0.2348  0.0492  0.1557
  163SAPE   H2R18287   4.893   0.282   6.789  0.1050 -0.3800  0.5885
  163SAPE   H2S18288   5.046   0.303   6.885  0.6377  0.9767  0.0766
  163SAPE    C318289   4.646   0.679   6.819  0.0443  0.6068 -0.4743
  163SAPE    HX18290   4.588   0.613   6.751 -0.8744  1.0745 -0.1561
  163SAPE    HY18291   4.623   0.783   6.787 -3.0988  0.1878  0.1903
  163SAPE   O3118292   4.627   0.670   6.959  0.3860 -0.7560 -0.2752
  163SAPE   C3118293   4.577   0.558   7.005 -0.3778  0.6715  0.6490
  163SAPE   O3218294   4.534   0.468   6.932 -0.4045 -0.0091  0.0097
  163SAPE   C3218295   4.593   0.565   7.154 -1.2561 -0.3905 -0.3615
  163SAPE   H2X18296   4.544   0.659   7.185  1.5890  1.5699 -1.3229
  163SAPE   H2Y18297   4.699   0.577   7.187 -1.5410  0.4659  0.2498
  163SAPE   C2318298   4.858   0.319   6.997  0.0326 -0.6568  0.0277
  163SAPE   H3R18299   4.840   0.210   7.008  1.5494 -0.8626  0.7635
  163SAPE   H3S18300   4.755   0.358   6.985  0.8978  2.6862  2.0033
  163SAPE   C2418301   4.932   0.369   7.129 -0.6016 -0.4910  0.1755
  163SAPE   H4R18302   4.865   0.371   7.218  1.1990 -2.1298  1.6578
  163SAPE   H4S18303   4.957   0.476   7.119 -2.4319 -0.0538 -0.0372
  163SAPE   C2518304   5.052   0.284   7.172 -0.2934  0.5545  0.2824
  163SAPE   H5R18305   5.088   0.208   7.101  4.1255  0.3467  2.4038
  163SAPE   C2618306   5.104   0.283   7.293 -0.1765 -0.0344 -0.2811
  163SAPE   H6R18307   5.195   0.227   7.319  0.3275  1.0459  0.3713
  163SAPE   C2718308   5.060   0.380   7.400 -0.3328  0.0630  0.8148
  163SAPE   H7R18309   4.960   0.364   7.445 -1.4000  1.8203 -0.7451
  163SAPE   H7S18310   5.035   0.476   7.350 -3.1203 -0.4470  1.0903
  163SAPE   C2818311   5.167   0.396   7.503  0.3208  0.8290 -0.2739
  163SAPE   H8R18312   5.255   0.452   7.470 -0.5750  1.4482 -1.6794
  163SAPE   C2918313   5.164   0.360   7.631  0.1988  0.0865  0.4589
  163SAPE   H9R18314   5.250   0.392   7.691  2.3508  1.7769 -3.1432
  163SAPE  C21018315   5.050   0.280   7.696  0.6420 -0.1564  0.4712
  163SAPE  H10R18316   5.056   0.173   7.668 -0.9649 -0.1148 -0.0844
  163SAPE  H10S18317   4.951   0.318   7.663  0.4725 -1.9875 -1.2881
  163SAPE  C21118318   5.041   0.290   7.848 -0.7160  0.2607 -0.7087
  163SAPE  H11R18319   4.972   0.367   7.886 -1.9369 -1.0424 -0.1792
  163SAPE  C21218320   5.108   0.212   7.943  0.2904  0.3412 -0.0979
  163SAPE  H12R18321   5.078   0.234   8.047 -1.4773  0.0510 -0.5168
  163SAPE  C21318322   5.202   0.096   7.930 -0.0954  0.3893  0.0350
  163SAPE  H13R18323   5.211   0.057   7.827  1.5173 -0.2424  0.3817
  163SAPE  H13S18324   5.166   0.005   7.982  1.8251 -0.6371 -0.3343
  163SAPE  C21418325   5.345   0.121   7.982  0.0941  0.3330  0.1881
  163SAPE  H14R18326   5.420   0.145   7.905 -1.0669 -0.3695 -1.2010
  163SAPE  C21518327   5.388   0.120   8.111 -0.1586  0.4289  0.0833
  163SAPE  H15R18328   5.492   0.134   8.142 -0.4234  1.4297  0.5712
  163SAPE  C21618329   5.304   0.098   8.239 -0.1185  0.7968  0.0086
  163SAPE  H16R18330   5.229   0.018   8.220  0.4021  0.7122 -1.9114
  163SAPE  H16S18331   5.249   0.188   8.274  0.0920  1.6553 -1.7710
  163SAPE  C21718332   5.372   0.050   8.368  0.5288 -0.0265  0.0653
  163SAPE  H17R18333   5.374  -0.061   8.373 -0.6846 -0.0287  1.0147
  163SAPE  H17S18334   5.299   0.080   8.446  0.2545 -1.4763  0.4022
  163SAPE  C21818335   5.506   0.098   8.403 -0.6305 -0.1204 -0.4514
  163SAPE  H18R18336   5.516   0.204   8.372 -1.4942 -0.0031 -0.3524
  163SAPE  H18S18337   5.584   0.043   8.346  1.1414  0.4814  1.2971
  163SAPE  C21918338   5.526   0.084   8.552 -0.2317 -0.0884 -0.4264
  163SAPE  H19R18339   5.433   0.124   8.599 -0.3605  0.1842 -0.9021
  163SAPE  H19S18340   5.617   0.143   8.576 -0.6559  1.6992 -2.8193
  163SAPE  C22018341   5.540  -0.059   8.614 -0.0556  0.1909  0.6793
  163SAPE  H20R18342   5.533  -0.060   8.724  0.0373  1.0136  0.6968
  163SAPE  H20S18343   5.640  -0.106   8.600  0.5598  1.0289  2.1215
  163SAPE  H20T18344   5.461  -0.131   8.582 -0.4237 -0.1053  2.2075
  163SAPE   C3318345   4.517   0.448   7.217 -0.3948  0.1238  0.0938
  163SAPE   H3X18346   4.565   0.356   7.177 -1.5752 -0.0180 -1.0481
  163SAPE   H3Y18347   4.413   0.460   7.181 -0.5817  0.4564  0.7372
  163SAPE   C3418348   4.510   0.451   7.364 -0.1764 -0.1837  0.0903
  163SAPE   H4X18349   4.439   0.375   7.405 -3.3241  3.3684  1.8996
  163SAPE   H4Y18350   4.468   0.549   7.393  0.5675 -0.3956  2.0267
  163SAPE   C3518351   4.643   0.432   7.441  0.0963 -0.2040  0.9549
  163SAPE   H5X18352   4.705   0.523   7.428  0.0300 -0.2650  0.1656
  163SAPE   H5Y18353   4.692   0.346   7.391  1.0401  0.5210  0.6075
  163SAPE   C3618354   4.623   0.395   7.583 -0.3391 -0.0276 -0.9258
  163SAPE   H6X18355   4.714   0.351   7.629  0.5030 -0.6856 -3.1265
  163SAPE   H6Y18356   4.554   0.308   7.592  1.7791 -1.6813  0.4445
  163SAPE   C3718357   4.566   0.512   7.678  0.2650 -0.1639  0.7472
  163SAPE   H7X18358   4.459   0.540   7.665  0.9176  1.3988 -2.2007
  163SAPE   H7Y18359   4.624   0.604   7.657  2.6694 -1.9477 -0.9984
  163SAPE   C3818360   4.595   0.478   7.828 -0.0164  0.0340  0.1788
  163SAPE   H8X18361   4.576   0.563   7.897  0.8484 -0.4468  1.0200
  163SAPE   H8Y18362   4.701   0.452   7.848  0.3832  0.2162 -1.5184
  163SAPE   C3918363   4.503   0.371   7.883  0.3057  0.6141 -0.4620
  163SAPE   H9X18364   4.543   0.281   7.831  2.3691 -1.5078  4.1285
  163SAPE   H9Y18365   4.395   0.387   7.867  0.0067  1.6585  2.1009
  163SAPE  C31018366   4.522   0.364   8.034 -0.6343  0.0505 -0.0874
  163SAPE  H10X18367   4.485   0.460   8.076  1.2429  1.0167 -0.5247
  163SAPE  H10Y18368   4.627   0.364   8.072 -0.9676 -2.1711  0.9894
  163SAPE  C31118369   4.450   0.256   8.099 -0.4241 -0.2992  0.0915
  163SAPE  H11X18370   4.485   0.258   8.204 -0.3853 -0.3883  0.0800
  163SAPE  H11Y18371   4.482   0.160   8.052 -1.4458  0.4787 -2.3726
  163SAPE  C31218372   4.293   0.268   8.098 -0.8205  0.1731  1.0567
  163SAPE  H12X18373   4.264   0.282   7.991 -2.3560 -0.6515  1.3438
  163SAPE  H12Y18374   4.270   0.357   8.159  2.0440  0.1915  2.2702
  163SAPE  C31318375   4.220   0.143   8.139 -0.0210 -0.1388 -0.3206
  163SAPE  H13X18376   4.256   0.125   8.243 -0.9684  2.6208  0.5831
  163SAPE  H13Y18377   4.240   0.050   8.082 -0.3769 -0.1547 -0.4175
  163SAPE  C31418378   4.067   0.157   8.148 -0.6868  0.3420 -0.0766
  163SAPE  H14X18379   4.021   0.062   8.183  1.9748 -1.9422 -2.2606
  163SAPE  H14Y18380   4.027   0.181   8.047  1.4280  0.9849 -0.8217
  163SAPE  C31518381   4.021   0.277   8.241 -0.4385 -0.3497  0.2753
  163SAPE  H15X18382   4.027   0.372   8.184  0.7042 -0.8824 -0.5162
  163SAPE  H15Y18383   4.088   0.279   8.330 -1.1028  1.2703  0.7863
  163SAPE  C31618384   3.865   0.275   8.269 -1.2359 -1.1595  0.3425
  163SAPE  H16X18385   3.850   0.187   8.335 -1.5896 -1.0489  0.4113
  163SAPE  H16Y18386   3.822   0.266   8.168 -1.3599 -2.2542  0.4783
  163SAPE  C31718387   3.824   0.409   8.337  0.2797  0.1132 -0.0239
  163SAPE  H17X18388   3.859   0.500   8.282  1.7974  0.1847  0.9844
  163SAPE  H17Y18389   3.875   0.409   8.436  0.4482  0.8094 -0.1050
  163SAPE  C31818390   3.671   0.416   8.366  0.8639  0.1625  0.3691
  163SAPE  H18X18391   3.642   0.522   8.377  2.6635  0.9040 -1.3530
  163SAPE  H18Y18392   3.649   0.368   8.463 -1.8596 -0.0520 -0.2855
  163SAPE  H18Z18393   3.608   0.368   8.287 -1.1514  2.4983  0.4462
  164SAPE     N18394   0.418   4.765   5.651  0.3402 -0.3892  0.5705
  164SAPE   HN118395   0.470   4.856   5.649 -2.0543  1.0524 -0.7196
  164SAPE   HN218396   0.329   4.770   5.597 -1.7313 -1.7885  3.5527
  164SAPE   HN318397   0.392   4.758   5.751  0.4555  1.7451  0.7913
  164SAPE   C1218398   0.497   4.651   5.601  0.1930 -0.0606 -0.1323
  164SAPE  H12A18399   0.430   4.578   5.551  1.4512 -1.4849  0.1882
  164SAPE  H12B18400   0.556   4.617   5.689  1.4275  3.3326  0.5113
  164SAPE   C1118401   0.613   4.691   5.511 -0.6562 -0.4592  1.0990
  164SAPE  H11A18402   0.570   4.745   5.424  0.2013 -1.2391  0.1591
  164SAPE  H11B18403   0.665   4.606   5.462 -1.2796  0.0417 -0.5261
  164SAPE     P18404   0.797   4.754   5.681  0.0560  0.1148  0.1399
  164SAPE   O1318405   0.849   4.618   5.660  0.0003  0.2894  0.1996
  164SAPE   O1418406   0.894   4.862   5.696  0.2030 -0.3243 -0.5032
  164SAPE   O1218407   0.702   4.788   5.563  0.5459  0.4425  0.1861
  164SAPE   O1118408   0.706   4.750   5.806  0.4071 -0.3981  0.3760
  164SAPE    C118409   0.684   4.877   5.870  0.5179 -0.8162 -0.6434
  164SAPE    HA18410   0.674   4.965   5.802  1.5581 -0.1429  0.0516
  164SAPE    HB18411   0.587   4.876   5.925 -0.9004  1.9660 -2.8090
  164SAPE    C218412   0.785   4.894   5.980  0.9466 -0.5304  0.3023
  164SAPE    HS18413   0.883   4.906   5.928  1.8410 -4.6700  0.7145
  164SAPE   O2118414   0.789   4.780   6.062 -0.1338 -0.4537 -0.5948
  164SAPE   C2118415   0.906   4.759   6.118 -1.0076 -0.5905  0.2832
  164SAPE   O2218416   1.007   4.827   6.108 -0.1343  0.1098  0.3344
  164SAPE   C2218417   0.903   4.647   6.224  0.3413  0.6191 -0.3355
  164SAPE   H2R18418   0.797   4.629   6.252  0.4263  0.8415  0.1350
  164SAPE   H2S18419   0.940   4.550   6.185  0.9175 -0.0062  1.6447
  164SAPE    C318420   0.751   5.024   6.061  0.3107 -0.9603 -0.0171
  164SAPE    HX18421   0.736   5.109   5.991  0.2330 -1.5304 -0.7122
  164SAPE    HY18422   0.831   5.049   6.134 -1.1836  0.8032  1.1008
  164SAPE   O3118423   0.623   5.011   6.121 -0.0028 -0.3430  0.2464
  164SAPE   C3118424   0.622   4.953   6.241 -0.1065  0.7972 -0.4270
  164SAPE   O3218425   0.719   4.922   6.310  0.4635 -0.8187 -0.2768
  164SAPE   C3218426   0.477   4.929   6.290  0.4276  0.0520  0.3133
  164SAPE   H2X18427   0.415   5.015   6.257 -0.8747  0.6723  3.9116
  164SAPE   H2Y18428   0.479   4.935   6.401 -0.8115  0.8101  0.3098
  164SAPE   C2318429   0.981   4.694   6.349 -1.0133 -0.4169 -0.3289
  164SAPE   H3R18430   0.916   4.769   6.399  0.3503  1.3562 -1.1109
  164SAPE   H3S18431   1.077   4.740   6.318 -0.5731 -0.9585  0.2093
  164SAPE   C2418432   1.017   4.584   6.453 -0.3498 -0.0796 -0.2570
  164SAPE   H4R18433   1.041   4.644   6.544  2.4199 -0.0681 -0.8944
  164SAPE   H4S18434   1.105   4.532   6.409 -1.8359 -1.4964 -1.6806
  164SAPE   C2518435   0.911   4.479   6.481  0.0240  0.6182  0.0202
  164SAPE   H5R18436   0.862   4.430   6.396  2.0659  0.2526 -1.0081
  164SAPE   C2618437   0.879   4.434   6.596  0.4823 -0.5732  0.5896
  164SAPE   H6R18438   0.796   4.361   6.596 -2.1932  2.2726 -0.5309
  164SAPE   C2718439   0.948   4.479   6.722 -0.2526 -0.4822 -0.4775
  164SAPE   H7R18440   0.938   4.589   6.731  1.7612 -0.1921 -1.4271
  164SAPE   H7S18441   1.058   4.468   6.720 -0.0166  1.2844  0.4321
  164SAPE   C2818442   0.884   4.421   6.841  0.5054  0.4282 -0.0690
  164SAPE   H8R18443   0.800   4.350   6.834 -0.7524  1.7673  0.6854
  164SAPE   C2918444   0.915   4.443   6.971 -0.3069 -0.5566 -0.3254
  164SAPE   H9R18445   0.864   4.390   7.054 -1.1169  1.0550  0.2582
  164SAPE  C21018446   1.021   4.536   7.037 -0.0254 -0.5118 -0.2272
  164SAPE  H10R18447   0.982   4.635   7.071  1.6700  1.2712 -3.1001
  164SAPE  H10S18448   1.094   4.565   6.959 -1.0534 -1.1475 -1.4642
  164SAPE  C21118449   1.088   4.472   7.162  0.6001 -0.2454 -0.2230
  164SAPE  H11R18450   1.172   4.402   7.145  0.1297 -0.5675 -1.3155
  164SAPE  C21218451   1.058   4.507   7.287 -0.1820  0.1199 -0.6371
  164SAPE  H12R18452   1.111   4.465   7.375  1.1473  1.2925 -0.8351
  164SAPE  C21318453   0.950   4.600   7.336  0.0380  0.3248  0.4853
  164SAPE  H13R18454   0.866   4.621   7.267 -0.7745  0.6756  1.5404
  164SAPE  H13S18455   1.000   4.699   7.339 -1.9623  1.6243 -2.9324
  164SAPE  C21418456   0.900   4.577   7.479  0.2683 -0.2154 -0.6954
  164SAPE  H14R18457   0.797   4.544   7.498  0.2648 -0.0614 -0.4331
  164SAPE  C21518458   0.964   4.621   7.592 -1.1649  0.4644 -0.4820
  164SAPE  H15R18459   0.915   4.590   7.686 -2.2984 -0.4001 -1.3271
  164SAPE  C21618460   1.099   4.696   7.593 -0.2029  0.3158  0.5916
  164SAPE  H16R18461   1.106   4.772   7.674  0.1793 -1.0807  1.9080
  164SAPE  H16S18462   1.118   4.751   7.498  1.5625 -1.4930 -0.1677
  164SAPE  C21718463   1.214   4.595   7.626  0.5706 -0.1144  0.1464
  164SAPE  H17R18464   1.309   4.645   7.596 -0.3215  2.2568  1.1049
  164SAPE  H17S18465   1.214   4.499   7.569  0.6965  1.2825 -2.3389
  164SAPE  C21818466   1.221   4.555   7.774 -0.2365 -0.4105  0.5288
  164SAPE  H18R18467   1.321   4.508   7.789  2.6761  4.6493 -0.5375
  164SAPE  H18S18468   1.137   4.485   7.795 -2.0247  1.6799  0.6820
  164SAPE  C21918469   1.205   4.660   7.875  0.1004 -0.2903  0.4724
  164SAPE  H19R18470   1.101   4.700   7.873  0.5284  0.8478 -1.2793
  164SAPE  H19S18471   1.273   4.744   7.849 -0.9114  0.2260 -0.6198
  164SAPE  C22018472   1.220   4.610   8.018 -0.0196  0.2529 -0.4116
  164SAPE  H20R18473   1.125   4.613   8.077 -1.3138 -1.4140 -2.3001
  164SAPE  H20S18474   1.292   4.673   8.076  0.4116 -0.7905  0.2093
  164SAPE  H20T18475   1.264   4.509   8.011  0.0821  0.2787 -0.1425
  164SAPE   C3318476   0.419   4.803   6.232 -0.4465  1.0570 -0.7563
  164SAPE   H3X18477   0.417   4.810   6.121 -0.5367 -2.0860 -1.0575
  164SAPE   H3Y18478   0.314   4.801   6.268 -0.3073 -0.3737 -0.3699
  164SAPE   C3418479   0.483   4.668   6.266 -0.5905  0.2331  0.8096
  164SAPE   H4X18480   0.576   4.659   6.207 -1.0645 -3.2316  0.4231
  164SAPE   H4Y18481   0.417   4.581   6.244  0.0201 -0.5090  1.8646
  164SAPE   C3518482   0.523   4.638   6.414  0.6194  0.3655 -0.2959
  164SAPE   H5X18483   0.597   4.715   6.442 -0.5705  0.7843  1.8933
  164SAPE   H5Y18484   0.573   4.539   6.412  2.3655  1.2235 -0.8661
  164SAPE   C3618485   0.398   4.637   6.508  0.2727 -0.4746  0.9131
  164SAPE   H6X18486   0.317   4.574   6.466  0.3189 -0.4993  0.8603
  164SAPE   H6Y18487   0.358   4.739   6.519 -2.9423 -1.7333  1.8741
  164SAPE   C3718488   0.431   4.595   6.652  0.0747  0.1167 -0.2952
  164SAPE   H7X18489   0.455   4.487   6.636  2.3567  0.4603  0.4244
  164SAPE   H7Y18490   0.341   4.599   6.716 -1.0272 -1.6783 -1.6366
  164SAPE   C3818491   0.548   4.658   6.725  0.1084  0.3185 -0.2556
  164SAPE   H8X18492   0.532   4.767   6.716 -1.0063  0.2320  0.5747
  164SAPE   H8Y18493   0.642   4.611   6.686  0.0422 -1.0685  1.1634
  164SAPE   C3918494   0.542   4.613   6.872  0.1163 -0.0215 -0.0322
  164SAPE   H9X18495   0.564   4.505   6.885 -0.1743 -0.2155 -1.0927
  164SAPE   H9Y18496   0.440   4.631   6.912  0.3183  0.4075  0.3092
  164SAPE  C31018497   0.643   4.699   6.949  0.0331  0.0647  0.4021
  164SAPE  H10X18498   0.629   4.809   6.943  2.9828  0.5683  1.2019
  164SAPE  H10Y18499   0.743   4.681   6.904  0.2105 -1.1965  1.2409
  164SAPE  C31118500   0.649   4.665   7.099 -0.5895  0.7645  0.7227
  164SAPE  H11X18501   0.736   4.726   7.134  0.9011 -0.5904 -0.4529
  164SAPE  H11Y18502   0.685   4.560   7.107 -0.9315  0.2454 -2.9685
  164SAPE  C31218503   0.530   4.709   7.180  0.0175  0.3916 -0.0099
  164SAPE  H12X18504   0.442   4.646   7.155  0.0009  0.6192 -0.5305
  164SAPE  H12Y18505   0.494   4.811   7.152  0.3616  0.6626  0.5161
  164SAPE  C31318506   0.560   4.712   7.333 -0.1352 -0.6929  0.3996
  164SAPE  H13X18507   0.626   4.624   7.349  1.2061  0.1258 -0.3968
  164SAPE  H13Y18508   0.469   4.700   7.395 -1.1879 -0.6468 -1.0659
  164SAPE  C31418509   0.634   4.845   7.367  0.5968 -0.2490 -0.5002
  164SAPE  H14X18510   0.556   4.921   7.389 -1.2303 -1.9173 -0.9672
  164SAPE  H14Y18511   0.693   4.885   7.282 -0.3500 -0.2845 -1.1873
  164SAPE  C31518512   0.717   4.842   7.502 -0.4829 -0.3088  0.1554
  164SAPE  H15X18513   0.821   4.836   7.463 -0.0456  1.4882  0.9307
  164SAPE  H15Y18514   0.671   4.760   7.561 -3.1048  0.8679 -0.0818
  164SAPE  C31618515   0.727   4.972   7.583  0.0624 -0.4353  0.0801
  164SAPE  H16X18516   0.633   5.030   7.568  0.7999  0.6208 -0.5979
  164SAPE  H16Y18517   0.808   5.040   7.547  0.6926 -0.9332  0.5327
  164SAPE  C31718518   0.752   4.944   7.729 -0.4199 -0.2097 -0.2161
  164SAPE  H17X18519   0.828   4.864   7.731  1.5607  1.5783 -0.2624
  164SAPE  H17Y18520   0.654   4.909   7.767 -1.2443  0.5497 -1.5477
  164SAPE  C31818521   0.804   5.069   7.806  0.1038 -0.0108  0.0322
  164SAPE  H18X18522   0.813   5.044   7.914  3.9690  0.6540  0.0403
  164SAPE  H18Y18523   0.741   5.159   7.792 -3.4506 -2.5813 -2.3270
  164SAPE  H18Z18524   0.910   5.093   7.780  0.0739  0.9284  0.7295
  165SAPE     N18525   1.810   0.887   5.918  0.4355 -0.4021 -0.1512
  165SAPE   HN118526   1.742   0.948   5.968 -0.4142 -0.4935 -1.1666
  165SAPE   HN218527   1.891   0.859   5.977  1.2111 -2.2214 -1.9455
  165SAPE   HN318528   1.842   0.934   5.831  0.3462  1.7558  0.9174
  165SAPE   C1218529   1.741   0.771   5.868 -1.1132  0.6307 -0.7941
  165SAPE  H12A18530   1.802   0.679   5.883 -0.1124  1.4080 -0.0275
  165SAPE  H12B18531   1.738   0.781   5.757  0.0808  0.7991 -0.8164
  165SAPE   C1118532   1.597   0.753   5.925  0.4890  0.0484 -0.5279
  165SAPE  H11A18533   1.562   0.654   5.890  1.3095 -0.2526 -0.5125
  165SAPE  H11B18534   1.535   0.826   5.868  0.7768  1.7830  1.2434
  165SAPE     P18535   1.540   0.877   6.145  0.1895  0.0898 -0.3737
  165SAPE   O1318536   1.623   0.986   6.094  0.0375 -0.2495  0.4900
  165SAPE   O1418537   1.393   0.882   6.130 -0.0754 -0.2878  0.4602
  165SAPE   O1218538   1.595   0.753   6.069  0.2944 -0.1552 -0.3920
  165SAPE   O1118539   1.570   0.855   6.301 -0.0298  0.1577  0.4534
  165SAPE    C118540   1.526   0.727   6.357  0.1445 -0.5727 -0.2418
  165SAPE    HA18541   1.446   0.677   6.298 -1.5402  0.8142  0.7603
  165SAPE    HB18542   1.613   0.658   6.366  0.1310 -0.5802 -0.1644
  165SAPE    C218543   1.468   0.740   6.505 -0.3859 -0.2426 -0.7025
  165SAPE    HS18544   1.388   0.816   6.500 -0.2684  0.1894  2.3966
  165SAPE   O2118545   1.585   0.784   6.582 -0.0460 -0.2660 -0.0761
  165SAPE   C2118546   1.569   0.848   6.697 -0.1901 -0.1358 -0.6789
  165SAPE   O2218547   1.466   0.894   6.736  0.2168 -0.5078  0.1617
  165SAPE   C2218548   1.708   0.858   6.768 -0.2531 -0.3797 -0.7521
  165SAPE   H2R18549   1.786   0.796   6.719 -0.0749  0.1748 -1.1861
  165SAPE   H2S18550   1.738   0.965   6.762 -0.9748 -0.0138  1.2661
  165SAPE    C318551   1.412   0.613   6.562  0.4231 -0.0897  0.4613
  165SAPE    HX18552   1.489   0.536   6.538  0.1430  0.4404 -2.6282
  165SAPE    HY18553   1.324   0.579   6.504 -1.1338  4.3896 -0.2144
  165SAPE   O3118554   1.382   0.609   6.702 -0.0027  0.2370  0.6288
  165SAPE   C3118555   1.269   0.673   6.741  0.7510  0.4655 -0.4223
  165SAPE   O3218556   1.205   0.756   6.678 -0.6703  0.3004 -0.0845
  165SAPE   C3218557   1.227   0.624   6.886  0.6431  0.3644  0.6269
  165SAPE   H2X18558   1.317   0.638   6.950 -0.3993 -2.1476  2.8264
  165SAPE   H2Y18559   1.203   0.518   6.861  2.4477 -0.0352  0.4500
  165SAPE   C2318560   1.705   0.823   6.917 -0.2479  0.1239  0.1978
  165SAPE   H3R18561   1.690   0.714   6.928 -2.7956  0.4795  1.0794
  165SAPE   H3S18562   1.623   0.874   6.972 -2.2731 -1.8575 -0.8496
  165SAPE   C2418563   1.844   0.842   6.989  0.2964 -0.4052 -0.0541
  165SAPE   H4R18564   1.904   0.762   6.940 -0.0749 -0.2107 -0.8390
  165SAPE   H4S18565   1.848   0.808   7.095  0.3408 -0.0049  0.0715
  165SAPE   C2518566   1.902   0.980   6.978 -0.3200 -0.2275  0.0379
  165SAPE   H5R18567   1.945   1.003   6.879 -1.3995 -3.2613 -1.2610
  165SAPE   C2618568   1.919   1.068   7.081 -0.3922 -0.1855  0.2435
  165SAPE   H6R18569   1.953   1.166   7.043 -0.5297 -0.6890 -1.2385
  165SAPE   C2718570   1.883   1.045   7.224 -0.6724 -0.8091 -0.0297
  165SAPE   H7R18571   1.900   0.941   7.258 -2.4557 -1.6914 -1.6204
  165SAPE   H7S18572   1.773   1.059   7.232 -0.7951  1.1350 -3.2048
  165SAPE   C2818573   1.947   1.133   7.324  0.2945 -0.3371 -0.6661
  165SAPE   H8R18574   2.035   1.194   7.297  0.4700  0.2500  1.1350
  165SAPE   C2918575   1.916   1.137   7.456  0.2844 -0.3202 -0.3079
  165SAPE   H9R18576   1.969   1.197   7.532  0.3192 -2.9186  1.8837
  165SAPE  C21018577   1.804   1.055   7.515  0.0995  0.4018  0.3935
  165SAPE  H10R18578   1.751   1.003   7.433  2.1724  1.0896 -1.4669
  165SAPE  H10S18579   1.724   1.115   7.563 -1.1949 -0.3158 -0.8070
  165SAPE  C21118580   1.853   0.951   7.615  0.0062 -0.4176 -0.5091
  165SAPE  H11R18581   1.879   0.853   7.572  2.4164  0.6177 -1.6081
  165SAPE  C21218582   1.883   0.975   7.744 -0.8688  0.4738  0.0227
  165SAPE  H12R18583   1.919   0.887   7.799  1.8952  2.2755  1.3335
  165SAPE  C21318584   1.865   1.101   7.826  0.4237 -0.4803  0.9388
  165SAPE  H13R18585   1.830   1.186   7.764  2.5047  1.0703  1.7771
  165SAPE  H13S18586   1.968   1.132   7.855  0.6621 -1.2459  0.9466
  165SAPE  C21418587   1.773   1.071   7.945  0.8224 -0.1828 -0.8595
  165SAPE  H14R18588   1.667   1.048   7.923 -0.5464 -0.3918  4.5377
  165SAPE  C21518589   1.806   1.085   8.076 -0.6907  0.4637  0.0409
  165SAPE  H15R18590   1.739   1.052   8.157  0.5834  0.0584  0.9670
  165SAPE  C21618591   1.950   1.127   8.112  1.8396 -1.0168  0.0381
  165SAPE  H16R18592   1.972   1.210   8.041 -1.2569  1.3453  1.6158
  165SAPE  H16S18593   2.027   1.047   8.105  2.4904 -0.4680  0.8214
  165SAPE  C21718594   1.973   1.178   8.258  0.1994  0.5937  0.3629
  165SAPE  H17R18595   1.875   1.225   8.283 -1.6931 -0.7861 -3.5917
  165SAPE  H17S18596   2.049   1.259   8.265  0.4876  0.5548 -1.6886
  165SAPE  C21818597   2.002   1.067   8.356 -1.2836 -0.1222  0.6179
  165SAPE  H18R18598   2.106   1.037   8.330 -0.7045  2.9529 -1.2120
  165SAPE  H18S18599   1.950   0.970   8.340 -0.1769 -0.6020 -0.2735
  165SAPE  C21918600   1.999   1.112   8.507  0.4990  0.3605 -0.4418
  165SAPE  H19R18601   1.896   1.141   8.538  1.0904  0.6915  1.3855
  165SAPE  H19S18602   2.055   1.208   8.511 -2.6440  2.3076  1.0088
  165SAPE  C22018603   2.048   1.009   8.606 -0.7014  0.3630 -0.0276
  165SAPE  H20R18604   2.095   1.048   8.699  1.6476 -1.9957 -0.1164
  165SAPE  H20S18605   2.132   0.956   8.555 -1.4421 -0.2710 -0.5980
  165SAPE  H20T18606   1.966   0.937   8.626  0.8468 -1.3205  0.5678
  165SAPE   C3318607   1.102   0.696   6.935 -0.2280 -0.1172 -0.1460
  165SAPE   H3X18608   1.016   0.680   6.866 -0.4568 -0.7680  0.2822
  165SAPE   H3Y18609   1.125   0.804   6.927  1.1959 -0.4491 -1.0076
  165SAPE   C3418610   1.068   0.656   7.078  0.3415  0.3969 -0.5080
  165SAPE   H4X18611   1.049   0.548   7.063  0.7244  0.4854 -1.8008
  165SAPE   H4Y18612   0.972   0.710   7.093  1.6056  2.6185  0.1538
  165SAPE   C3518613   1.170   0.681   7.185 -0.1604 -0.0863 -0.3651
  165SAPE   H5X18614   1.206   0.784   7.164  0.0832  0.0817  0.8421
  165SAPE   H5Y18615   1.258   0.614   7.179  1.1590  1.5438 -0.0557
  165SAPE   C3618616   1.120   0.675   7.337  0.1697  0.1296  0.3537
  165SAPE   H6X18617   1.028   0.738   7.335 -0.3423 -0.6023  0.3806
  165SAPE   H6Y18618   1.187   0.728   7.408 -1.6243  1.5181  1.1046
  165SAPE   C3718619   1.113   0.539   7.403  0.8735  0.6586  0.2646
  165SAPE   H7X18620   1.217   0.503   7.412  0.7160  0.2890  0.6247
  165SAPE   H7Y18621   1.061   0.471   7.333 -1.1012  1.2201  1.0985
  165SAPE   C3818622   1.048   0.534   7.538  1.0447 -0.4703  0.1244
  165SAPE   H8X18623   1.029   0.429   7.569 -1.5288 -0.0659  0.1820
  165SAPE   H8Y18624   0.953   0.592   7.542  0.0772 -2.0030  0.2528
  165SAPE   C3918625   1.136   0.590   7.650 -0.3794  0.5198 -0.3268
  165SAPE   H9X18626   1.131   0.701   7.651 -3.2278  0.4776  1.0369
  165SAPE   H9Y18627   1.235   0.546   7.627 -0.9450 -1.1601  0.2862
  165SAPE  C31018628   1.091   0.551   7.791 -0.2898  0.4724 -0.9051
  165SAPE  H10X18629   1.092   0.441   7.806 -0.3111  0.6418  0.4538
  165SAPE  H10Y18630   0.988   0.591   7.799 -0.1524  0.5078  1.5059
  165SAPE  C31118631   1.179   0.621   7.901  0.2911 -0.1071  0.9123
  165SAPE  H11X18632   1.112   0.635   7.989 -0.0448 -1.6851  0.9419
  165SAPE  H11Y18633   1.211   0.721   7.866 -0.0917 -0.9885 -2.2224
  165SAPE  C31218634   1.304   0.542   7.943 -0.0864  0.4448 -0.0486
  165SAPE  H12X18635   1.355   0.594   8.027  0.6230  1.3742 -1.0244
  165SAPE  H12Y18636   1.380   0.535   7.862  1.7392  2.1004  1.3994
  165SAPE  C31318637   1.273   0.403   7.999  0.2162 -0.0935  0.5017
  165SAPE  H13X18638   1.234   0.333   7.921  0.1972  1.4619 -0.9384
  165SAPE  H13Y18639   1.192   0.405   8.076 -0.1097  3.1936  0.2243
  165SAPE  C31418640   1.400   0.331   8.070 -0.0998 -0.5701 -0.0768
  165SAPE  H14X18641   1.432   0.388   8.160 -0.7215 -0.0479 -0.1765
  165SAPE  H14Y18642   1.479   0.338   7.992 -1.6541  1.9417 -1.5715
  165SAPE  C31518643   1.361   0.191   8.125  0.3002  0.4092  0.1586
  165SAPE  H15X18644   1.453   0.142   8.164 -1.3782 -1.7273  1.7441
  165SAPE  H15Y18645   1.330   0.117   8.048  0.7181 -2.4067  2.5150
  165SAPE  C31618646   1.252   0.186   8.236 -0.6624 -0.1564  0.3598
  165SAPE  H16X18647   1.153   0.208   8.191 -0.9358 -2.5363 -0.3346
  165SAPE  H16Y18648   1.278   0.269   8.305  2.0985 -1.9162  1.6233
  165SAPE  C31718649   1.230   0.048   8.297 -0.3530 -0.2956 -0.5653
  165SAPE  H17X18650   1.332   0.013   8.326 -0.8507 -2.2018 -0.9439
  165SAPE  H17Y18651   1.197  -0.024   8.219  0.2303  0.6255 -1.6940
  165SAPE  C31818652   1.136   0.040   8.411 -0.9282  0.2253 -0.5836
  165SAPE  H18X18653   1.162   0.113   8.491  0.7536 -1.1318  0.1839
  165SAPE  H18Y18654   1.135  -0.065   8.448  0.2964 -0.2188 -1.7439
  165SAPE  H18Z18655   1.036   0.069   8.373 -0.9068  1.1175  0.0120
  166SAPE     N18656   0.749   4.287   6.017  0.0136 -0.8013  0.3121
  166SAPE   HN118657   0.713   4.382   5.993 -1.4164 -0.9427  1.7296
  166SAPE   HN218658   0.819   4.303   6.092 -1.0700  1.4018  0.9670
  166SAPE   HN318659   0.794   4.242   5.935  0.0885 -0.4713  0.1697
  166SAPE   C1218660   0.635   4.208   6.079  0.2290  0.0710  0.5135
  166SAPE  H12A18661   0.603   4.257   6.173  2.0985  1.3807  0.5376
  166SAPE  H12B18662   0.682   4.108   6.090  1.0978 -0.0713 -3.1331
  166SAPE   C1118663   0.518   4.201   5.989 -0.4251 -0.1387  0.2053
  166SAPE  H11A18664   0.437   4.142   6.036 -0.3058 -0.3617  0.1349
  166SAPE  H11B18665   0.548   4.146   5.896  1.9106  2.1058 -0.4881
  166SAPE     P18666   0.322   4.333   5.884  0.0771  0.1709 -0.3599
  166SAPE   O1318667   0.285   4.474   5.864  0.8070  0.1127  0.9927
  166SAPE   O1418668   0.312   4.236   5.771 -0.1271 -0.5969  0.4241
  166SAPE   O1218669   0.480   4.339   5.944 -0.4576  0.7178  0.2246
  166SAPE   O1118670   0.241   4.280   6.013  0.2351  0.5299 -0.6494
  166SAPE    C118671   0.262   4.331   6.150 -0.1078 -0.1356  0.4702
  166SAPE    HA18672   0.369   4.350   6.171 -0.0844  0.2391  0.0315
  166SAPE    HB18673   0.202   4.424   6.161 -2.1659 -1.3446  0.0387
  166SAPE    C218674   0.209   4.235   6.257  0.0054  0.1032 -0.1670
  166SAPE    HS18675   0.104   4.207   6.231  0.0276  0.9539 -1.1936
  166SAPE   O2118676   0.200   4.302   6.389  0.0133 -0.1266  0.7916
  166SAPE   C2118677   0.158   4.232   6.488  0.8848 -0.2398  0.3078
  166SAPE   O2218678   0.099   4.124   6.485 -0.2458  0.1506 -1.1806
  166SAPE   C2218679   0.200   4.298   6.629  0.0898  0.0559  0.3828
  166SAPE   H2R18680   0.303   4.341   6.633 -0.2122  1.4146 -2.8653
  166SAPE   H2S18681   0.127   4.382   6.630  0.1859  0.1439  0.1023
  166SAPE    C318682   0.295   4.100   6.257 -0.9293 -0.2466 -0.4369
  166SAPE    HX18683   0.294   4.071   6.150  0.9172 -0.8970 -0.3038
  166SAPE    HY18684   0.245   4.024   6.321 -1.4781  0.5927  0.1591
  166SAPE   O3118685   0.432   4.130   6.300  0.5180 -0.1323  0.4204
  166SAPE   C3118686   0.457   4.103   6.423 -1.4738 -0.4577  0.1792
  166SAPE   O3218687   0.387   4.053   6.505  0.6791 -0.3927 -0.9721
  166SAPE   C3218688   0.601   4.137   6.452 -0.2782 -0.4245 -0.0926
  166SAPE   H2X18689   0.612   4.246   6.438  2.2950 -0.5634  0.2866
  166SAPE   H2Y18690   0.664   4.087   6.375  1.0403  0.6353  0.2616
  166SAPE   C2318691   0.175   4.207   6.749 -0.1045 -0.2984  0.1639
  166SAPE   H3R18692   0.233   4.114   6.731  0.4041  0.1227 -0.4316
  166SAPE   H3S18693   0.068   4.177   6.748  0.1529 -1.2986  0.8557
  166SAPE   C2418694   0.222   4.275   6.883 -0.0302  0.8135 -0.1013
  166SAPE   H4R18695   0.330   4.299   6.876  0.2618  1.3584  3.8998
  166SAPE   H4S18696   0.226   4.192   6.957  0.4524  0.2100 -0.7873
  166SAPE   C2518697   0.153   4.386   6.940  0.2308 -0.1494 -0.4984
  166SAPE   H5R18698   0.114   4.454   6.862 -0.1851  1.1431  0.7961
  166SAPE   C2618699   0.116   4.409   7.070 -0.7188 -0.0547  0.5524
  166SAPE   H6R18700   0.051   4.496   7.088  0.6581  1.0733  0.2408
  166SAPE   C2718701   0.153   4.321   7.187 -0.3748  0.3476 -0.3404
  166SAPE   H7R18702   0.176   4.218   7.154 -0.5091  0.0983  0.3124
  166SAPE   H7S18703   0.064   4.314   7.253  0.5795 -0.5788  0.9027
  166SAPE   C2818704   0.272   4.385   7.253 -0.2050  0.0486  1.5726
  166SAPE   H8R18705   0.357   4.396   7.184 -0.7860  1.6258  1.0545
  166SAPE   C2918706   0.273   4.445   7.371  0.0474  0.0989 -0.0999
  166SAPE   H9R18707   0.366   4.491   7.407 -0.0302 -1.1293  1.7847
  166SAPE  C21018708   0.149   4.439   7.460 -0.3706 -0.1771 -0.0759
  166SAPE  H10R18709   0.147   4.342   7.515 -0.6753 -0.0526  0.1355
  166SAPE  H10S18710   0.058   4.434   7.396  0.8000 -3.3027 -1.7178
  166SAPE  C21118711   0.138   4.551   7.564 -0.5972  0.5040 -0.8111
  166SAPE  H11R18712   0.093   4.647   7.538  0.4856  1.7241  1.5173
  166SAPE  C21218713   0.177   4.540   7.695  0.0904 -0.1127 -0.8989
  166SAPE  H12R18714   0.158   4.625   7.762  1.1896 -0.1321 -0.5375
  166SAPE  C21318715   0.236   4.427   7.772 -0.6224  0.2223  1.0098
  166SAPE  H13R18716   0.338   4.406   7.735 -0.2216  2.8475  0.4337
  166SAPE  H13S18717   0.183   4.334   7.742  0.4593 -0.6277  1.6542
  166SAPE  C21418718   0.236   4.446   7.925 -0.1907  0.7229  0.0098
  166SAPE  H14R18719   0.158   4.394   7.983  0.9596 -1.0825  0.0079
  166SAPE  C21518720   0.337   4.509   7.989 -0.1898 -0.1291  0.0129
  166SAPE  H15R18721   0.334   4.516   8.099 -1.1465  1.6613 -0.0940
  166SAPE  C21618722   0.443   4.593   7.922  0.7374  0.2555 -0.5344
  166SAPE  H16R18723   0.410   4.699   7.934 -1.4491 -0.4496  0.2350
  166SAPE  H16S18724   0.445   4.573   7.813 -3.3097  1.4971 -1.0113
  166SAPE  C21718725   0.582   4.582   7.989 -0.2789  0.7673  0.8001
  166SAPE  H17R18726   0.660   4.621   7.921  0.9500  1.0175  2.2903
  166SAPE  H17S18727   0.598   4.472   7.989  2.3886  1.0991  1.6477
  166SAPE  C21818728   0.604   4.660   8.115  0.5249 -0.2888 -0.5275
  166SAPE  H18R18729   0.537   4.627   8.198 -0.3027  0.6781 -0.7900
  166SAPE  H18S18730   0.580   4.765   8.087  1.3704  0.2066  0.4794
  166SAPE  C21918731   0.748   4.655   8.154  0.0504 -0.2874  0.0115
  166SAPE  H19R18732   0.800   4.730   8.090  1.7839 -1.4907 -0.0726
  166SAPE  H19S18733   0.812   4.565   8.140  1.1796  0.2712  1.3544
  166SAPE  C22018734   0.773   4.715   8.289 -0.4335  0.2699 -0.1887
  166SAPE  H20R18735   0.749   4.823   8.282  0.5664  0.5785  0.8461
  166SAPE  H20S18736   0.879   4.708   8.321 -0.6668 -0.2109  0.4958
  166SAPE  H20T18737   0.716   4.666   8.370  1.9457  0.8148  1.9494
  166SAPE   C3318738   0.654   4.101   6.593  0.1093  0.4763 -0.2786
  166SAPE   H3X18739   0.762   4.123   6.604 -0.3750  3.1223 -0.1502
  166SAPE   H3Y18740   0.635   3.997   6.627 -1.3811  0.9826  0.5308
  166SAPE   C3418741   0.595   4.183   6.706 -0.7282  0.3724 -1.4149
  166SAPE   H4X18742   0.488   4.154   6.705 -0.8318  0.1875  2.1409
  166SAPE   H4Y18743   0.603   4.294   6.705 -1.1444  0.5087  1.5379
  166SAPE   C3518744   0.650   4.127   6.841  0.5468 -0.6936 -0.2590
  166SAPE   H5X18745   0.759   4.142   6.856  0.5169  0.8037 -1.3205
  166SAPE   H5Y18746   0.639   4.016   6.842  0.1298 -0.6953  2.3664
  166SAPE   C3618747   0.573   4.179   6.963 -0.0795 -0.4983 -0.1621
  166SAPE   H6X18748   0.473   4.131   6.974  0.4791 -1.6032  0.2119
  166SAPE   H6Y18749   0.542   4.283   6.939 -1.1733 -0.1394  2.4757
  166SAPE   C3718750   0.643   4.162   7.098  0.5108 -0.1443  0.9958
  166SAPE   H7X18751   0.737   4.220   7.087 -0.9588  2.0274 -1.1591
  166SAPE   H7Y18752   0.663   4.054   7.110  0.3963 -0.6450 -2.4057
  166SAPE   C3818753   0.571   4.218   7.225  0.6731 -0.0143 -0.6537
  166SAPE   H8X18754   0.471   4.171   7.238  0.9853 -0.6136 -0.3822
  166SAPE   H8Y18755   0.566   4.329   7.223  2.0726  0.0516 -2.8274
  166SAPE   C3918756   0.632   4.175   7.360 -0.4111  0.1146  0.8485
  166SAPE   H9X18757   0.718   4.240   7.390  0.1529  0.2630 -0.9592
  166SAPE   H9Y18758   0.689   4.080   7.353  1.8280  1.3666  1.1355
  166SAPE  C31018759   0.535   4.175   7.477  0.2038  0.1610  0.4269
  166SAPE  H10X18760   0.440   4.126   7.448  0.0703  0.8895 -0.4483
  166SAPE  H10Y18761   0.522   4.283   7.500 -0.4472  0.3703 -0.8192
  166SAPE  C31118762   0.598   4.107   7.600  0.0936 -0.3438 -0.6612
  166SAPE  H11X18763   0.704   4.135   7.614  0.4357 -0.1892 -3.2081
  166SAPE  H11Y18764   0.574   3.998   7.595 -0.6639 -0.3668  2.0315
  166SAPE  C31218765   0.528   4.154   7.731  0.3435 -0.5036  0.0978
  166SAPE  H12X18766   0.423   4.175   7.699  1.2012  0.6558 -2.1945
  166SAPE  H12Y18767   0.557   4.259   7.753 -2.6393  0.2760  0.8373
  166SAPE  C31318768   0.534   4.064   7.855  0.1504 -0.2969 -0.0990
  166SAPE  H13X18769   0.634   4.036   7.893  0.2519 -0.5984 -0.5746
  166SAPE  H13Y18770   0.485   3.966   7.836 -0.7184  0.3554 -1.4114
  166SAPE  C31418771   0.455   4.145   7.961  0.1578 -0.5071  0.0847
  166SAPE  H14X18772   0.357   4.177   7.921  1.2617 -0.1086 -2.5017
  166SAPE  H14Y18773   0.518   4.233   7.986  0.5437 -0.5948 -0.5531
  166SAPE  C31518774   0.434   4.061   8.089  0.8752 -0.1431 -0.4706
  166SAPE  H15X18775   0.532   4.039   8.137  0.2535 -2.2365 -0.0661
  166SAPE  H15Y18776   0.389   3.963   8.062 -0.0879 -0.6821  2.7045
  166SAPE  C31618777   0.341   4.141   8.187  0.0318 -0.0662 -0.5104
  166SAPE  H16X18778   0.238   4.101   8.177  0.0322 -0.0870 -0.4348
  166SAPE  H16Y18779   0.353   4.250   8.171 -0.9422  0.3159  1.0894
  166SAPE  C31718780   0.390   4.107   8.327 -0.3117 -0.5979 -0.4550
  166SAPE  H17X18781   0.496   4.142   8.332 -0.9328  1.3659 -0.3291
  166SAPE  H17Y18782   0.379   3.999   8.348 -0.7776 -0.3258  0.7578
  166SAPE  C31818783   0.316   4.175   8.436  0.5031 -0.0834 -0.0378
  166SAPE  H18X18784   0.342   4.126   8.533  1.0695  2.4892  1.2072
  166SAPE  H18Y18785   0.205   4.176   8.429  0.4912 -2.4000 -0.7817
  166SAPE  H18Z18786   0.352   4.279   8.451  0.4753 -0.0220 -0.3959
  167SAPE     N18787   1.274   2.476   6.087 -0.1122  0.3202  0.1052
  167SAPE   HN118788   1.323   2.533   6.015 -1.3284  0.5350 -0.5884
  167SAPE   HN218789   1.252   2.385   6.041  3.2679 -0.4578 -0.2497
  167SAPE   HN318790   1.190   2.535   6.104 -0.6972 -0.4901  0.0610
  167SAPE   C1218791   1.371   2.460   6.203  0.4249  0.2551  0.4872
  167SAPE  H12A18792   1.442   2.376   6.188 -1.3170 -1.3580  0.9384
  167SAPE  H12B18793   1.304   2.422   6.283 -1.5906  0.1239 -1.2057
  167SAPE   C1118794   1.431   2.597   6.253 -0.6189  0.3247 -0.9551
  167SAPE  H11A18795   1.462   2.606   6.359 -1.2721  0.7562 -0.7964
  167SAPE  H11B18796   1.348   2.670   6.243  0.6639  1.6916 -2.1311
  167SAPE     P18797   1.682   2.608   6.178  0.1716 -0.4708  0.2191
  167SAPE   O1318798   1.692   2.465   6.198  0.0849  0.1924  0.2398
  167SAPE   O1418799   1.762   2.660   6.065  0.2482  0.2006 -0.3856
  167SAPE   O1218800   1.531   2.639   6.160  0.0042  0.3543 -0.1434
  167SAPE   O1118801   1.717   2.676   6.312 -0.4162  0.2684 -0.5257
  167SAPE    C118802   1.746   2.816   6.314  0.4478  0.1521  0.5224
  167SAPE    HA18803   1.853   2.832   6.289  0.2354  4.3911  1.5426
  167SAPE    HB18804   1.697   2.855   6.222  1.1863 -1.2161 -0.4854
  167SAPE    C218805   1.702   2.887   6.449 -0.7079 -0.2020  0.3201
  167SAPE    HS18806   1.719   2.997   6.449 -0.4336 -0.2136  2.3948
  167SAPE   O2118807   1.788   2.829   6.551  0.2356  0.0825  0.0095
  167SAPE   C2118808   1.909   2.878   6.566 -0.2199  0.5575  0.2037
  167SAPE   O2218809   1.962   2.956   6.484  0.1609  0.2796  0.3380
  167SAPE   C2218810   1.978   2.809   6.679  0.2239 -0.0197 -0.0981
  167SAPE   H2R18811   1.908   2.800   6.765  0.2988 -1.5310 -0.1688
  167SAPE   H2S18812   2.008   2.708   6.644  0.0503 -0.4361  0.9292
  167SAPE    C318813   1.548   2.854   6.489 -0.1230  0.3577 -0.7824
  167SAPE    HX18814   1.533   2.744   6.495 -0.1358  0.2626 -2.2373
  167SAPE    HY18815   1.487   2.893   6.405  1.3437  0.7976 -1.6740
  167SAPE   O3118816   1.514   2.921   6.616 -0.5164  0.2901  0.3020
  167SAPE   C3118817   1.389   2.947   6.638 -0.2787  0.7727  0.0942
  167SAPE   O3218818   1.297   2.903   6.567 -0.9292 -0.8611  1.0416
  167SAPE   C3218819   1.370   3.043   6.750  0.6884 -0.1706 -0.6103
  167SAPE   H2X18820   1.355   3.141   6.699  1.2155  1.0183  1.4014
  167SAPE   H2Y18821   1.468   3.042   6.802  0.7363  0.0313 -0.6926
  167SAPE   C2318822   2.112   2.877   6.722  0.1430  0.1371  0.0904
  167SAPE   H3R18823   2.175   2.916   6.639 -1.3621  0.7158 -0.8016
  167SAPE   H3S18824   2.169   2.797   6.775  1.7973  0.9246 -0.4076
  167SAPE   C2418825   2.074   2.995   6.810  0.4939  0.2589 -0.1696
  167SAPE   H4R18826   1.990   2.975   6.880  3.2408 -0.9053  3.0665
  167SAPE   H4S18827   2.031   3.071   6.742 -0.2494 -0.5052 -0.5748
  167SAPE   C2518828   2.200   3.051   6.874  0.4254  1.0329  0.1709
  167SAPE   H5R18829   2.266   3.095   6.798 -0.3092  1.5837 -0.1669
  167SAPE   C2618830   2.226   3.041   7.008 -0.0437  0.0956  0.2265
  167SAPE   H6R18831   2.317   3.093   7.043 -1.2818  1.9182  0.8710
  167SAPE   C2718832   2.133   2.981   7.112  0.1393  0.5477 -0.2962
  167SAPE   H7R18833   2.184   2.934   7.199 -1.0882 -1.2608 -0.4956
  167SAPE   H7S18834   2.064   2.900   7.080  0.5266 -0.5424  1.4891
  167SAPE   C2818835   2.031   3.086   7.166  0.2175 -0.8647  0.3166
  167SAPE   H8R18836   1.984   3.145   7.087 -0.3485 -2.6063 -0.7119
  167SAPE   C2918837   1.990   3.106   7.302 -0.8731 -0.0181  0.8177
  167SAPE   H9R18838   1.925   3.192   7.321 -1.2681 -0.0538 -0.3097
  167SAPE  C21018839   2.059   3.029   7.416  0.8134 -0.2862 -0.0859
  167SAPE  H10R18840   2.074   2.920   7.400  2.7093 -0.4822  2.3310
  167SAPE  H10S18841   1.990   3.025   7.504  0.6817 -2.5823 -0.2529
  167SAPE  C21118842   2.198   3.082   7.458 -0.3615 -0.9777  0.7251
  167SAPE  H11R18843   2.267   3.090   7.373  0.5283  0.5638  1.5486
  167SAPE  C21218844   2.240   3.137   7.575 -0.2437 -0.0433 -0.2651
  167SAPE  H12R18845   2.343   3.172   7.588  0.0644 -1.5449  1.7794
  167SAPE  C21318846   2.157   3.161   7.702  0.2894  0.0455  0.5806
  167SAPE  H13R18847   2.051   3.166   7.671 -0.0318  1.7323  1.7979
  167SAPE  H13S18848   2.167   3.263   7.747  2.1758 -0.7774  2.1726
  167SAPE  C21418849   2.161   3.060   7.816 -0.2832  0.1509 -0.9512
  167SAPE  H14R18850   2.230   2.975   7.800  0.6617  0.0525  2.6875
  167SAPE  C21518851   2.089   3.073   7.928  0.4078  0.1742  0.2074
  167SAPE  H15R18852   2.104   2.992   8.001 -1.0330  0.9776  1.4621
  167SAPE  C21618853   2.006   3.194   7.962 -0.5047  0.5136  0.3928
  167SAPE  H16R18854   1.902   3.165   7.938 -0.1611 -2.4128  2.0156
  167SAPE  H16S18855   2.033   3.290   7.912  0.3952  0.2793  0.4135
  167SAPE  C21718856   2.019   3.224   8.117  0.0475 -0.1933 -0.4090
  167SAPE  H17R18857   2.116   3.268   8.146  1.1873 -3.6330  1.5593
  167SAPE  H17S18858   2.036   3.127   8.168  3.3797  0.5168  0.0387
  167SAPE  C21818859   1.892   3.280   8.175  0.2092 -0.2016  0.5769
  167SAPE  H18R18860   1.811   3.206   8.154  2.2744 -2.3032 -0.4551
  167SAPE  H18S18861   1.868   3.371   8.117  1.1050  0.1075  0.6784
  167SAPE  C21918862   1.895   3.309   8.322  1.3481 -0.6826 -0.3669
  167SAPE  H19R18863   1.800   3.364   8.338  0.5852 -2.4716  1.7540
  167SAPE  H19S18864   1.986   3.365   8.351  0.1164  1.2794 -0.0846
  167SAPE  C22018865   1.879   3.177   8.408  0.1813  0.4958 -0.2218
  167SAPE  H20R18866   1.774   3.140   8.403  0.4285 -0.3042  0.2610
  167SAPE  H20S18867   1.906   3.191   8.515  1.4083  2.0720 -0.7044
  167SAPE  H20T18868   1.933   3.092   8.364  2.3605 -0.6438  4.0717
  167SAPE   C3318869   1.240   3.026   6.844 -0.6716 -0.0297  0.6853
  167SAPE   H3X18870   1.235   2.917   6.868 -1.1019 -0.0825  0.3566
  167SAPE   H3Y18871   1.152   3.057   6.784 -0.7931  0.1714  0.9654
  167SAPE   C3418872   1.257   3.089   6.978 -0.1745 -1.0979 -0.5307
  167SAPE   H4X18873   1.151   3.100   7.010 -0.0408  1.0479 -0.6885
  167SAPE   H4Y18874   1.291   3.194   6.971  2.9029 -1.8779  0.9195
  167SAPE   C3518875   1.333   3.010   7.085  0.5156  0.2896 -0.6301
  167SAPE   H5X18876   1.443   3.016   7.081  0.7615 -1.4921  1.4724
  167SAPE   H5Y18877   1.303   2.904   7.070  0.9613 -0.0212  0.5852
  167SAPE   C3618878   1.278   3.047   7.230  0.2027  0.4682  0.4944
  167SAPE   H6X18879   1.170   3.022   7.225  0.7002 -1.7762 -0.2273
  167SAPE   H6Y18880   1.294   3.156   7.242  0.4562  0.4579  0.2430
  167SAPE   C3718881   1.337   2.963   7.347 -0.1123  0.1606  1.0515
  167SAPE   H7X18882   1.445   2.991   7.350 -0.1090  0.8809 -2.0201
  167SAPE   H7Y18883   1.340   2.854   7.330 -0.0101  0.3601 -0.3415
  167SAPE   C3818884   1.260   2.980   7.484  0.2551 -0.8760  0.4635
  167SAPE   H8X18885   1.152   2.961   7.467  0.4278 -2.4893  0.9198
  167SAPE   H8Y18886   1.256   3.090   7.495 -1.0148 -0.5903 -2.0928
  167SAPE   C3918887   1.314   2.907   7.600 -0.3474 -0.4346 -0.1912
  167SAPE   H9X18888   1.412   2.953   7.624 -0.2324 -0.6177 -0.3024
  167SAPE   H9Y18889   1.332   2.801   7.569 -1.2905 -1.1422  1.5502
  167SAPE  C31018890   1.224   2.913   7.725 -0.1506  0.2427  0.1087
  167SAPE  H10X18891   1.133   2.862   7.687 -0.0429  0.4509 -0.4330
  167SAPE  H10Y18892   1.194   3.016   7.753 -1.8268 -0.5567  1.5057
  167SAPE  C31118893   1.273   2.848   7.857  0.3652 -0.1460 -0.2193
  167SAPE  H11X18894   1.372   2.897   7.873  0.9257 -1.2809 -0.0980
  167SAPE  H11Y18895   1.306   2.745   7.831  0.8568 -0.1347  0.3186
  167SAPE  C31218896   1.174   2.850   7.975  0.0854 -0.4054 -0.1102
  167SAPE  H12X18897   1.081   2.792   7.954 -0.1391  0.1921 -0.8381
  167SAPE  H12Y18898   1.141   2.956   7.982 -0.3029 -0.4210 -1.3386
  167SAPE  C31318899   1.239   2.813   8.113  0.1812  0.4440 -0.9423
  167SAPE  H13X18900   1.301   2.900   8.145 -0.6105  0.2392  1.3596
  167SAPE  H13Y18901   1.289   2.717   8.092 -1.9138 -0.9334 -0.0455
  167SAPE  C31418902   1.138   2.801   8.226 -0.4821 -0.3034 -0.5976
  167SAPE  H14X18903   1.056   2.736   8.188 -2.5894  1.6781  0.3247
  167SAPE  H14Y18904   1.087   2.897   8.249  0.1242  0.3312 -1.8108
  167SAPE  C31518905   1.204   2.733   8.344 -0.0910 -0.5336  0.1944
  167SAPE  H15X18906   1.268   2.660   8.290 -0.8750 -0.2977 -1.0798
  167SAPE  H15Y18907   1.139   2.685   8.421 -2.2328  1.8005 -0.0445
  167SAPE  C31618908   1.310   2.818   8.417  0.1775 -0.0386  0.6961
  167SAPE  H16X18909   1.283   2.920   8.452  4.9486  1.6463  0.2240
  167SAPE  H16Y18910   1.400   2.833   8.353  1.0665  2.5595  2.3780
  167SAPE  C31718911   1.369   2.739   8.541 -0.1783 -0.8492 -0.4466
  167SAPE  H17X18912   1.443   2.666   8.502 -0.8128  0.0074 -3.5729
  167SAPE  H17Y18913   1.282   2.688   8.588  0.5770 -0.6500  1.2022
  167SAPE  C31818914   1.432   2.851   8.635 -0.2590  0.5756  0.1835
  167SAPE  H18X18915   1.443   2.946   8.579  2.7624  0.6269  0.6933
  167SAPE  H18Y18916   1.535   2.822   8.665  0.5339  2.6238 -0.3918
  167SAPE  H18Z18917   1.375   2.875   8.728  0.1970  1.0337  0.3546
  168SAPE     N18918   4.096   5.248   6.419 -0.2225  0.2840  0.0307
  168SAPE   HN118919   4.034   5.324   6.386 -0.8731 -0.8805 -1.5708
  168SAPE   HN218920   4.050   5.203   6.501  1.3857 -2.8304 -0.6350
  168SAPE   HN318921   4.186   5.283   6.458  0.2565 -2.9784  2.2977
  168SAPE   C1218922   4.106   5.149   6.304 -0.1267  0.0226  0.4182
  168SAPE  H12A18923   4.159   5.059   6.341 -0.7629  0.0428  1.4268
  168SAPE  H12B18924   4.168   5.187   6.220 -0.0396  0.6968  0.7783
  168SAPE   C1118925   3.971   5.114   6.231  0.2165 -0.0402  0.0453
  168SAPE  H11A18926   4.003   5.051   6.146  1.4377  0.4583  0.1104
  168SAPE  H11B18927   3.921   5.207   6.197  0.5341  0.4247  0.8244
  168SAPE     P18928   3.745   4.996   6.232  0.0206  0.0804 -0.5164
  168SAPE   O1318929   3.701   5.099   6.131 -0.3606  0.4635  0.0402
  168SAPE   O1418930   3.771   4.855   6.189  0.2764 -0.0841 -0.5615
  168SAPE   O1218931   3.874   5.043   6.309  0.2668 -0.1247 -0.7454
  168SAPE   O1118932   3.634   4.999   6.341  0.6804  0.7811 -0.1226
  168SAPE    C118933   3.628   5.118   6.422  0.0249  0.2146 -0.3653
  168SAPE    HA18934   3.661   5.213   6.376 -0.1059 -0.1930 -1.3273
  168SAPE    HB18935   3.520   5.141   6.437  0.5030  2.9145 -0.6634
  168SAPE    C218936   3.702   5.101   6.558 -0.0641  0.6173  0.1159
  168SAPE    HS18937   3.806   5.065   6.543  0.7396  2.5201  0.9163
  168SAPE   O2118938   3.622   5.011   6.634 -0.4553  0.0080 -0.3972
  168SAPE   C2118939   3.686   4.943   6.732  0.1144 -0.8951  0.8599
  168SAPE   O2218940   3.802   4.962   6.755 -0.6587 -0.6467 -0.2711
  168SAPE   C2218941   3.598   4.845   6.804 -0.4126  0.2253 -0.0062
  168SAPE   H2R18942   3.493   4.876   6.782 -0.3404  0.3130 -0.2276
  168SAPE   H2S18943   3.592   4.753   6.743  0.0213  1.5165 -2.0787
  168SAPE    C318944   3.705   5.246   6.628 -0.0567 -0.3534  0.0563
  168SAPE    HX18945   3.603   5.285   6.643 -0.1417 -0.1619 -0.9631
  168SAPE    HY18946   3.753   5.318   6.558  2.1698 -1.1439  0.6792
  168SAPE   O3118947   3.774   5.239   6.760 -0.5689 -0.0977  0.0035
  168SAPE   C3118948   3.904   5.225   6.744  0.4685  0.0967  0.4995
  168SAPE   O3218949   3.962   5.221   6.636  0.1981 -0.3173 -0.6340
  168SAPE   C3218950   3.971   5.202   6.880  0.0898  0.2449  0.3702
  168SAPE   H2X18951   4.015   5.303   6.896  1.5692 -0.0634 -1.4150
  168SAPE   H2Y18952   4.059   5.140   6.854  1.5967  2.5936 -0.4574
  168SAPE   C2318953   3.629   4.825   6.956 -0.5458 -0.4045 -0.2336
  168SAPE   H3R18954   3.610   4.927   6.994 -2.6907 -0.4414 -1.0806
  168SAPE   H3S18955   3.737   4.810   6.975 -1.0249 -2.0458  1.5342
  168SAPE   C2418956   3.560   4.708   7.026  0.1820 -0.0547  0.2522
  168SAPE   H4R18957   3.629   4.656   7.095 -0.6432 -2.4081 -0.6213
  168SAPE   H4S18958   3.541   4.629   6.950 -0.8415  2.2481 -2.0612
  168SAPE   C2518959   3.424   4.740   7.079 -0.1894  0.1006  0.3435
  168SAPE   H5R18960   3.346   4.775   7.009  0.6573 -0.4194 -0.9082
  168SAPE   C2618961   3.407   4.724   7.212  0.0206  0.9446 -0.1677
  168SAPE   H6R18962   3.309   4.737   7.259  0.1254  0.0197  0.3286
  168SAPE   C2718963   3.508   4.678   7.312  0.0943 -0.2417  0.3657
  168SAPE   H7R18964   3.573   4.595   7.275 -1.6926 -1.3309 -0.4658
  168SAPE   H7S18965   3.447   4.620   7.385  0.2434 -2.0100 -0.8397
  168SAPE   C2818966   3.590   4.791   7.368 -0.6161 -0.6288 -0.1134
  168SAPE   H8R18967   3.620   4.872   7.299  0.1511  0.8659  1.8583
  168SAPE   C2918968   3.613   4.810   7.502  0.0020 -0.8863  0.4102
  168SAPE   H9R18969   3.691   4.883   7.527  0.7416 -1.8676  1.0266
  168SAPE  C21018970   3.571   4.710   7.610 -0.2737  0.0845  0.2596
  168SAPE  H10R18971   3.659   4.674   7.668  0.4877 -0.0772 -0.9613
  168SAPE  H10S18972   3.518   4.616   7.585 -0.9393  0.2807  0.8952
  168SAPE  C21118973   3.471   4.771   7.706 -0.5735 -0.7147  0.3330
  168SAPE  H11R18974   3.365   4.745   7.690 -0.7556 -1.3647  2.3557
  168SAPE  C21218975   3.507   4.849   7.815  0.8115  0.5606  0.2314
  168SAPE  H12R18976   3.424   4.899   7.868 -0.7161  2.5834 -3.6575
  168SAPE  C21318977   3.639   4.901   7.860 -0.2863 -0.3290 -0.0368
  168SAPE  H13R18978   3.635   5.011   7.876  2.4658  0.2125 -2.2868
  168SAPE  H13S18979   3.708   4.886   7.774 -1.1308 -3.9457 -0.2443
  168SAPE  C21418980   3.690   4.823   7.980  0.3555 -0.2989 -0.7173
  168SAPE  H14R18981   3.683   4.714   7.971 -1.8395 -0.1897 -0.8262
  168SAPE  C21518982   3.747   4.872   8.096 -0.3233  0.1672 -0.0932
  168SAPE  H15R18983   3.782   4.803   8.175  0.3281  0.6930  0.0799
  168SAPE  C21618984   3.760   5.018   8.136 -0.1204 -0.9102  0.0055
  168SAPE  H16R18985   3.712   5.091   8.067  0.3091  1.6178  2.2226
  168SAPE  H16S18986   3.865   5.047   8.153 -0.8283  1.3215  0.9767
  168SAPE  C21718987   3.673   5.045   8.268 -0.0736 -0.5735  0.1230
  168SAPE  H17R18988   3.594   4.968   8.284  0.7135 -1.3058  0.5683
  168SAPE  H17S18989   3.623   5.144   8.261 -3.1929 -1.9593  0.7817
  168SAPE  C21818990   3.754   5.041   8.393  0.0128 -0.4866  0.3981
  168SAPE  H18R18991   3.815   5.132   8.414 -0.4476 -0.0516 -0.1359
  168SAPE  H18S18992   3.825   4.956   8.385  1.8245  0.9326  0.6502
  168SAPE  C21918993   3.659   5.015   8.516  1.3193 -0.1061  0.6876
  168SAPE  H19R18994   3.610   4.915   8.511  1.4349 -0.0987 -1.4664
  168SAPE  H19S18995   3.579   5.092   8.508  1.4044 -0.1217 -0.4803
  168SAPE  C22018996   3.740   5.037   8.638  0.0908  0.5833 -0.3359
  168SAPE  H20R18997   3.676   5.007   8.724 -0.5897  1.4927 -0.5098
  168SAPE  H20S18998   3.759   5.146   8.642 -0.1354  0.6352 -0.6716
  168SAPE  H20T18999   3.831   4.973   8.632 -0.8990 -0.9692  0.3941
  168SAPE   C3319000   3.889   5.164   7.004  0.0501  0.0161  0.4927
  168SAPE   H3X19001   3.876   5.054   7.002  2.1048 -0.4380 -5.1489
  168SAPE   H3Y19002   3.789   5.210   7.007  0.2716  0.6618 -1.0515
  168SAPE   C3419003   3.962   5.194   7.137  0.1555  0.1744  0.0805
  168SAPE   H4X19004   3.975   5.302   7.161 -1.0574  0.0906  1.2487
  168SAPE   H4Y19005   4.056   5.140   7.114  1.6947  2.6589  0.1422
  168SAPE   C3519006   3.886   5.145   7.265 -0.6138  0.3587  0.1316
  168SAPE   H5X19007   3.853   5.039   7.265  1.9603 -0.5022  0.9962
  168SAPE   H5Y19008   3.802   5.214   7.291 -1.0176  0.6277 -1.7410
  168SAPE   C3619009   3.987   5.151   7.388  0.1256 -0.2048  0.8465
  168SAPE   H6X19010   3.971   5.253   7.429 -1.0820 -0.3844  0.8663
  168SAPE   H6Y19011   4.091   5.116   7.367  0.1532 -1.0809  2.3170
  168SAPE   C3719012   3.938   5.057   7.503  0.6788  0.3156 -0.5151
  168SAPE   H7X19013   3.955   4.950   7.480  1.2597  0.1803  0.4891
  168SAPE   H7Y19014   3.833   5.082   7.528  0.2148 -2.0648  0.1580
  168SAPE   C3819015   4.012   5.080   7.640 -0.2222  0.4327 -0.1669
  168SAPE   H8X19016   4.121   5.069   7.619 -0.6142 -2.2325 -1.1759
  168SAPE   H8Y19017   3.986   5.002   7.714  0.6218  2.5548  2.5466
  168SAPE   C3919018   3.987   5.216   7.716  0.3533 -0.5527  0.0595
  168SAPE   H9X19019   3.991   5.294   7.638  1.3702  0.3472  0.9680
  168SAPE   H9Y19020   4.074   5.227   7.785  0.3204 -1.1088  0.1936
  168SAPE  C31019021   3.854   5.211   7.787  0.5162 -0.2102 -0.0959
  168SAPE  H10X19022   3.851   5.114   7.842 -1.1622 -0.6762 -0.9650
  168SAPE  H10Y19023   3.772   5.217   7.713 -1.7757 -1.7668  2.1305
  168SAPE  C31119024   3.828   5.315   7.888  0.2167 -0.4944  0.3024
  168SAPE  H11X19025   3.731   5.292   7.936  0.9190 -0.1328  1.9667
  168SAPE  H11Y19026   3.814   5.414   7.838  2.2401 -0.8026 -0.9699
  168SAPE  C31219027   3.929   5.318   7.999 -0.0725  0.5008 -0.1890
  168SAPE  H12X19028   4.021   5.360   7.953  0.4566 -1.2265 -0.7643
  168SAPE  H12Y19029   3.942   5.212   8.029 -0.3045  1.4392  3.9068
  168SAPE  C31319030   3.883   5.389   8.132 -0.0269 -0.3275 -0.5811
  168SAPE  H13X19031   3.961   5.373   8.210 -0.4089 -0.9419 -0.3179
  168SAPE  H13Y19032   3.792   5.348   8.180  1.0178 -0.8178  1.0393
  168SAPE  C31419033   3.868   5.541   8.126  0.5053  0.4139 -0.0675
  168SAPE  H14X19034   3.797   5.564   8.043 -2.1740  1.8068  2.4549
  168SAPE  H14Y19035   3.963   5.594   8.102  1.0496 -0.2379  0.6086
  168SAPE  C31519036   3.804   5.617   8.240 -0.4686  0.3316  0.4785
  168SAPE  H15X19037   3.708   5.570   8.272 -0.5036  0.4062  0.4830
  168SAPE  H15Y19038   3.785   5.721   8.208 -1.4281 -0.2806 -1.0300
  168SAPE  C31619039   3.895   5.611   8.361  0.1736 -0.7024 -0.3077
  168SAPE  H16X19040   4.000   5.629   8.330  0.3473 -2.3646 -0.7718
  168SAPE  H16Y19041   3.893   5.505   8.395 -0.9747 -0.8236 -0.7236
  168SAPE  C31719042   3.842   5.706   8.469 -0.5329 -0.5769  0.1574
  168SAPE  H17X19043   3.741   5.669   8.498 -1.4692 -0.0347 -2.1816
  168SAPE  H17Y19044   3.814   5.804   8.426  2.5952 -0.0695 -0.9733
  168SAPE  C31819045   3.937   5.734   8.591  0.0160 -0.3833  0.1422
  168SAPE  H18X19046   4.027   5.788   8.556  0.0674  0.3377  1.3203
  168SAPE  H18Y19047   3.972   5.644   8.645  0.2685 -1.8026 -2.2246
  168SAPE  H18Z19048   3.880   5.808   8.652  1.0884  0.8083 -0.2540
  169SAPE     N19049   1.892   0.345   6.171  0.2840 -0.6767  0.0776
  169SAPE   HN119050   1.988   0.340   6.131  0.8198 -1.6071  1.4127
  169SAPE   HN219051   1.870   0.273   6.243 -0.4632 -1.9370 -1.3529
  169SAPE   HN319052   1.818   0.343   6.097  0.9713 -1.6474 -0.6157
  169SAPE   C1219053   1.877   0.472   6.241  0.4519 -0.5366  0.1701
  169SAPE  H12A19054   1.822   0.452   6.335  0.6890  1.3621  0.7577
  169SAPE  H12B19055   1.809   0.530   6.175  1.1452 -2.9312 -2.8847
  169SAPE   C1119056   2.005   0.531   6.283  0.6690  0.4433  0.9248
  169SAPE  H11A19057   2.064   0.452   6.334 -1.4219 -3.2787 -1.9934
  169SAPE  H11B19058   2.005   0.622   6.347  1.9040  1.2359 -0.1554
  169SAPE     P19059   2.114   0.693   6.110  0.4922 -0.2198 -0.2735
  169SAPE   O1319060   2.192   0.676   5.984 -0.5145  0.1060  0.2204
  169SAPE   O1419061   1.986   0.770   6.086 -0.0575  0.1529 -0.1995
  169SAPE   O1219062   2.079   0.556   6.168 -0.2302  0.4080  0.1734
  169SAPE   O1119063   2.200   0.774   6.217  0.2561 -0.1597  0.2289
  169SAPE    C119064   2.334   0.740   6.243  0.1861  0.4746 -0.6594
  169SAPE    HA19065   2.368   0.662   6.171  0.2193 -1.3227  1.2150
  169SAPE    HB19066   2.398   0.829   6.226  2.4422 -1.2717 -1.8201
  169SAPE    C219067   2.346   0.683   6.386  0.4836  0.0265  0.0325
  169SAPE    HS19068   2.451   0.694   6.422  0.1252  0.8022  0.8945
  169SAPE   O2119069   2.304   0.542   6.387 -0.1564 -0.0770  0.3713
  169SAPE   C2119070   2.382   0.460   6.332  0.0930 -0.3014  0.1313
  169SAPE   O2219071   2.495   0.482   6.281  0.0128  0.4910 -0.0406
  169SAPE   C2219072   2.318   0.316   6.332 -0.4839 -0.5981 -0.7135
  169SAPE   H2R19073   2.261   0.309   6.427 -2.0684  0.7397 -1.5108
  169SAPE   H2S19074   2.261   0.313   6.236  0.5026 -1.6633 -1.2950
  169SAPE    C319075   2.252   0.762   6.488  0.3570  0.7025 -0.2475
  169SAPE    HX19076   2.143   0.748   6.474  0.0652  0.5720  1.8184
  169SAPE    HY19077   2.264   0.873   6.484  0.6118  0.9389  3.4525
  169SAPE   O3119078   2.299   0.725   6.619  1.0521 -0.3583 -0.1575
  169SAPE   C3119079   2.218   0.749   6.721  0.6770 -0.9537 -0.9063
  169SAPE   O3219080   2.115   0.818   6.720 -0.3834 -0.3835  0.4425
  169SAPE   C3219081   2.264   0.668   6.845  0.3606 -0.8059  0.4312
  169SAPE   H2X19082   2.351   0.723   6.887  0.1455 -0.1490  0.0237
  169SAPE   H2Y19083   2.295   0.567   6.810 -0.2925 -0.0900 -2.4760
  169SAPE   C2319084   2.425   0.203   6.330  0.8981 -0.2904 -0.7373
  169SAPE   H3R19085   2.487   0.216   6.239 -0.0053 -3.4558 -1.9220
  169SAPE   H3S19086   2.362   0.111   6.325  0.1401  0.0526  1.3063
  169SAPE   C2419087   2.518   0.190   6.451 -0.1239 -0.6799 -0.2455
  169SAPE   H4R19088   2.565   0.288   6.473 -3.5258  1.4380 -1.5080
  169SAPE   H4S19089   2.583   0.100   6.440  2.1806  0.6886  1.3300
  169SAPE   C2519090   2.437   0.165   6.577 -0.0073 -0.2960  0.3155
  169SAPE   H5R19091   2.338   0.118   6.560  0.5092 -1.2611 -0.1404
  169SAPE   C2619092   2.446   0.224   6.701 -0.0328  0.6428  0.0775
  169SAPE   H6R19093   2.372   0.203   6.780  0.2690  2.4452  0.8879
  169SAPE   C2719094   2.556   0.320   6.749 -0.2615 -0.2441 -0.4239
  169SAPE   H7R19095   2.661   0.284   6.737 -0.0451  0.0902  0.3662
  169SAPE   H7S19096   2.529   0.338   6.855 -1.7736  0.8128 -0.9697
  169SAPE   C2819097   2.553   0.451   6.681 -0.0609  0.0812  0.0603
  169SAPE   H8R19098   2.450   0.490   6.671  0.8416  2.2042 -1.7165
  169SAPE   C2919099   2.649   0.536   6.646  0.1738  0.0415 -0.8806
  169SAPE   H9R19100   2.622   0.642   6.631 -0.7840  0.0124  0.4815
  169SAPE  C21019101   2.798   0.518   6.660  0.6421  0.7472 -0.3173
  169SAPE  H10R19102   2.847   0.507   6.561  0.5389 -1.1342 -0.1955
  169SAPE  H10S19103   2.810   0.426   6.722 -1.0363  1.2545  0.8457
  169SAPE  C21119104   2.860   0.632   6.738 -0.2152 -0.0084  0.1766
  169SAPE  H11R19105   2.943   0.679   6.683  1.0088  1.2503  2.8695
  169SAPE  C21219106   2.848   0.667   6.867  0.0377 -0.6521  0.1909
  169SAPE  H12R19107   2.920   0.742   6.903 -0.5140  0.3656 -0.7778
  169SAPE  C21319108   2.773   0.596   6.980  0.4865  0.5378 -0.1216
  169SAPE  H13R19109   2.838   0.595   7.069  1.6765 -1.7175 -0.9372
  169SAPE  H13S19110   2.746   0.492   6.951  0.7055  0.8691 -1.6004
  169SAPE  C21419111   2.646   0.672   7.025  0.0926 -0.0216  0.8022
  169SAPE  H14R19112   2.564   0.680   6.952 -0.2083  3.3144  1.3644
  169SAPE  C21519113   2.610   0.714   7.150 -0.0070  0.3808  0.0348
  169SAPE  H15R19114   2.518   0.772   7.165 -0.6024 -0.7615  0.9165
  169SAPE  C21619115   2.686   0.697   7.277 -0.0976 -0.5314  0.6840
  169SAPE  H16R19116   2.759   0.778   7.296 -0.2923 -0.3603  0.7046
  169SAPE  H16S19117   2.753   0.610   7.264  0.0111 -0.1578 -1.9533
  169SAPE  C21719118   2.591   0.687   7.391  0.1524 -0.1958  0.2089
  169SAPE  H17R19119   2.519   0.605   7.372  0.6796 -0.6800  0.2776
  169SAPE  H17S19120   2.541   0.785   7.405 -1.4205 -1.0473  0.8261
  169SAPE  C21819121   2.662   0.638   7.519  0.1719  0.2546 -0.3602
  169SAPE  H18R19122   2.746   0.570   7.495  0.3142  0.2712  0.0725
  169SAPE  H18S19123   2.590   0.590   7.588  1.8138  1.3604  2.3149
  169SAPE  C21919124   2.715   0.759   7.599 -0.2368  0.4874 -0.2748
  169SAPE  H19R19125   2.633   0.833   7.613  1.3760  2.0670  1.5440
  169SAPE  H19S19126   2.799   0.799   7.538  1.8421 -1.9555  0.7934
  169SAPE  C22019127   2.754   0.718   7.740 -0.2708 -0.1378  0.1121
  169SAPE  H20R19128   2.671   0.656   7.780  0.9019 -1.2529  0.9035
  169SAPE  H20S19129   2.792   0.791   7.815 -0.2732 -0.4956  0.4692
  169SAPE  H20T19130   2.832   0.639   7.733 -2.7080 -3.0366  2.6596
  169SAPE   C3319131   2.154   0.670   6.956  0.2968  0.1103 -0.5116
  169SAPE   H3X19132   2.060   0.625   6.918 -1.7499  4.0991 -0.6870
  169SAPE   H3Y19133   2.132   0.772   6.993  0.9775  0.1149 -0.0896
  169SAPE   C3419134   2.174   0.577   7.077  0.7058 -0.2541 -0.1443
  169SAPE   H4X19135   2.259   0.604   7.143  1.3988 -0.5240 -0.9029
  169SAPE   H4Y19136   2.198   0.482   7.024  2.8561  1.8116 -3.2536
  169SAPE   C3519137   2.043   0.566   7.176 -0.1583  0.1419 -0.5318
  169SAPE   H5X19138   2.053   0.471   7.234 -0.0043  0.5323  0.0850
  169SAPE   H5Y19139   1.955   0.565   7.108  0.6563  0.8333 -1.6319
  169SAPE   C3619140   2.022   0.688   7.273 -0.2218 -0.1904  0.3572
  169SAPE   H6X19141   1.912   0.694   7.290 -0.1730  1.0507  0.3016
  169SAPE   H6Y19142   2.062   0.782   7.230  1.6187 -0.7800  0.6756
  169SAPE   C3719143   2.079   0.676   7.420  0.3845  0.3914 -0.0753
  169SAPE   H7X19144   2.035   0.588   7.472  0.5258 -0.3819 -1.2234
  169SAPE   H7Y19145   2.036   0.760   7.478  0.5277  1.6226 -1.6885
  169SAPE   C3819146   2.232   0.680   7.426  0.8352 -1.0429  0.2934
  169SAPE   H8X19147   2.270   0.778   7.389  1.8766 -0.5551  2.5240
  169SAPE   H8Y19148   2.282   0.595   7.376  0.1247 -1.2586 -0.0556
  169SAPE   C3919149   2.274   0.666   7.571 -0.0793 -0.1428  0.1431
  169SAPE   H9X19150   2.375   0.621   7.563 -0.3802 -0.6690 -0.9839
  169SAPE   H9Y19151   2.218   0.587   7.626  0.3942  0.0726  0.9480
  169SAPE  C31019152   2.265   0.799   7.652 -0.0867 -0.2624 -0.0921
  169SAPE  H10X19153   2.171   0.853   7.625  0.1982  0.5573  0.5284
  169SAPE  H10Y19154   2.345   0.851   7.595  0.6536 -2.7727 -1.4932
  169SAPE  C31119155   2.303   0.785   7.802  0.4520 -0.0834 -0.8588
  169SAPE  H11X19156   2.348   0.880   7.840 -0.3296 -0.5939  1.5194
  169SAPE  H11Y19157   2.381   0.707   7.814  1.9386  1.6998  2.5695
  169SAPE  C31219158   2.177   0.737   7.877 -0.3153  0.0533 -0.8207
  169SAPE  H12X19159   2.147   0.644   7.824 -1.3159  0.2851 -0.6895
  169SAPE  H12Y19160   2.100   0.817   7.864  1.5422  1.8446 -1.4184
  169SAPE  C31319161   2.201   0.734   8.029  0.4999  0.3911 -0.4127
  169SAPE  H13X19162   2.245   0.832   8.056 -0.5133  0.5234  0.8669
  169SAPE  H13Y19163   2.286   0.664   8.044 -0.3416 -0.0927  2.9904
  169SAPE  C31419164   2.089   0.688   8.118  0.7110  0.0306 -0.2769
  169SAPE  H14X19165   2.081   0.579   8.096 -1.1359  0.5329 -2.3993
  169SAPE  H14Y19166   1.994   0.740   8.097  0.5177 -0.5244 -0.7860
  169SAPE  C31519167   2.119   0.705   8.269  0.4895 -0.6520  0.4038
  169SAPE  H15X19168   2.021   0.717   8.322  0.6893  1.1854  0.4256
  169SAPE  H15Y19169   2.173   0.799   8.294 -0.4433 -0.2357  0.9254
  169SAPE  C31619170   2.186   0.578   8.312  0.2670 -0.9579 -0.1165
  169SAPE  H16X19171   2.290   0.579   8.272  0.5250 -3.0502  0.3664
  169SAPE  H16Y19172   2.123   0.491   8.283  0.3235 -1.0039 -0.1021
  169SAPE  C31719173   2.208   0.581   8.465  0.4605  0.0140 -0.2684
  169SAPE  H17X19174   2.104   0.594   8.502  0.7177 -0.0249  0.4872
  169SAPE  H17Y19175   2.263   0.674   8.489  1.4854 -0.6756  0.1123
  169SAPE  C31819176   2.295   0.468   8.513 -0.0502 -0.3872  0.7416
  169SAPE  H18X19177   2.250   0.369   8.487 -0.4422 -0.4023  1.4372
  169SAPE  H18Y19178   2.305   0.464   8.624  1.2957  3.7172  0.9111
  169SAPE  H18Z19179   2.392   0.460   8.460 -0.0194 -2.7704  1.0486
  170SAPE     N19180   3.201   4.296   6.194 -0.2007 -0.4388  0.0330
  170SAPE   HN119181   3.235   4.338   6.105 -1.8896 -0.3064 -0.5950
  170SAPE   HN219182   3.193   4.193   6.192 -3.5528 -0.2917  0.3288
  170SAPE   HN319183   3.103   4.330   6.206  0.6247  1.5728  1.6698
  170SAPE   C1219184   3.270   4.371   6.302 -0.1979  0.2296 -0.3027
  170SAPE  H12A19185   3.357   4.311   6.333 -0.8987 -1.3399 -1.2626
  170SAPE  H12B19186   3.206   4.379   6.393 -0.2926  0.7395 -0.4075
  170SAPE   C1119187   3.325   4.507   6.268 -0.5435  0.2760 -0.0102
  170SAPE  H11A19188   3.382   4.556   6.350  0.2394  1.5578 -1.2709
  170SAPE  H11B19189   3.234   4.565   6.244 -0.9855 -0.7203 -0.8463
  170SAPE     P19190   3.536   4.437   6.112 -0.1137  0.4113  0.0912
  170SAPE   O1319191   3.528   4.300   6.059  0.5123  0.3084  0.1237
  170SAPE   O1419192   3.601   4.541   6.024  0.2839 -0.6832  0.1440
  170SAPE   O1219193   3.396   4.498   6.150  0.5647  0.7987  0.3346
  170SAPE   O1119194   3.617   4.438   6.248  0.3398 -0.0248  0.6145
  170SAPE    C119195   3.652   4.560   6.301 -0.0742 -0.5555  0.5158
  170SAPE    HA19196   3.738   4.602   6.244 -1.1668  3.0264  1.2903
  170SAPE    HB19197   3.572   4.637   6.297  0.6744  0.3392  1.7645
  170SAPE    C219198   3.689   4.541   6.454  0.0690  0.5321 -0.0699
  170SAPE    HS19199   3.761   4.457   6.446 -0.7622 -0.4241  1.7798
  170SAPE   O2119200   3.569   4.518   6.530 -0.5143 -0.0691  0.1342
  170SAPE   C2119201   3.581   4.437   6.634  0.3268  0.7272  0.6486
  170SAPE   O2219202   3.690   4.390   6.669 -0.1269 -0.1563  0.4225
  170SAPE   C2219203   3.452   4.408   6.705 -0.0656  0.4845 -0.3853
  170SAPE   H2R19204   3.454   4.498   6.771  4.0600  1.9877 -2.1814
  170SAPE   H2S19205   3.357   4.411   6.648 -0.1309  1.5205 -0.2567
  170SAPE    C319206   3.760   4.672   6.514 -0.5648  0.4353  0.3893
  170SAPE    HX19207   3.685   4.754   6.506 -0.5841  0.5010  1.1957
  170SAPE    HY19208   3.836   4.707   6.441 -0.3759 -0.7906 -0.0315
  170SAPE   O3119209   3.805   4.664   6.652  0.1293  0.0867  0.3148
  170SAPE   C3119210   3.902   4.580   6.667 -0.0309  0.1826 -0.2700
  170SAPE   O3219211   3.971   4.532   6.579 -0.2067  0.4472  0.8096
  170SAPE   C3219212   3.906   4.543   6.814 -0.2940 -0.0029  0.4202
  170SAPE   H2X19213   3.929   4.434   6.814  1.4512  0.3451 -0.3283
  170SAPE   H2Y19214   3.804   4.549   6.859 -1.0130 -0.3657 -1.0927
  170SAPE   C2319215   3.455   4.274   6.789  0.1810 -0.2359 -0.1156
  170SAPE   H3R19216   3.558   4.258   6.827 -0.1543 -2.4475 -0.0342
  170SAPE   H3S19217   3.451   4.190   6.717  5.5989 -0.6284 -0.3370
  170SAPE   C2419218   3.372   4.299   6.912 -0.0881  0.2109  0.4203
  170SAPE   H4R19219   3.269   4.326   6.880  0.3259  0.5004 -0.6948
  170SAPE   H4S19220   3.411   4.393   6.957  1.7438 -0.3733  0.1177
  170SAPE   C2519221   3.368   4.187   7.013 -0.2669  0.5145 -0.5770
  170SAPE   H5R19222   3.298   4.105   6.991 -0.3067  1.0836 -2.9009
  170SAPE   C2619223   3.444   4.182   7.122  0.3665  0.2521  0.3910
  170SAPE   H6R19224   3.427   4.096   7.188 -1.2535  0.1374 -0.1363
  170SAPE   C2719225   3.533   4.287   7.176  0.1881 -0.1627 -0.2429
  170SAPE   H7R19226   3.475   4.317   7.267  1.1638  1.7050 -0.1788
  170SAPE   H7S19227   3.550   4.376   7.112  2.0290  0.8416  1.5028
  170SAPE   C2819228   3.668   4.231   7.205 -0.2596  0.0028 -0.3341
  170SAPE   H8R19229   3.703   4.152   7.137  2.8162  1.3216 -0.4253
  170SAPE   C2919230   3.747   4.268   7.308  0.0110 -0.5254 -0.0198
  170SAPE   H9R19231   3.836   4.206   7.326 -0.5963 -0.3714  4.8699
  170SAPE  C21019232   3.709   4.366   7.423  0.0403 -0.1424  0.1089
  170SAPE  H10R19233   3.600   4.360   7.446  0.2912  0.5310  1.6019
  170SAPE  H10S19234   3.725   4.471   7.393  1.7564 -0.4373 -0.0662
  170SAPE  C21119235   3.800   4.336   7.545  0.5315  0.2322  0.1104
  170SAPE  H11R19236   3.903   4.309   7.517 -0.1452 -2.2042 -0.3037
  170SAPE  C21219237   3.763   4.321   7.673 -0.1531  0.7518  0.1019
  170SAPE  H12R19238   3.841   4.305   7.749 -1.3222 -2.2628  0.7998
  170SAPE  C21319239   3.633   4.312   7.727  0.2809 -1.1023 -0.5221
  170SAPE  H13R19240   3.612   4.212   7.772 -3.5750 -0.0656  0.3822
  170SAPE  H13S19241   3.554   4.330   7.651 -2.5575  0.6957  2.5556
  170SAPE  C21419242   3.614   4.417   7.834  0.3592 -0.6285 -0.2386
  170SAPE  H14R19243   3.559   4.510   7.811  2.1388  1.4415  3.0340
  170SAPE  C21519244   3.658   4.419   7.961 -0.7043 -0.2802 -0.4219
  170SAPE  H15R19245   3.630   4.503   8.026  1.3976  0.9059 -0.9612
  170SAPE  C21619246   3.748   4.318   8.025  0.0392 -0.3691  0.1396
  170SAPE  H16R19247   3.846   4.323   7.973 -0.4167 -1.0025 -0.7946
  170SAPE  H16S19248   3.716   4.214   8.001 -1.2527  0.1293 -0.3646
  170SAPE  C21719249   3.773   4.344   8.179  0.2925  0.4168  0.4485
  170SAPE  H17R19250   3.802   4.448   8.205  0.6340  0.5229 -0.3274
  170SAPE  H17S19251   3.855   4.277   8.211 -2.1796 -2.4739  1.2045
  170SAPE  C21819252   3.649   4.306   8.258  0.7163  0.5953  0.1194
  170SAPE  H18R19253   3.606   4.212   8.218 -0.9886  1.0665  0.7603
  170SAPE  H18S19254   3.568   4.380   8.238  1.5009  1.7441  1.0582
  170SAPE  C21919255   3.674   4.291   8.411 -0.7353  0.6315 -0.1360
  170SAPE  H19R19256   3.709   4.389   8.452  0.1188 -0.7957  2.8146
  170SAPE  H19S19257   3.757   4.219   8.401  0.0486  1.7656 -2.7594
  170SAPE  C22019258   3.565   4.229   8.495  0.0935 -0.0387 -0.3245
  170SAPE  H20R19259   3.530   4.130   8.458 -0.1730  0.2914 -0.9730
  170SAPE  H20S19260   3.478   4.296   8.485 -0.7408 -0.9218  0.6960
  170SAPE  H20T19261   3.602   4.211   8.598 -1.5800  0.1642  0.3349
  170SAPE   C3319262   3.989   4.634   6.910 -0.5172 -0.1715 -0.3283
  170SAPE   H3X19263   3.969   4.741   6.891  1.3838  0.1222 -0.8470
  170SAPE   H3Y19264   4.096   4.615   6.890 -0.9178 -0.5982 -2.2714
  170SAPE   C3419265   3.962   4.581   7.052  0.3195 -0.2773  0.6213
  170SAPE   H4X19266   3.988   4.473   7.056 -1.2930 -0.7030  0.3292
  170SAPE   H4Y19267   3.853   4.586   7.072  0.1286  0.9007 -0.5567
  170SAPE   C3519268   4.041   4.658   7.160  0.1241  0.3421 -0.0892
  170SAPE   H5X19269   4.050   4.765   7.134 -1.3547  0.8690  1.3835
  170SAPE   H5Y19270   4.140   4.608   7.167 -1.5647 -3.3397 -0.2018
  170SAPE   C3619271   3.974   4.634   7.296  0.0286 -0.2253 -0.1507
  170SAPE   H6X19272   3.962   4.524   7.302  0.4530 -0.2662  0.0149
  170SAPE   H6Y19273   3.877   4.684   7.315 -0.1420  0.0459 -1.6403
  170SAPE   C3719274   4.073   4.678   7.408 -0.2030  0.9188  0.2079
  170SAPE   H7X19275   4.101   4.786   7.405 -1.4053  1.2485  0.6083
  170SAPE   H7Y19276   4.168   4.624   7.389 -0.1648  0.7932  0.7663
  170SAPE   C3819277   4.013   4.649   7.542  0.1997  0.0389 -0.5112
  170SAPE   H8X19278   3.995   4.539   7.544 -0.8162  0.1491 -1.9703
  170SAPE   H8Y19279   3.912   4.695   7.546  0.0657 -0.3227  1.5099
  170SAPE   C3919280   4.091   4.695   7.670 -0.2721  0.5406 -0.1126
  170SAPE   H9X19281   4.124   4.800   7.655  1.2161 -0.0396 -1.1650
  170SAPE   H9Y19282   4.185   4.636   7.665 -0.4710 -0.0401  2.0635
  170SAPE  C31019283   4.017   4.645   7.789 -0.1573  0.6170  0.8372
  170SAPE  H10X19284   3.994   4.537   7.800  0.1749  0.5501  0.8563
  170SAPE  H10Y19285   3.921   4.701   7.801  0.0335  1.1158  0.0961
  170SAPE  C31119286   4.085   4.687   7.927 -0.1840  0.0655  0.0003
  170SAPE  H11X19287   4.086   4.798   7.928  2.1721  0.1098  2.1949
  170SAPE  H11Y19288   4.189   4.650   7.919 -0.7632 -1.6214 -0.2196
  170SAPE  C31219289   4.018   4.627   8.059 -0.1617 -0.0135 -0.3307
  170SAPE  H12X19290   4.031   4.518   8.079 -1.2463  0.2274  2.0077
  170SAPE  H12Y19291   3.910   4.646   8.046 -0.0420  1.0936  0.1957
  170SAPE  C31319292   4.076   4.706   8.178  0.0752 -0.3283 -0.3834
  170SAPE  H13X19293   4.042   4.812   8.171  0.7584  0.0934  1.8573
  170SAPE  H13Y19294   4.186   4.705   8.165  0.2082  2.4639 -0.1800
  170SAPE  C31419295   4.019   4.653   8.305 -0.7896 -0.7302  0.6439
  170SAPE  H14X19296   4.018   4.542   8.307  1.2491 -0.8476 -1.4957
  170SAPE  H14Y19297   3.919   4.692   8.332 -1.1853  0.1277 -1.8573
  170SAPE  C31519298   4.115   4.704   8.419  0.2504  0.4766 -0.1883
  170SAPE  H15X19299   4.126   4.814   8.419  1.4404  0.3906  1.4955
  170SAPE  H15Y19300   4.212   4.657   8.394  1.2377  1.9002  0.8425
  170SAPE  C31619301   4.074   4.651   8.561 -0.2037 -0.2447 -0.8788
  170SAPE  H16X19302   4.077   4.540   8.564 -1.7427 -0.3446  2.8028
  170SAPE  H16Y19303   3.967   4.677   8.573 -0.3415  0.0368 -2.5257
  170SAPE  C31719304   4.148   4.715   8.677  0.3401 -0.1852 -0.5748
  170SAPE  H17X19305   4.105   4.690   8.776  1.7360 -0.8534 -0.1088
  170SAPE  H17Y19306   4.143   4.824   8.656 -2.5982 -0.1595 -0.2023
  170SAPE  C31819307   4.286   4.654   8.677  0.0831  0.1102 -1.1969
  170SAPE  H18X19308   4.346   4.691   8.592  1.4335  2.1440  0.5126
  170SAPE  H18Y19309   4.275   4.544   8.674 -3.5221  0.3603 -1.8655
  170SAPE  H18Z19310   4.338   4.684   8.771  0.5934 -1.1612 -1.0529
  171SAPE     N19311   5.273   5.663   6.281  0.0556 -0.5558 -0.5763
  171SAPE   HN119312   5.220   5.588   6.234 -0.8327 -0.0343 -0.4330
  171SAPE   HN219313   5.301   5.653   6.381  2.3966  0.6220 -1.0373
  171SAPE   HN319314   5.224   5.754   6.272 -1.1838 -1.1186  0.2704
  171SAPE   C1219315   5.409   5.682   6.212 -0.6972  0.1267  0.1397
  171SAPE  H12A19316   5.470   5.751   6.273  1.3758  0.6495 -2.3240
  171SAPE  H12B19317   5.386   5.729   6.114 -0.7705  0.3816  0.2785
  171SAPE   C1119318   5.486   5.543   6.208  0.2374  0.0969 -0.4577
  171SAPE  H11A19319   5.452   5.479   6.124 -0.6306  0.4883 -0.4102
  171SAPE  H11B19320   5.468   5.484   6.300  2.2793 -2.4257 -1.5555
  171SAPE     P19321   5.735   5.460   6.208  0.0926  0.2698 -0.1531
  171SAPE   O1319322   5.690   5.334   6.146 -0.0590 -0.5717 -0.2685
  171SAPE   O1419323   5.866   5.509   6.171  0.0208  0.2339 -0.0290
  171SAPE   O1219324   5.630   5.568   6.173  0.1674 -0.3728 -0.2092
  171SAPE   O1119325   5.726   5.444   6.366  0.5006  0.0696  0.7053
  171SAPE    C119326   5.727   5.563   6.443  0.5472  0.3888  0.2389
  171SAPE    HA19327   5.827   5.602   6.473  1.2616 -1.1915  0.0708
  171SAPE    HB19328   5.681   5.650   6.392 -0.6248  1.2924  2.6975
  171SAPE    C219329   5.653   5.533   6.577  0.1325  0.4571 -0.2110
  171SAPE    HS19330   5.555   5.485   6.557  0.8104 -1.5010  0.9189
  171SAPE   O2119331   5.645   5.660   6.647  0.2559  0.0607  0.2375
  171SAPE   C2119332   5.532   5.719   6.605  0.2940  0.4402  0.2216
  171SAPE   O2219333   5.460   5.686   6.516 -0.2561 -0.2483 -0.3358
  171SAPE   C2219334   5.514   5.842   6.689 -0.4481  0.4753 -0.6249
  171SAPE   H2R19335   5.608   5.901   6.684 -1.8507  3.0445  0.9237
  171SAPE   H2S19336   5.435   5.907   6.647 -0.8072  1.8494  1.9491
  171SAPE    C319337   5.735   5.432   6.663 -0.3122 -0.2847 -0.5907
  171SAPE    HX19338   5.838   5.473   6.652 -0.5331 -0.1268 -2.3533
  171SAPE    HY19339   5.739   5.331   6.617  1.8835 -0.5034 -0.0231
  171SAPE   O3119340   5.705   5.432   6.805 -0.3938  0.3718 -0.3301
  171SAPE   C3119341   5.591   5.371   6.836 -0.0794 -0.5416  0.0039
  171SAPE   O3219342   5.521   5.306   6.763  0.0595  0.6641 -0.1458
  171SAPE   C3219343   5.550   5.394   6.989 -0.8666  0.5424 -0.4352
  171SAPE   H2X19344   5.533   5.501   7.016 -2.1045 -0.1786  1.8563
  171SAPE   H2Y19345   5.641   5.354   7.039 -2.7479 -5.5822 -1.1682
  171SAPE   C2319346   5.473   5.817   6.835  0.1638  0.4908 -0.5337
  171SAPE   H3R19347   5.385   5.750   6.846  0.3014 -0.1204 -2.7604
  171SAPE   H3S19348   5.439   5.918   6.865 -2.4698  0.4962 -3.0986
  171SAPE   C2419349   5.592   5.776   6.936  0.2505 -0.7801  0.4685
  171SAPE   H4R19350   5.643   5.688   6.891  1.8537 -0.2154  1.0825
  171SAPE   H4S19351   5.549   5.732   7.028 -0.1290 -0.3283  0.5121
  171SAPE   C2519352   5.698   5.877   6.960  0.2976 -0.7084 -0.1512
  171SAPE   H5R19353   5.772   5.894   6.881  0.7428  1.8779  0.6995
  171SAPE   C2619354   5.698   5.950   7.074 -0.5297  0.3996  0.4085
  171SAPE   H6R19355   5.779   6.024   7.074 -0.1018 -0.0551 -0.4100
  171SAPE   C2719356   5.595   5.958   7.185 -0.6589  0.3660  0.5626
  171SAPE   H7R19357   5.624   5.889   7.266 -0.3136 -0.6780 -0.4172
  171SAPE   H7S19358   5.496   5.927   7.143  0.6884 -0.4511 -2.3059
  171SAPE   C2819359   5.589   6.106   7.221  0.4878  0.3941 -0.5441
  171SAPE   H8R19360   5.581   6.181   7.141 -1.3043  1.4634  0.5664
  171SAPE   C2919361   5.610   6.151   7.344  0.8491  0.0271 -0.6125
  171SAPE   H9R19362   5.605   6.260   7.360  0.6206  0.0161 -0.5926
  171SAPE  C21019363   5.648   6.077   7.473  0.2222 -0.3461 -0.4599
  171SAPE  H10R19364   5.674   5.971   7.451 -1.6424 -0.6636 -1.2618
  171SAPE  H10S19365   5.553   6.086   7.529  0.1993  0.5841 -0.6307
  171SAPE  C21119366   5.758   6.120   7.567 -0.0897  1.3258  0.3317
  171SAPE  H11R19367   5.807   6.214   7.537 -0.2689  0.9234 -1.2632
  171SAPE  C21219368   5.778   6.088   7.701  0.0552 -0.4801  0.9494
  171SAPE  H12R19369   5.869   6.130   7.748 -0.1000 -0.2078  1.0104
  171SAPE  C21319370   5.690   5.992   7.778  0.1467  0.7940 -0.2774
  171SAPE  H13R19371   5.630   5.928   7.710  2.9624 -2.2716 -0.1550
  171SAPE  H13S19372   5.618   6.051   7.838 -1.3838  0.7306 -1.9760
  171SAPE  C21419373   5.785   5.909   7.871  0.1934 -0.0185  0.1312
  171SAPE  H14R19374   5.864   5.864   7.810  0.4758  1.8764 -1.0085
  171SAPE  C21519375   5.795   5.902   8.006 -0.1317 -0.9350 -0.3454
  171SAPE  H15R19376   5.883   5.848   8.043  1.3035 -0.9228 -3.4528
  171SAPE  C21619377   5.715   5.980   8.108 -0.4139  0.2189 -0.3759
  171SAPE  H16R19378   5.640   6.045   8.056 -1.0926  1.8435  2.4327
  171SAPE  H16S19379   5.775   6.040   8.179  1.3011 -2.3980  0.4963
  171SAPE  C21719380   5.629   5.887   8.199  0.2447  0.0955 -0.1705
  171SAPE  H17R19381   5.592   5.935   8.292  0.5083 -0.2020  0.0886
  171SAPE  H17S19382   5.701   5.808   8.232  0.1123 -0.4474 -1.1349
  171SAPE  C21819383   5.510   5.828   8.133  0.3454  0.3147 -0.4646
  171SAPE  H18R19384   5.534   5.754   8.053 -2.0525  0.2249 -1.1525
  171SAPE  H18S19385   5.456   5.909   8.080  3.5474  2.8698 -0.1348
  171SAPE  C21919386   5.406   5.761   8.232  0.0961  0.1024  0.3952
  171SAPE  H19R19387   5.467   5.718   8.314  2.7445  2.0706 -0.4200
  171SAPE  H19S19388   5.331   5.701   8.176 -1.0319  0.3765  1.5666
  171SAPE  C22019389   5.318   5.874   8.291  0.1228 -0.3185 -0.3080
  171SAPE  H20R19390   5.372   5.951   8.351 -0.5333 -1.9818  2.6238
  171SAPE  H20S19391   5.235   5.841   8.357  0.0771 -0.7527 -0.5808
  171SAPE  H20T19392   5.274   5.932   8.207  1.5774 -1.0943 -1.6451
  171SAPE   C3319393   5.429   5.308   7.044  0.3777 -0.4897  0.5419
  171SAPE   H3X19394   5.447   5.203   7.012  2.6399  0.1303 -0.4756
  171SAPE   H3Y19395   5.333   5.341   6.998  0.1729 -0.1144  1.2362
  171SAPE   C3419396   5.405   5.324   7.192  0.1521 -0.2437 -1.0712
  171SAPE   H4X19397   5.310   5.272   7.217 -1.1287 -0.3681 -5.3593
  171SAPE   H4Y19398   5.398   5.434   7.200 -1.1983 -0.4248  1.4937
  171SAPE   C3519399   5.513   5.279   7.292 -0.5970 -0.1310 -0.1158
  171SAPE   H5X19400   5.616   5.295   7.253 -0.4046 -1.1953 -0.0717
  171SAPE   H5Y19401   5.504   5.170   7.309  1.5328 -0.5637 -1.3397
  171SAPE   C3619402   5.507   5.339   7.430  0.5861  0.6132 -0.6014
  171SAPE   H6X19403   5.567   5.282   7.505 -2.4678 -1.6552  0.3309
  171SAPE   H6Y19404   5.402   5.332   7.467  0.8310  0.1037  0.0143
  171SAPE   C3719405   5.554   5.487   7.433  0.8015 -0.6853  0.3427
  171SAPE   H7X19406   5.499   5.545   7.356 -2.9036 -2.5889  1.3441
  171SAPE   H7Y19407   5.661   5.495   7.404  0.1761  1.7855 -1.6176
  171SAPE   C3819408   5.524   5.550   7.569  0.1265 -0.1392 -0.0838
  171SAPE   H8X19409   5.424   5.515   7.601 -0.4247  1.2080 -0.2354
  171SAPE   H8Y19410   5.523   5.659   7.546 -0.8390 -0.3277 -0.9990
  171SAPE   C3919411   5.621   5.516   7.688 -0.1030  0.2228  0.0272
  171SAPE   H9X19412   5.628   5.405   7.697 -1.0853 -0.1337 -2.6137
  171SAPE   H9Y19413   5.585   5.546   7.789  0.1423  1.2457 -0.1767
  171SAPE  C31019414   5.759   5.568   7.672 -0.1276  0.0910 -0.1826
  171SAPE  H10X19415   5.749   5.679   7.670  1.5979  0.2873  0.5988
  171SAPE  H10Y19416   5.819   5.526   7.589 -0.3040  1.1829 -0.8791
  171SAPE  C31119417   5.857   5.549   7.797 -0.7666  0.0028 -0.3239
  171SAPE  H11X19418   5.802   5.589   7.885  1.3396 -1.0381  1.6089
  171SAPE  H11Y19419   5.942   5.617   7.777 -0.9352 -0.0534 -1.2514
  171SAPE  C31219420   5.897   5.409   7.822 -0.2600 -0.2747  0.9806
  171SAPE  H12X19421   5.922   5.374   7.720 -3.2142  0.5102 -0.1396
  171SAPE  H12Y19422   5.808   5.343   7.837 -0.9550  0.2606 -0.5283
  171SAPE  C31319423   6.002   5.388   7.935 -0.2496  0.3073  0.3608
  171SAPE  H13X19424   6.079   5.466   7.917  0.9297 -0.5032  1.6978
  171SAPE  H13Y19425   6.051   5.289   7.924  0.2837  0.5398  0.6016
  171SAPE  C31419426   5.934   5.404   8.072  0.0627 -0.1104 -0.2030
  171SAPE  H14X19427   5.836   5.351   8.074 -0.3686  0.6227 -1.0753
  171SAPE  H14Y19428   5.901   5.508   8.094 -3.0924 -1.2753  1.2560
  171SAPE  C31519429   6.029   5.370   8.187 -0.8454  0.1025 -0.6671
  171SAPE  H15X19430   6.129   5.417   8.186 -0.7804  0.1185  1.8242
  171SAPE  H15Y19431   6.057   5.265   8.168 -0.7044  0.0955 -0.4171
  171SAPE  C31619432   5.978   5.380   8.330 -0.1639 -0.3005  0.0331
  171SAPE  H16X19433   5.903   5.299   8.336  1.9839 -2.3633  0.4486
  171SAPE  H16Y19434   5.932   5.481   8.343 -0.3187 -0.0431 -2.0376
  171SAPE  C31719435   6.075   5.364   8.447  0.2982  0.2564 -0.0411
  171SAPE  H17X19436   6.033   5.413   8.538 -0.1991  3.4218 -1.8295
  171SAPE  H17Y19437   6.168   5.424   8.432  0.1357  0.1248 -1.8211
  171SAPE  C31819438   6.118   5.221   8.485 -0.1488  0.1496  0.4821
  171SAPE  H18X19439   6.187   5.185   8.405 -1.5919  0.2316 -0.8476
  171SAPE  H18Y19440   6.031   5.152   8.477  1.3875 -1.8440 -0.1175
  171SAPE  H18Z19441   6.171   5.226   8.582 -0.2226  0.1034  0.5244
  172SAPE     N19442   3.563   3.290   6.145 -0.0176  0.0880  0.1533
  172SAPE   HN119443   3.481   3.230   6.164  1.3623 -1.5409  1.1521
  172SAPE   HN219444   3.544   3.388   6.115  0.3895  0.0715 -0.1742
  172SAPE   HN319445   3.589   3.250   6.053 -2.1461  1.0000 -0.9207
  172SAPE   C1219446   3.671   3.254   6.244 -0.6117  0.0408 -0.1880
  172SAPE  H12A19447   3.659   3.155   6.292 -0.0450  0.5456  1.0539
  172SAPE  H12B19448   3.647   3.320   6.330 -2.6611  2.3093 -2.3441
  172SAPE   C1119449   3.813   3.284   6.198  0.4151 -0.4048 -0.0618
  172SAPE  H11A19450   3.826   3.236   6.099  1.9811  1.2467 -0.7094
  172SAPE  H11B19451   3.883   3.244   6.274  1.0182  0.6083 -0.0614
  172SAPE     P19452   3.922   3.515   6.269  0.3842 -0.1442  0.0859
  172SAPE   O1319453   4.059   3.463   6.257  0.4659 -0.1033 -0.1655
  172SAPE   O1419454   3.894   3.656   6.234  0.3161 -0.1160  0.1738
  172SAPE   O1219455   3.828   3.426   6.179  0.4396  0.2343 -0.0751
  172SAPE   O1119456   3.868   3.479   6.401 -0.2020  0.0986 -0.1452
  172SAPE    C119457   3.934   3.511   6.524 -0.0056 -0.2681 -0.6117
  172SAPE    HA19458   4.039   3.476   6.536 -0.6927 -2.0988  0.5590
  172SAPE    HB19459   3.939   3.621   6.538 -0.9569 -0.2815 -0.0771
  172SAPE    C219460   3.851   3.462   6.645 -0.2415  0.2818  0.5916
  172SAPE    HS19461   3.747   3.501   6.644 -0.5682 -0.3537 -2.6780
  172SAPE   O2119462   3.911   3.503   6.771 -0.1115 -0.1538 -0.0404
  172SAPE   C2119463   3.925   3.637   6.785  0.3169 -0.6847 -0.1248
  172SAPE   O2219464   3.864   3.725   6.724  0.0943  0.0064 -0.0004
  172SAPE   C2219465   4.027   3.671   6.894 -0.0885 -0.5916 -0.1469
  172SAPE   H2R19466   4.043   3.587   6.964 -1.2653  1.0087  2.1792
  172SAPE   H2S19467   4.120   3.699   6.840 -0.3932 -0.8979 -0.8357
  172SAPE    C319468   3.829   3.305   6.647  0.3636  0.0456 -0.5458
  172SAPE    HX19469   3.929   3.259   6.630 -0.0021 -0.5298 -1.1972
  172SAPE    HY19470   3.765   3.268   6.563 -0.9786  0.9465  0.0490
  172SAPE   O3119471   3.773   3.248   6.767  0.4303 -0.6426  0.4223
  172SAPE   C3119472   3.656   3.285   6.819 -0.1615  0.1318 -0.4825
  172SAPE   O3219473   3.578   3.359   6.769 -0.1587  0.2540  0.4073
  172SAPE   C3219474   3.654   3.241   6.965  0.1971 -0.2171 -0.2055
  172SAPE   H2X19475   3.682   3.133   6.963 -0.9244 -0.6206  2.2347
  172SAPE   H2Y19476   3.546   3.236   6.988  0.1207 -0.2857 -0.5681
  172SAPE   C2319477   3.985   3.791   6.977 -0.3153 -0.3262 -0.1892
  172SAPE   H3R19478   3.940   3.873   6.918 -1.8327 -1.0337 -0.0528
  172SAPE   H3S19479   4.080   3.830   7.020 -0.0290  2.3082 -2.8890
  172SAPE   C2419480   3.890   3.758   7.100 -0.6646 -0.2612  0.1226
  172SAPE   H4R19481   3.947   3.694   7.170  1.9163  0.3289 -1.3090
  172SAPE   H4S19482   3.796   3.711   7.062 -1.3195  0.6238  0.6143
  172SAPE   C2519483   3.858   3.880   7.180 -0.4981 -0.1588 -0.0844
  172SAPE   H5R19484   3.830   3.969   7.122 -0.4617 -1.3507 -2.0157
  172SAPE   C2619485   3.855   3.899   7.317 -0.0538  0.0392  0.0645
  172SAPE   H6R19486   3.828   3.997   7.359  0.8869 -0.1661  1.2068
  172SAPE   C2719487   3.872   3.805   7.426 -0.2524  0.4010 -0.5406
  172SAPE   H7R19488   3.846   3.707   7.381 -0.1763 -0.3100  0.9170
  172SAPE   H7S19489   3.797   3.828   7.505  1.4881 -1.5452  1.8483
  172SAPE   C2819490   4.017   3.802   7.473 -0.8362  0.5963  0.0787
  172SAPE   H8R19491   4.096   3.808   7.397 -3.2004  3.2795 -2.4089
  172SAPE   C2919492   4.049   3.803   7.602  0.0681 -0.5538  0.5321
  172SAPE   H9R19493   4.153   3.808   7.638 -0.3592 -1.5726  2.0266
  172SAPE  C21019494   3.957   3.798   7.721 -0.6014 -0.7485  0.0339
  172SAPE  H10R19495   4.003   3.740   7.803  0.6831 -2.2468 -1.6472
  172SAPE  H10S19496   3.870   3.735   7.692 -1.6929 -0.0929  1.7538
  172SAPE  C21119497   3.891   3.927   7.768  0.2687 -0.0616  1.3889
  172SAPE  H11R19498   3.837   3.983   7.691 -0.6985 -0.0768  2.0364
  172SAPE  C21219499   3.883   3.980   7.894 -0.8706 -0.1188 -0.5106
  172SAPE  H12R19500   3.842   4.080   7.913  2.0168  0.6616  2.6355
  172SAPE  C21319501   3.944   3.913   8.016 -0.5139 -0.3139  0.1630
  172SAPE  H13R19502   3.972   3.992   8.088  0.6160 -0.2113 -0.3632
  172SAPE  H13S19503   4.031   3.849   7.990  0.8071  1.2179  0.6482
  172SAPE  C21419504   3.844   3.813   8.073  0.0346 -0.0524  0.3147
  172SAPE  H14R19505   3.762   3.786   8.004  1.4219 -3.1690 -0.2531
  172SAPE  C21519506   3.847   3.759   8.195 -0.2770 -0.3177  1.4414
  172SAPE  H15R19507   3.780   3.676   8.223  0.5726 -1.0300  1.3876
  172SAPE  C21619508   3.940   3.786   8.305  0.5039  0.0140 -0.0332
  172SAPE  H16R19509   3.999   3.880   8.291 -1.3329  1.2934  0.4198
  172SAPE  H16S19510   4.019   3.709   8.295 -0.6506 -1.0255 -1.5483
  172SAPE  C21719511   3.873   3.804   8.440 -0.1475  0.1477 -0.4724
  172SAPE  H17R19512   3.814   3.713   8.463  1.0497 -1.0550 -1.9625
  172SAPE  H17S19513   3.801   3.888   8.424  0.5206  1.2076  1.6181
  172SAPE  C21819514   3.966   3.828   8.559  0.2835  0.0955  0.1923
  172SAPE  H18R19515   4.027   3.919   8.544  1.4999 -0.8220 -0.6809
  172SAPE  H18S19516   4.043   3.747   8.566  0.2370  0.1172  1.0718
  172SAPE  C21919517   3.886   3.832   8.689 -0.3373 -0.7342 -0.3201
  172SAPE  H19R19518   3.840   3.734   8.713  2.5651 -2.2083 -0.3771
  172SAPE  H19S19519   3.812   3.912   8.666 -0.0575 -0.0235  1.1318
  172SAPE  C22019520   3.978   3.885   8.805 -0.3330 -0.1100 -0.1856
  172SAPE  H20R19521   4.070   3.823   8.813 -0.8542 -0.7536  1.0702
  172SAPE  H20S19522   3.923   3.891   8.901 -1.6735  0.9962 -0.9757
  172SAPE  H20T19523   3.998   3.993   8.787  1.9225 -0.6482 -1.2705
  172SAPE   C3319524   3.724   3.325   7.078  0.4524  0.1864  0.3814
  172SAPE   H3X19525   3.668   3.293   7.169 -0.8861  1.9528  0.2238
  172SAPE   H3Y19526   3.704   3.434   7.071 -2.6102 -0.4244 -3.5829
  172SAPE   C3419527   3.874   3.288   7.093 -0.2930 -0.3517  0.4208
  172SAPE   H4X19528   3.915   3.275   6.990 -0.1854 -1.4059  0.5874
  172SAPE   H4Y19529   3.875   3.190   7.145 -0.5204 -0.4137  0.3101
  172SAPE   C3519530   3.969   3.378   7.177  0.2426 -0.6410 -0.4977
  172SAPE   H5X19531   3.987   3.475   7.127 -0.0801  0.1326  0.8492
  172SAPE   H5Y19532   4.065   3.322   7.180 -0.3709 -1.8813 -2.0890
  172SAPE   C3619533   3.921   3.403   7.325 -0.0794  0.3530  0.0715
  172SAPE   H6X19534   3.852   3.323   7.357  1.3206 -0.9837 -0.1520
  172SAPE   H6Y19535   3.869   3.501   7.335  2.5031  1.7933  0.4078
  172SAPE   C3719536   4.043   3.411   7.423 -0.0003 -0.0848  0.3081
  172SAPE   H7X19537   4.088   3.511   7.413 -1.8861  0.9182  1.2896
  172SAPE   H7Y19538   4.121   3.339   7.391 -1.7356 -2.8301  1.8318
  172SAPE   C3819539   4.016   3.376   7.562 -0.3340  0.2464 -0.2220
  172SAPE   H8X19540   3.970   3.275   7.568 -0.7388  0.3675 -1.1507
  172SAPE   H8Y19541   3.935   3.439   7.604 -0.1258  0.2192  0.2231
  172SAPE   C3919542   4.136   3.393   7.654  0.3565  0.2037 -0.4762
  172SAPE   H9X19543   4.183   3.491   7.633  0.9746  0.1784  0.6756
  172SAPE   H9Y19544   4.197   3.300   7.641  0.5804  0.2358  0.3057
  172SAPE  C31019545   4.097   3.391   7.803 -0.1944 -0.4886  0.6191
  172SAPE  H10X19546   4.042   3.300   7.833  1.0985 -0.6313  2.8570
  172SAPE  H10Y19547   4.036   3.482   7.824  0.5539 -0.3174  2.2306
  172SAPE  C31119548   4.230   3.402   7.884  0.1407  0.0309  0.1235
  172SAPE  H11X19549   4.292   3.476   7.829 -1.6804 -0.1333 -2.3846
  172SAPE  H11Y19550   4.283   3.305   7.889 -0.6481 -0.4766 -0.8322
  172SAPE  C31219551   4.212   3.450   8.021 -0.5425  0.0308  0.2561
  172SAPE  H12X19552   4.147   3.382   8.079 -0.7777  0.8664  1.0077
  172SAPE  H12Y19553   4.161   3.549   8.019  1.1519  0.9581  0.6581
  172SAPE  C31319554   4.343   3.466   8.099 -0.3871 -0.1683 -0.3525
  172SAPE  H13X19555   4.416   3.531   8.046 -0.7492  0.8246  0.3234
  172SAPE  H13Y19556   4.394   3.369   8.114  1.4740  0.6615 -1.0681
  172SAPE  C31419557   4.330   3.529   8.242  0.3603 -0.4217  0.4190
  172SAPE  H14X19558   4.245   3.477   8.290  0.8140 -1.2058  0.3876
  172SAPE  H14Y19559   4.297   3.634   8.225 -0.2055 -0.6321  0.2074
  172SAPE  C31519560   4.456   3.517   8.332  0.1363 -0.5933 -0.4001
  172SAPE  H15X19561   4.429   3.574   8.424  0.1826 -0.3385 -0.5425
  172SAPE  H15Y19562   4.547   3.562   8.285  1.0835  0.4776  2.2465
  172SAPE  C31619563   4.487   3.369   8.371  0.8327 -0.2226 -0.3575
  172SAPE  H16X19564   4.518   3.312   8.281 -1.9031 -3.1086  0.3451
  172SAPE  H16Y19565   4.392   3.329   8.413  1.8294 -0.2574  2.0053
  172SAPE  C31719566   4.588   3.360   8.495  0.1063  1.3608  0.5482
  172SAPE  H17X19567   4.534   3.399   8.585  0.8027  0.9260  1.1604
  172SAPE  H17Y19568   4.668   3.435   8.475  0.3270  1.3193  1.2451
  172SAPE  C31819569   4.653   3.222   8.516  0.2274  0.5343  0.4330
  172SAPE  H18X19570   4.578   3.142   8.534  0.7139 -0.0693 -0.1606
  172SAPE  H18Y19571   4.723   3.222   8.601  2.1840 -1.2288 -1.0853
  172SAPE  H18Z19572   4.713   3.195   8.426 -0.3231 -2.0801  0.7779
  173SOPE     N19573   3.821   3.251  10.768 -0.0832 -0.6522 -0.1179
  173SOPE   HN119574   3.774   3.252  10.861 -1.9417 -0.9791 -1.0301
  173SOPE   HN219575   3.887   3.330  10.755  2.8308 -3.0926 -1.5720
  173SOPE   HN319576   3.740   3.251  10.703 -0.0493 -0.1752 -0.1638
  173SOPE   C1219577   3.911   3.129  10.740  0.1308 -0.8493 -0.2083
  173SOPE  H12A19578   3.980   3.095  10.821  2.6236 -1.3182 -2.3842
  173SOPE  H12B19579   3.982   3.151  10.658  2.9892 -2.4404  1.6520
  173SOPE   C1119580   3.815   3.009  10.723  0.1231 -0.3294  0.6368
  173SOPE  H11A19581   3.871   2.915  10.706  0.6378  0.1758 -0.5650
  173SOPE  H11B19582   3.757   3.014  10.628 -1.7282 -2.4530  1.5704
  173SOPE     P19583   3.756   2.912  10.955 -0.1960  0.1211 -0.1514
  173SOPE   O1319584   3.625   2.900  11.023  0.2869 -0.6551 -0.2089
  173SOPE   O1419585   3.877   2.966  11.028 -0.4112  0.1320  0.1058
  173SOPE   O1219586   3.722   3.002  10.829 -0.2570  0.0885  0.3303
  173SOPE   O1119587   3.795   2.773  10.894 -0.3511 -0.1311  0.0316
  173SOPE    C119588   3.728   2.651  10.907 -0.3270 -0.4341  0.7562
  173SOPE    HA19589   3.620   2.671  10.887  0.5016  1.8539 -2.1906
  173SOPE    HB19590   3.741   2.606  11.008  0.2244 -2.1077 -0.0392
  173SOPE    C219591   3.783   2.544  10.809 -0.1019 -0.2855 -0.8739
  173SOPE    HS19592   3.877   2.512  10.858 -0.4718 -0.3675 -0.2050
  173SOPE   O2119593   3.781   2.584  10.673  0.3212  0.7880 -0.3051
  173SOPE   C2119594   3.882   2.557  10.603 -0.5570  0.2239 -0.1619
  173SOPE   O2219595   3.981   2.494  10.639  0.1128  0.2805  0.3363
  173SOPE   C2219596   3.855   2.599  10.463  0.2836 -0.0991 -0.0956
  173SOPE   H2R19597   3.801   2.696  10.473 -1.1236 -0.8974  0.4346
  173SOPE   H2S19598   3.787   2.522  10.420  0.8188 -1.5202  1.4905
  173SOPE    C319599   3.698   2.422  10.825  0.0597  0.4912 -0.2949
  173SOPE    HX19600   3.600   2.444  10.779  0.6154  2.0944 -0.7933
  173SOPE    HY19601   3.679   2.401  10.933  0.4753  0.5406 -0.2095
  173SOPE   O3119602   3.763   2.307  10.761 -0.1316 -0.0353  0.0573
  173SOPE   C3119603   3.728   2.280  10.644  0.3081  0.1556  0.4396
  173SOPE   O3219604   3.636   2.331  10.580 -0.1387  0.1340  0.4664
  173SOPE   C3219605   3.819   2.186  10.587  0.6147 -0.2614  0.3920
  173SOPE   H2X19606   3.829   2.096  10.652 -2.6469 -0.2514  1.0657
  173SOPE   H2Y19607   3.920   2.232  10.584 -0.6972  2.8238 -0.6307
  173SOPE   C2319608   3.975   2.622  10.374  0.1074  0.1644  0.4929
  173SOPE   H3R19609   4.016   2.523  10.346 -1.8979 -0.5042 -0.2497
  173SOPE   H3S19610   4.047   2.683  10.433  1.1973 -1.7667  1.2215
  173SOPE   C2419611   3.929   2.693  10.246  0.0654  0.3731  0.4660
  173SOPE   H4R19612   3.891   2.621  10.171  0.4211 -0.3435  0.9626
  173SOPE   H4S19613   3.841   2.755  10.273 -0.8612 -0.8200  0.2677
  173SOPE   C2519614   4.029   2.795  10.196 -0.1324  0.6527  0.5917
  173SOPE   H5R19615   4.029   2.868  10.280 -0.1586 -1.0969  2.1623
  173SOPE   H5S19616   4.132   2.753  10.192 -0.1742  0.5837  0.2335
  173SOPE   C2619617   3.994   2.865  10.068 -0.2132 -0.2775  0.2416
  173SOPE   H6R19618   3.992   2.786   9.991  1.0859 -0.5528  0.4666
  173SOPE   H6S19619   3.888   2.895  10.086  0.2927  0.3329  2.6643
  173SOPE   C2719620   4.097   2.974  10.044  0.0492  0.1439  0.5295
  173SOPE   H7R19621   4.130   3.015  10.142  0.5541  2.7674 -0.6429
  173SOPE   H7S19622   4.177   2.926   9.983 -0.9898  0.3417 -1.0537
  173SOPE   C2819623   4.051   3.094   9.959  0.5208 -0.4329  0.9589
  173SOPE   H8R19624   3.968   3.148  10.011 -1.3032 -0.6221 -1.5824
  173SOPE   H8S19625   4.138   3.162   9.954 -0.0498  0.2898  0.6873
  173SOPE   C2919626   4.008   3.049   9.816  0.0168 -0.4962 -0.4051
  173SOPE   H9119627   3.903   3.020   9.808 -0.2069  0.0294  0.5076
  173SOPE  C21019628   4.094   3.044   9.708 -0.5553  0.3896  0.5681
  173SOPE  H10119629   4.068   3.005   9.608  0.6133  0.1490  0.3401
  173SOPE  C21119630   4.237   3.088   9.703  0.0434  0.0783  0.1990
  173SOPE  H11R19631   4.274   3.115   9.804 -0.1287 -1.1878  0.6254
  173SOPE  H11S19632   4.246   3.174   9.633 -1.5893  0.6030  0.6046
  173SOPE  C21219633   4.345   2.981   9.642  0.1035  0.1339 -0.3797
  173SOPE  H12R19634   4.295   2.951   9.547  0.7427 -3.0570  0.2030
  173SOPE  H12S19635   4.343   2.888   9.702  0.1669  0.4273  0.0901
  173SOPE  C21319636   4.481   3.044   9.609 -0.2386 -0.5102  0.1173
  173SOPE  H13R19637   4.474   3.144   9.657 -1.8790 -0.6424  0.2129
  173SOPE  H13S19638   4.482   3.060   9.499  0.6116  2.9320  0.5248
  173SOPE  C21419639   4.610   2.983   9.663  0.8148  0.7624  0.5866
  173SOPE  H14R19640   4.605   2.991   9.774 -0.9011 -1.7450  0.7757
  173SOPE  H14S19641   4.698   3.039   9.625 -0.0395  1.5232 -0.3063
  173SOPE  C21519642   4.621   2.834   9.615  0.3974  0.3239 -0.0202
  173SOPE  H15R19643   4.607   2.818   9.506  0.9016 -0.9229  0.0809
  173SOPE  H15S19644   4.553   2.774   9.680  1.1584 -1.9117 -1.1836
  173SOPE  C21619645   4.770   2.789   9.638  0.8851 -0.1608  0.8918
  173SOPE  H16R19646   4.795   2.790   9.747 -1.3445  0.0237  1.4620
  173SOPE  H16S19647   4.830   2.866   9.586 -1.5129  0.3623 -1.2951
  173SOPE  C21719648   4.791   2.654   9.579 -1.1687  0.8673  0.6041
  173SOPE  H17R19649   4.755   2.575   9.648  1.3686 -1.9860 -1.0976
  173SOPE  H17S19650   4.899   2.633   9.586 -1.6204 -1.1819  2.9293
  173SOPE  C21819651   4.753   2.626   9.434  0.0977  0.6406 -0.3610
  173SOPE  H18R19652   4.802   2.698   9.365  0.0730  0.1412 -0.9021
  173SOPE  H18S19653   4.644   2.620   9.414  0.2681  0.5112 -1.2881
  173SOPE  H18T19654   4.794   2.526   9.411  0.8836  0.8692 -0.0065
  173SOPE   C3319655   3.776   2.139  10.445 -0.3698 -0.6457 -0.1541
  173SOPE   H3X19656   3.737   2.226  10.388  3.0098  1.5107  0.5609
  173SOPE   H3Y19657   3.694   2.068  10.471 -0.3248 -0.9458 -0.8269
  173SOPE   C3419658   3.868   2.050  10.364  0.0820  0.2365 -0.1819
  173SOPE   H4X19659   3.880   1.952  10.416 -2.1149 -0.5643 -1.0604
  173SOPE   H4Y19660   3.969   2.094  10.360  0.0263  0.3131 -0.7916
  173SOPE   C3519661   3.817   2.028  10.223  0.1992 -0.6504  0.3651
  173SOPE   H5X19662   3.813   2.127  10.173 -0.1266 -0.7860  0.1223
  173SOPE   H5Y19663   3.714   1.988  10.221  0.6515 -1.8720  0.6065
  173SOPE   C3619664   3.901   1.914  10.159 -0.1384  0.2647  0.0964
  173SOPE   H6X19665   3.885   1.818  10.212 -2.1075  0.5248  0.0228
  173SOPE   H6Y19666   4.006   1.949  10.168 -1.1323  3.7143 -0.4605
  173SOPE   C3719667   3.883   1.871  10.012 -0.8470  0.4351 -0.2146
  173SOPE   H7X19668   3.785   1.819  10.015 -0.7736  0.1966 -1.3459
  173SOPE   H7Y19669   3.953   1.788   9.986 -1.8672 -0.8741  1.0824
  173SOPE   C3819670   3.889   1.979   9.907  0.7185 -0.7062  0.4906
  173SOPE   H8X19671   3.981   2.040   9.917  0.0683  0.4307 -0.2062
  173SOPE   H8Y19672   3.803   2.047   9.930  0.2539 -1.4437  0.9752
  173SOPE   C3919673   3.899   1.930   9.764 -0.0412  0.1692 -0.2707
  173SOPE   H9X19674   3.806   1.870   9.760 -0.6960  1.2043 -1.1331
  173SOPE   H9Y19675   3.994   1.874   9.764  1.6881  2.8757  0.6290
  173SOPE  C31019676   3.896   2.054   9.672  0.6099 -0.2151 -0.1296
  173SOPE  H10X19677   3.979   2.123   9.699  0.5503 -0.4533  0.6891
  173SOPE  H10Y19678   3.799   2.106   9.688  1.7161  2.5923 -1.6708
  173SOPE  C31119679   3.898   2.010   9.530 -0.6681 -0.2627  0.3963
  173SOPE  H11X19680   3.842   2.076   9.460  0.7886  0.4949 -0.0951
  173SOPE  H11Y19681   3.861   1.907   9.511  1.0053 -0.6173 -1.2424
  173SOPE  C31219682   4.043   1.994   9.487  0.1372 -0.3675  0.1742
  173SOPE  H12X19683   4.053   1.938   9.392  3.4422  0.0473  0.1797
  173SOPE  H12Y19684   4.108   1.931   9.552  2.2975  0.0880 -1.4630
  173SOPE  C31319685   4.122   2.125   9.452  0.6211  0.3428  0.3109
  173SOPE  H13X19686   4.227   2.103   9.420  0.7857  1.3363  0.1502
  173SOPE  H13Y19687   4.133   2.172   9.552 -0.7980  0.3248  0.4966
  173SOPE  C31419688   4.070   2.218   9.349  0.6697 -0.2424  0.0670
  173SOPE  H14X19689   4.147   2.297   9.340  0.5268  0.1327  1.8063
  173SOPE  H14Y19690   3.968   2.251   9.376  0.4371 -1.1907  0.3938
  173SOPE  C31519691   4.041   2.149   9.212 -0.2723  0.1711  0.1722
  173SOPE  H15X19692   3.967   2.067   9.213  0.2844 -0.3889 -1.2500
  173SOPE  H15Y19693   4.137   2.096   9.192 -2.8938 -3.7926 -3.8027
  173SOPE  C31619694   4.015   2.235   9.091 -0.2473  0.0131 -0.7852
  173SOPE  H16X19695   4.023   2.168   9.002 -0.4384 -0.2946 -0.5730
  173SOPE  H16Y19696   4.092   2.315   9.082 -1.0833  0.7679 -1.5136
  173SOPE  C31719697   3.878   2.308   9.097  0.1098  0.6523  0.5169
  173SOPE  H17X19698   3.881   2.400   9.160 -0.5290  1.1770 -0.1855
  173SOPE  H17Y19699   3.803   2.234   9.132 -0.0433 -1.2209 -3.2794
  173SOPE  C31819700   3.840   2.356   8.956  0.4467 -0.2086 -0.8150
  173SOPE  H18X19701   3.842   2.274   8.882 -2.2009 -0.4713 -0.6865
  173SOPE  H18Y19702   3.912   2.438   8.933 -1.1304  1.5873  0.2744
  173SOPE  H18Z19703   3.746   2.414   8.946  0.7833  0.6024  0.4304
  174SOPE     N19704   5.140   1.527  10.477  0.0338  0.1302  0.1865
  174SOPE   HN119705   5.071   1.604  10.489  0.5413  0.8413 -1.1094
  174SOPE   HN219706   5.136   1.473  10.565 -2.1344  2.1970  1.4719
  174SOPE   HN319707   5.228   1.579  10.456 -0.9025  1.8704  0.3701
  174SOPE   C1219708   5.097   1.448  10.352 -0.5501 -0.4480  0.0934
  174SOPE  H12A19709   5.171   1.369  10.326 -0.3940  0.0913 -1.2187
  174SOPE  H12B19710   5.091   1.525  10.271 -2.1997  0.2289  0.8122
  174SOPE   C1119711   4.956   1.381  10.376  1.1121  0.2727  0.3864
  174SOPE  H11A19712   4.964   1.300  10.452 -0.1976  0.5811  0.8770
  174SOPE  H11B19713   4.937   1.332  10.278  1.7443  0.1841  0.3044
  174SOPE     P19714   4.705   1.398  10.445  0.0885 -0.5533  0.1799
  174SOPE   O1319715   4.616   1.496  10.504 -0.3213  0.1896  0.4138
  174SOPE   O1419716   4.738   1.273  10.518 -0.3873  0.3802  0.2951
  174SOPE   O1219717   4.847   1.474  10.413  0.1786 -0.6646 -0.8431
  174SOPE   O1119718   4.646   1.350  10.307  0.0632 -0.5139 -0.0232
  174SOPE    C119719   4.554   1.437  10.237  0.2119 -0.2870  0.5656
  174SOPE    HA19720   4.572   1.546  10.242 -1.1128  0.0511 -1.1174
  174SOPE    HB19721   4.448   1.421  10.266  0.5035 -1.0497  1.2564
  174SOPE    C219722   4.572   1.400  10.085 -0.4643  0.2801  0.0187
  174SOPE    HS19723   4.566   1.290  10.068  1.7168  0.1341 -0.0869
  174SOPE   O2119724   4.705   1.441  10.050 -0.1740  0.0808 -0.3593
  174SOPE   C2119725   4.778   1.379   9.962  0.1578  0.0183 -0.0838
  174SOPE   O2219726   4.746   1.279   9.895  0.4178 -0.4593 -1.1792
  174SOPE   C2219727   4.916   1.450   9.965 -1.0747  0.4953  0.6232
  174SOPE   H2R19728   4.976   1.387   9.897 -2.6575 -0.2926 -0.1044
  174SOPE   H2S19729   4.951   1.455  10.071 -0.2915 -2.8279  0.6349
  174SOPE    C319730   4.479   1.471   9.991 -0.0852 -0.0863  0.1507
  174SOPE    HX19731   4.464   1.579  10.015  1.2884  0.2797 -0.5514
  174SOPE    HY19732   4.376   1.434  10.011  0.2146 -0.3061  1.3581
  174SOPE   O3119733   4.504   1.457   9.855 -0.5748 -0.4441 -0.1442
  174SOPE   C3119734   4.479   1.338   9.803 -0.0481 -0.0232 -0.9438
  174SOPE   O3219735   4.424   1.251   9.869  0.1015  0.3342 -0.1307
  174SOPE   C3219736   4.531   1.325   9.662 -0.4714  0.4478 -0.4103
  174SOPE   H2X19737   4.639   1.299   9.664 -0.5838 -0.0617 -0.7233
  174SOPE   H2Y19738   4.511   1.419   9.607 -1.0533  0.4023 -0.2799
  174SOPE   C2319739   4.905   1.590   9.899  0.0547  0.5008 -0.5898
  174SOPE   H3R19740   5.009   1.629   9.900  0.0090  0.6317 -0.8048
  174SOPE   H3S19741   4.845   1.652   9.968  0.5559 -2.0878  2.3972
  174SOPE   C2419742   4.845   1.597   9.759 -0.7339 -0.2196  0.3589
  174SOPE   H4R19743   4.750   1.541   9.747 -0.9740  0.5614 -2.0958
  174SOPE   H4S19744   4.821   1.703   9.736 -2.1985 -0.7852 -0.9318
  174SOPE   C2519745   4.941   1.551   9.642 -0.6013  0.4538 -0.0685
  174SOPE   H5R19746   5.043   1.595   9.634 -0.2985 -0.5085 -3.3236
  174SOPE   H5S19747   4.956   1.441   9.649 -1.2918 -0.0012 -3.6931
  174SOPE   C2619748   4.883   1.585   9.498 -0.8673  0.4110 -0.6580
  174SOPE   H6R19749   4.785   1.534   9.496  0.0726 -1.4854 -1.3642
  174SOPE   H6S19750   4.876   1.695   9.488 -0.5918  0.7205  2.0029
  174SOPE   C2719751   4.969   1.537   9.387 -0.2626  0.4793  0.1102
  174SOPE   H7R19752   5.057   1.602   9.370 -1.0445  1.5073 -0.1218
  174SOPE   H7S19753   4.996   1.431   9.402  0.6203  0.8012  0.8991
  174SOPE   C2819754   4.901   1.541   9.246  0.5505 -0.5021 -0.3811
  174SOPE   H8R19755   4.802   1.491   9.251 -0.7618  1.7547 -2.0112
  174SOPE   H8S19756   4.877   1.649   9.237  1.9390 -0.0134  1.1006
  174SOPE   C2919757   4.993   1.482   9.138  0.0839  0.5557  0.1346
  174SOPE   H9119758   5.056   1.395   9.161  0.8076  1.3101  1.1045
  174SOPE  C21019759   5.005   1.536   9.016 -0.4852  0.3775 -0.0533
  174SOPE  H10119760   5.076   1.488   8.947 -0.6272  0.9498 -0.6116
  174SOPE  C21119761   4.943   1.663   8.960  0.7186 -0.1076  0.1627
  174SOPE  H11R19762   4.878   1.714   9.035  0.3979  1.1453 -0.9299
  174SOPE  H11S19763   4.871   1.631   8.881 -1.0318 -1.9695  2.3456
  174SOPE  C21219764   5.052   1.759   8.901  0.8017 -0.3647 -0.1178
  174SOPE  H12R19765   5.135   1.765   8.974 -0.2815  0.5116  1.0753
  174SOPE  H12S19766   5.006   1.860   8.910  0.1776 -0.7536  1.2732
  174SOPE  C21319767   5.104   1.735   8.758 -0.0135 -0.2170 -0.1956
  174SOPE  H13R19768   5.159   1.638   8.758 -0.6097 -0.5619 -0.0252
  174SOPE  H13S19769   5.179   1.811   8.728  1.1301 -1.5191 -0.7983
  174SOPE  C21419770   4.995   1.717   8.653 -0.0878 -0.1137 -0.5964
  174SOPE  H14R19771   4.917   1.793   8.673 -0.0522 -0.3110  0.3416
  174SOPE  H14S19772   4.961   1.611   8.659  1.4061 -0.5719  0.5334
  174SOPE  C21519773   5.049   1.745   8.515 -0.1156 -0.0219  0.1361
  174SOPE  H15R19774   5.124   1.667   8.492  3.4951  2.5216  2.1856
  174SOPE  H15S19775   5.102   1.843   8.517 -0.6324  0.3104 -1.3831
  174SOPE  C21619776   4.936   1.742   8.411 -0.8123  0.3095  0.4259
  174SOPE  H16R19777   4.878   1.829   8.447 -0.2791 -0.3355  3.0205
  174SOPE  H16S19778   4.884   1.644   8.413 -0.5240  0.0452 -2.0283
  174SOPE  C21719779   4.968   1.783   8.260 -0.5638  0.4678 -0.4863
  174SOPE  H17R19780   5.056   1.851   8.263  0.3293 -0.6685  2.7735
  174SOPE  H17S19781   4.884   1.851   8.236 -0.3407  0.4177 -1.4551
  174SOPE  C21819782   4.988   1.663   8.167 -0.3644 -0.3122 -0.0318
  174SOPE  H18R19783   5.001   1.699   8.063  1.0128  1.3151  0.6651
  174SOPE  H18S19784   4.897   1.599   8.168  0.2386 -1.2471 -1.4730
  174SOPE  H18T19785   5.072   1.598   8.200 -0.9007 -0.1216  1.8221
  174SOPE   C3319786   4.475   1.206   9.586  0.0492  0.2733  0.2021
  174SOPE   H3X19787   4.366   1.213   9.570  0.2446  0.6514 -1.1292
  174SOPE   H3Y19788   4.505   1.113   9.640  0.2329 -0.8994 -1.8026
  174SOPE   C3419789   4.536   1.199   9.444  0.8617  0.3502 -0.5406
  174SOPE   H4X19790   4.567   1.093   9.432  0.6654 -0.0084  1.6467
  174SOPE   H4Y19791   4.622   1.270   9.438 -0.1443  1.5826 -0.6141
  174SOPE   C3519792   4.434   1.238   9.337  0.0149 -0.2829 -0.0699
  174SOPE   H5X19793   4.378   1.331   9.359 -0.7467 -0.9038  0.7114
  174SOPE   H5Y19794   4.366   1.150   9.334  0.5740 -0.6852 -1.6656
  174SOPE   C3619795   4.504   1.242   9.204  0.1148 -0.6732  0.2742
  174SOPE   H6X19796   4.563   1.150   9.182  2.3130  1.3553 -3.3682
  174SOPE   H6Y19797   4.582   1.320   9.215  0.5201 -0.8453 -1.1800
  174SOPE   C3719798   4.408   1.271   9.082 -0.4767 -0.1845 -0.4724
  174SOPE   H7X19799   4.336   1.347   9.119  2.1460  2.0366  0.3973
  174SOPE   H7Y19800   4.366   1.170   9.063 -1.7681  0.5552 -1.7652
  174SOPE   C3819801   4.465   1.328   8.954 -0.1303  0.1612  0.7439
  174SOPE   H8X19802   4.381   1.368   8.893  1.2656  1.1500 -0.6192
  174SOPE   H8Y19803   4.517   1.243   8.905 -0.5873 -0.2876  1.0302
  174SOPE   C3919804   4.561   1.452   8.961  0.7249  0.1422 -1.2042
  174SOPE   H9X19805   4.656   1.423   9.009 -0.0620  0.8934  0.8923
  174SOPE   H9Y19806   4.513   1.523   9.032  3.3704 -0.7915  1.7294
  174SOPE  C31019807   4.576   1.528   8.827 -0.3467  0.1692  0.0525
  174SOPE  H10X19808   4.653   1.604   8.851  1.4098 -1.2992 -0.6337
  174SOPE  H10Y19809   4.483   1.577   8.791 -0.1987  1.5760  1.4791
  174SOPE  C31119810   4.623   1.447   8.707 -0.1586  0.2792 -0.0929
  174SOPE  H11X19811   4.554   1.371   8.665 -0.6415  0.6529  0.0169
  174SOPE  H11Y19812   4.708   1.380   8.733 -2.9682 -3.4197  0.4302
  174SOPE  C31219813   4.664   1.535   8.584 -0.6096  0.0629  0.1260
  174SOPE  H12X19814   4.678   1.467   8.497  1.1431 -0.6101  0.8903
  174SOPE  H12Y19815   4.748   1.606   8.600 -1.1751  1.3795 -2.2950
  174SOPE  C31319816   4.553   1.623   8.526  0.9123 -0.2743 -0.4061
  174SOPE  H13X19817   4.523   1.700   8.601  1.3640  2.1010 -2.5317
  174SOPE  H13Y19818   4.458   1.566   8.518  0.4594  0.4702 -0.4704
  174SOPE  C31419819   4.578   1.698   8.400 -0.7254  0.3165  0.0701
  174SOPE  H14X19820   4.642   1.641   8.330  0.2897  0.3872  0.9081
  174SOPE  H14Y19821   4.644   1.786   8.420  1.7419 -1.4390  0.1037
  174SOPE  C31519822   4.455   1.745   8.323 -0.3464 -0.4031  0.2390
  174SOPE  H15X19823   4.389   1.798   8.396  1.1859  0.9610  0.6853
  174SOPE  H15Y19824   4.394   1.655   8.303  1.2176 -1.7093  1.0997
  174SOPE  C31619825   4.489   1.832   8.202  0.0303 -0.1153  0.2052
  174SOPE  H16X19826   4.579   1.793   8.152  0.1435 -1.6633  1.5521
  174SOPE  H16Y19827   4.515   1.931   8.246  0.0403 -1.3361  3.1176
  174SOPE  C31719828   4.376   1.823   8.101  0.2207  0.3860  0.7339
  174SOPE  H17X19829   4.351   1.718   8.078  0.8006  0.8639 -2.5794
  174SOPE  H17Y19830   4.405   1.855   7.999 -1.5220 -2.6607 -0.8273
  174SOPE  C31819831   4.253   1.905   8.132 -0.7377  0.1607 -0.9554
  174SOPE  H18X19832   4.197   1.915   8.037  1.6898  1.0276 -2.3819
  174SOPE  H18Y19833   4.271   2.009   8.165 -0.5394 -0.2570  0.3355
  174SOPE  H18Z19834   4.194   1.849   8.207 -0.5733 -1.3786 -1.9264
  175SOPE     N19835   5.996   2.361  10.196 -0.2627 -0.6803  0.0229
  175SOPE   HN119836   6.058   2.322  10.122 -0.9055 -0.7366 -0.5010
  175SOPE   HN219837   5.933   2.284  10.227 -0.4213 -1.0629 -1.1930
  175SOPE   HN319838   5.940   2.432  10.144  1.2187  0.1774 -0.4749
  175SOPE   C1219839   6.071   2.437  10.303  0.2028  0.0667 -1.5044
  175SOPE  H12A19840   6.108   2.535  10.264 -1.2747  1.7233  0.9527
  175SOPE  H12B19841   6.150   2.364  10.331 -2.4792 -2.2644  0.5843
  175SOPE   C1119842   5.981   2.464  10.433 -1.1448 -0.5735  0.3326
  175SOPE  H11A19843   5.910   2.546  10.407 -0.0063  0.0128 -1.0707
  175SOPE  H11B19844   6.038   2.503  10.520 -0.3400 -3.6855  1.3065
  175SOPE     P19845   5.773   2.306  10.464 -0.1358 -0.0058  0.3835
  175SOPE   O1319846   5.693   2.420  10.430 -0.3798 -0.0898  0.1029
  175SOPE   O1419847   5.733   2.224  10.582 -0.1834  0.1522  0.1163
  175SOPE   O1219848   5.918   2.348  10.484  0.3742  0.6903 -0.4862
  175SOPE   O1119849   5.806   2.223  10.337  0.0389 -0.4266  0.4267
  175SOPE    C119850   5.763   2.087  10.321 -0.2911 -0.5585 -0.0810
  175SOPE    HA19851   5.703   2.074  10.228  0.0387 -0.2931 -0.3367
  175SOPE    HB19852   5.707   2.053  10.410  0.7721 -3.5567 -0.4147
  175SOPE    C219853   5.876   1.983  10.328  1.2469  0.3002 -0.6148
  175SOPE    HS19854   5.923   1.976  10.428 -0.8679 -1.2252  0.3651
  175SOPE   O2119855   5.968   2.026  10.232 -0.0088 -0.1726 -0.1932
  175SOPE   C2119856   6.085   1.973  10.222  0.0850 -0.1617  0.2938
  175SOPE   O2219857   6.131   1.882  10.296  0.1943  0.1918 -0.1048
  175SOPE   C2219858   6.161   2.036  10.109 -0.3871  0.4452  0.3612
  175SOPE   H2R19859   6.264   1.995  10.107  0.8036  3.2195 -1.6395
  175SOPE   H2S19860   6.184   2.140  10.137  3.1498 -0.5055  1.5263
  175SOPE    C319861   5.823   1.837  10.305  0.4346 -0.3101 -0.1489
  175SOPE    HX19862   5.761   1.822  10.396  0.1961  1.0495 -0.0606
  175SOPE    HY19863   5.907   1.765  10.307 -0.5816 -1.5440 -0.6358
  175SOPE   O3119864   5.769   1.826  10.171  0.1018 -0.5272 -0.5530
  175SOPE   C3119865   5.645   1.786  10.166 -0.3473  0.4236 -0.0260
  175SOPE   O3219866   5.579   1.742  10.255  0.1156  0.4582  0.2314
  175SOPE   C3219867   5.610   1.785  10.019  0.8235  0.0331 -0.0376
  175SOPE   H2X19868   5.696   1.735   9.970  0.6699  1.1278 -1.4759
  175SOPE   H2Y19869   5.613   1.890   9.985 -2.1041  0.4210  0.6323
  175SOPE   C2319870   6.089   2.018   9.970  0.4886  0.3134  0.4036
  175SOPE   H3R19871   6.133   2.083   9.891 -1.4420 -0.2346 -1.2032
  175SOPE   H3S19872   5.980   2.038   9.977  0.7148  3.0107 -2.0528
  175SOPE   C2419873   6.112   1.873   9.911 -0.1174  0.0003 -0.0970
  175SOPE   H4R19874   6.218   1.842   9.918 -0.2681 -0.1203  2.3019
  175SOPE   H4S19875   6.055   1.808   9.981  0.9321 -1.5066 -0.6073
  175SOPE   C2519876   6.054   1.857   9.771  0.3291 -0.1638 -0.1367
  175SOPE   H5R19877   6.047   1.751   9.737 -1.7971  0.2426 -1.1241
  175SOPE   H5S19878   5.953   1.902   9.763 -1.4197 -3.4878  1.1463
  175SOPE   C2619879   6.142   1.920   9.663  0.6081  0.5252 -0.1972
  175SOPE   H6R19880   6.141   2.031   9.665  0.6618  0.5136  1.2620
  175SOPE   H6S19881   6.246   1.893   9.691  0.3637  0.9817  1.2634
  175SOPE   C2719882   6.122   1.873   9.509 -0.4575  0.5597  0.3098
  175SOPE   H7R19883   6.205   1.921   9.453  0.4931 -3.1042 -1.7221
  175SOPE   H7S19884   6.161   1.770   9.494  0.4921  1.2054 -2.3686
  175SOPE   C2819885   5.987   1.886   9.446 -0.0780  0.4886 -0.6338
  175SOPE   H8R19886   5.966   1.791   9.392  0.3102  1.1466 -1.9898
  175SOPE   H8S19887   5.922   1.908   9.533  4.8952  1.6105  3.2466
  175SOPE   C2919888   5.977   1.995   9.343 -0.7996  0.5364  0.0509
  175SOPE   H9119889   5.955   2.094   9.386 -0.5013  1.1950 -1.2758
  175SOPE  C21019890   6.004   1.981   9.211  0.7687  0.0964 -0.3504
  175SOPE  H10119891   5.992   2.077   9.158  0.5517  0.2853  0.0377
  175SOPE  C21119892   6.038   1.851   9.133 -0.3732 -0.7101 -0.1431
  175SOPE  H11R19893   5.941   1.799   9.112 -0.0850 -0.2282 -3.2086
  175SOPE  H11S19894   6.102   1.781   9.190 -0.2908  0.0261  0.6897
  175SOPE  C21219895   6.111   1.882   8.999 -0.6669  0.2068  0.2015
  175SOPE  H12R19896   6.107   1.794   8.931 -0.6862  0.5584 -0.2550
  175SOPE  H12S19897   6.213   1.918   9.026  0.3657  0.5001 -3.5811
  175SOPE  C21319898   6.042   1.985   8.909  0.4136 -1.0755  0.5042
  175SOPE  H13R19899   6.052   2.079   8.968 -0.0207 -0.8537  0.2296
  175SOPE  H13S19900   5.931   1.978   8.905  0.2871  0.6793  0.2428
  175SOPE  C21419901   6.088   2.007   8.765  0.7417  0.1834  0.0801
  175SOPE  H14R19902   6.094   1.905   8.720 -2.5301 -0.0380 -0.0857
  175SOPE  H14S19903   6.192   2.045   8.767  0.7858  0.1634 -0.9962
  175SOPE  C21519904   5.994   2.083   8.677  1.1839 -0.1752 -0.2275
  175SOPE  H15R19905   5.963   2.172   8.734 -2.0201 -0.1582 -1.7906
  175SOPE  H15S19906   5.901   2.024   8.663  0.4283  1.0735 -0.6209
  175SOPE  C21619907   6.044   2.128   8.538 -0.9778 -0.3306 -1.1020
  175SOPE  H16R19908   6.043   2.041   8.469  1.7046 -1.2978 -0.0604
  175SOPE  H16S19909   6.145   2.165   8.567 -1.3253 -0.1532 -0.0501
  175SOPE  C21719910   5.960   2.251   8.495 -0.2730  0.7848  0.4511
  175SOPE  H17R19911   6.000   2.287   8.398 -1.1525  1.2390  0.2474
  175SOPE  H17S19912   5.976   2.339   8.560 -0.5966  0.4064  1.0548
  175SOPE  C21819913   5.812   2.216   8.473 -0.1638  0.3443  0.6294
  175SOPE  H18R19914   5.801   2.129   8.405 -2.0744  1.1317 -0.1329
  175SOPE  H18S19915   5.749   2.291   8.421 -0.9284 -0.4642  0.3650
  175SOPE  H18T19916   5.767   2.187   8.570  0.4602 -1.6644  0.3589
  175SOPE   C3319917   5.470   1.729   9.999 -1.0133 -0.5037  0.2107
  175SOPE   H3X19918   5.401   1.811  10.031  1.1147  1.7024 -0.5475
  175SOPE   H3Y19919   5.454   1.634  10.054  0.9305 -1.1838 -0.3283
  175SOPE   C3419920   5.441   1.696   9.855  0.7072 -0.2951 -1.6520
  175SOPE   H4X19921   5.336   1.661   9.862  0.2258  1.1863 -1.1180
  175SOPE   H4Y19922   5.496   1.608   9.817 -1.3193 -2.3504 -0.0701
  175SOPE   C3519923   5.451   1.812   9.757 -0.5837 -0.0652  0.7311
  175SOPE   H5X19924   5.559   1.829   9.739 -0.5460 -0.3043  0.7278
  175SOPE   H5Y19925   5.400   1.904   9.792  1.3546  1.9239 -1.3448
  175SOPE   C3619926   5.387   1.777   9.619 -0.0601 -0.4782  0.4825
  175SOPE   H6X19927   5.277   1.777   9.635 -0.3509 -0.4558 -1.2629
  175SOPE   H6Y19928   5.422   1.680   9.579 -0.1131 -0.0933 -0.5445
  175SOPE   C3719929   5.418   1.887   9.514 -0.8751 -0.5709  0.3000
  175SOPE   H7X19930   5.529   1.897   9.509 -0.8179 -0.2080  1.7755
  175SOPE   H7Y19931   5.381   1.985   9.552  0.6265  0.2872 -0.3534
  175SOPE   C3819932   5.354   1.863   9.373  0.2329  0.6435  0.1809
  175SOPE   H8X19933   5.244   1.844   9.370  0.5940 -1.5910 -1.0487
  175SOPE   H8Y19934   5.396   1.766   9.340 -1.0065 -0.3742  1.4435
  175SOPE   C3919935   5.383   1.973   9.270 -0.2507 -0.4990 -0.4138
  175SOPE   H9X19936   5.492   1.985   9.254  0.4918 -2.0924  2.6206
  175SOPE   H9Y19937   5.351   2.068   9.318 -0.0793 -1.3593  1.5043
  175SOPE  C31019938   5.309   1.955   9.134 -0.0714 -0.6644  0.6139
  175SOPE  H10X19939   5.199   1.943   9.126 -0.2042  1.3861 -2.0076
  175SOPE  H10Y19940   5.350   1.859   9.098  0.7166 -0.2603  0.4165
  175SOPE  C31119941   5.356   2.072   9.043  0.3673 -0.7059 -0.4211
  175SOPE  H11X19942   5.453   2.050   8.994  1.3746 -1.9147  1.9848
  175SOPE  H11Y19943   5.356   2.163   9.107 -2.5591  0.5408 -2.0051
  175SOPE  C31219944   5.257   2.105   8.932  0.3034  0.2613  0.5299
  175SOPE  H12X19945   5.166   2.149   8.979  0.2643  1.8219 -0.9021
  175SOPE  H12Y19946   5.210   2.030   8.865 -0.1958 -0.1350  1.3046
  175SOPE  C31319947   5.306   2.221   8.845 -0.2327  0.1161 -0.3711
  175SOPE  H13X19948   5.397   2.197   8.786 -0.7811  1.2581 -1.7628
  175SOPE  H13Y19949   5.346   2.291   8.921 -1.5772 -1.1116  1.5547
  175SOPE  C31419950   5.197   2.276   8.755  0.2014 -0.0248 -0.3887
  175SOPE  H14X19951   5.243   2.357   8.694 -1.0116  1.3814  0.4893
  175SOPE  H14Y19952   5.113   2.317   8.815  1.1576  0.9767  0.2888
  175SOPE  C31519953   5.120   2.170   8.670 -0.1497  0.5347  0.5573
  175SOPE  H15X19954   5.065   2.106   8.741 -3.1462  0.7715 -1.3897
  175SOPE  H15Y19955   5.189   2.109   8.607  0.3665  1.2865  0.3751
  175SOPE  C31619956   5.031   2.229   8.559 -1.0317  0.3342  0.3049
  175SOPE  H16X19957   5.095   2.274   8.480 -0.1828 -0.6953  0.3818
  175SOPE  H16Y19958   4.960   2.308   8.593 -0.3607  1.6525 -1.2522
  175SOPE  C31719959   4.938   2.138   8.481  0.3255  0.3597 -0.2060
  175SOPE  H17X19960   4.850   2.118   8.546  0.4376 -2.0837 -0.7265
  175SOPE  H17Y19961   4.985   2.038   8.472 -3.1907 -1.5045  0.1320
  175SOPE  C31819962   4.903   2.197   8.345  0.0094  0.5095 -0.3685
  175SOPE  H18X19963   4.833   2.140   8.281 -0.1094  0.3164 -0.0691
  175SOPE  H18Y19964   5.001   2.210   8.294  0.6942  2.2579  1.2562
  175SOPE  H18Z19965   4.860   2.297   8.364  0.6621  0.5905  0.7928
  176SOPE     N19966   5.507   1.225  10.993  0.3134  0.0457 -0.6129
  176SOPE   HN119967   5.452   1.290  11.053 -2.4019 -1.7365 -0.9689
  176SOPE   HN219968   5.462   1.131  10.998  3.0643 -1.3450 -0.2991
  176SOPE   HN319969   5.597   1.204  11.040  0.7431  1.1239 -0.9426
  176SOPE   C1219970   5.514   1.290  10.862 -0.1961  0.4287  0.0241
  176SOPE  H12A19971   5.559   1.222  10.787 -1.5763 -0.6039  0.0901
  176SOPE  H12B19972   5.593   1.367  10.873  2.8335 -1.9988 -2.6736
  176SOPE   C1119973   5.377   1.336  10.806 -0.0536 -0.8024 -0.5254
  176SOPE  H11A19974   5.389   1.393  10.711 -0.7000  1.1700  0.5236
  176SOPE  H11B19975   5.353   1.413  10.883 -0.1890 -0.8339 -0.5361
  176SOPE     P19976   5.154   1.254  10.691  0.0096  0.2013 -0.4583
  176SOPE   O1319977   5.094   1.383  10.704  0.3187  0.2254 -0.0727
  176SOPE   O1419978   5.069   1.135  10.691  0.3225 -0.3998 -0.3742
  176SOPE   O1219979   5.279   1.233  10.794 -0.3449  0.0885 -0.4185
  176SOPE   O1119980   5.227   1.250  10.551 -0.2944 -0.0279 -0.3357
  176SOPE    C119981   5.319   1.141  10.521 -0.2366 -0.0863  0.4797
  176SOPE    HA19982   5.258   1.049  10.513 -0.7606  0.1887  1.1748
  176SOPE    HB19983   5.394   1.105  10.594  0.8390  1.4937  0.1989
  176SOPE    C219984   5.389   1.149  10.389 -0.7946  0.4039 -0.0974
  176SOPE    HS19985   5.308   1.165  10.315 -0.9875  3.0583  0.6040
  176SOPE   O2119986   5.445   1.018  10.365 -0.2992  0.5237  0.2816
  176SOPE   C2119987   5.441   0.964  10.238 -0.0916  0.5660 -0.1606
  176SOPE   O2219988   5.403   1.024  10.141 -0.6635 -0.3900 -0.0692
  176SOPE   C2219989   5.487   0.817  10.237 -0.1454  0.3399  0.1564
  176SOPE   H2R19990   5.442   0.757  10.155 -2.2090  0.3801  1.1980
  176SOPE   H2S19991   5.476   0.774  10.339  1.7112 -1.7989 -0.4662
  176SOPE    C319992   5.502   1.256  10.383  0.2655 -0.1044  0.6833
  176SOPE    HX19993   5.583   1.242  10.458  2.1784  1.2782 -1.0152
  176SOPE    HY19994   5.466   1.353  10.423 -0.8401  0.1536 -0.8691
  176SOPE   O3119995   5.554   1.266  10.249 -0.3459 -0.6840  0.8931
  176SOPE   C3119996   5.471   1.316  10.156  1.1046  0.5803 -0.1345
  176SOPE   O3219997   5.365   1.370  10.186 -0.0392  0.1074 -0.4571
  176SOPE   C3219998   5.524   1.305  10.021 -0.1424  0.6017 -0.8929
  176SOPE   H2X19999   5.609   1.234  10.020 -0.1016  0.6515 -1.3114
  176SOPE   H2Y20000   5.574   1.400   9.993  2.0938 -0.1135  0.4708
  176SOPE   C2320001   5.637   0.819  10.211  0.4952  0.1754  0.8127
  176SOPE   H3R20002   5.675   0.718  10.238  0.9815  0.2395  0.3729
  176SOPE   H3S20003   5.691   0.889  10.278  0.9732  1.1726 -0.5642
  176SOPE   C2420004   5.673   0.852  10.063 -0.5259  0.3604  0.7814
  176SOPE   H4R20005   5.615   0.940  10.030 -3.1318 -1.6536 -0.3365
  176SOPE   H4S20006   5.783   0.860  10.075 -0.2715 -2.0682  0.7161
  176SOPE   C2520007   5.657   0.737   9.964  0.0709 -0.2638 -0.0218
  176SOPE   H5R20008   5.737   0.661   9.975  0.5367  0.2789  0.3700
  176SOPE   H5S20009   5.558   0.693   9.988 -0.6632  1.0951 -0.4647
  176SOPE   C2620010   5.661   0.784   9.818  0.0025  0.3684  0.1682
  176SOPE   H6R20011   5.767   0.788   9.784  0.0297 -2.3599 -0.2562
  176SOPE   H6S20012   5.634   0.694   9.759  0.2776 -0.0097  0.6131
  176SOPE   C2720013   5.565   0.884   9.770 -0.4366  0.1976 -0.1499
  176SOPE   H7R20014   5.614   0.984   9.778  0.3660 -0.1218 -0.8147
  176SOPE   H7S20015   5.567   0.866   9.660  1.0005  2.0576 -0.4806
  176SOPE   C2820016   5.413   0.874   9.810 -1.3663 -1.1796 -0.4133
  176SOPE   H8R20017   5.410   0.850   9.918 -0.9634  0.7557  0.0579
  176SOPE   H8S20018   5.358   0.970   9.804 -0.2249 -0.3322  1.7368
  176SOPE   C2920019   5.349   0.763   9.731 -0.2585  0.1808  0.3208
  176SOPE   H9120020   5.360   0.663   9.775  3.8083 -0.1520 -1.0602
  176SOPE  C21020021   5.306   0.776   9.607  0.6279  0.3817 -0.2142
  176SOPE  H10120022   5.275   0.682   9.559 -1.2077  1.0781 -0.4548
  176SOPE  C21120023   5.304   0.889   9.512 -0.4170 -0.5424  0.7972
  176SOPE  H11R20024   5.354   0.975   9.562 -2.5493  1.3153 -0.1196
  176SOPE  H11S20025   5.198   0.913   9.489 -0.9467 -3.1845  0.1405
  176SOPE  C21220026   5.375   0.866   9.370  1.3172 -0.1930  0.3546
  176SOPE  H12R20027   5.350   0.956   9.310 -0.5662 -1.0932 -0.3130
  176SOPE  H12S20028   5.337   0.777   9.314  0.8354  0.2761 -0.0808
  176SOPE  C21320029   5.527   0.856   9.381 -0.3982  0.3415  0.3245
  176SOPE  H13R20030   5.552   0.754   9.417 -0.2010 -0.6978 -2.5072
  176SOPE  H13S20031   5.567   0.935   9.448  2.2089  1.2474 -2.1432
  176SOPE  C21420032   5.595   0.869   9.244 -0.2666  0.2512  0.1596
  176SOPE  H14R20033   5.559   0.804   9.161 -0.9904 -0.5567  1.0817
  176SOPE  H14S20034   5.704   0.862   9.266 -0.0273 -1.6969 -1.3294
  176SOPE  C21520035   5.588   1.005   9.172 -0.1078 -0.4385 -0.3896
  176SOPE  H15R20036   5.641   1.078   9.237 -0.8184  0.3084 -0.6381
  176SOPE  H15S20037   5.483   1.041   9.167 -0.1920 -0.2239  1.8744
  176SOPE  C21620038   5.635   1.002   9.027 -0.6503  0.9539 -0.1545
  176SOPE  H16R20039   5.579   0.924   8.971  1.1023 -1.0644  0.7828
  176SOPE  H16S20040   5.739   0.963   9.031  0.1147  2.5895 -2.1909
  176SOPE  C21720041   5.657   1.144   8.965 -0.0321 -0.2614  0.4576
  176SOPE  H17R20042   5.741   1.142   8.892 -0.0067 -1.2650  0.5019
  176SOPE  H17S20043   5.686   1.215   9.046 -0.5242  0.5225 -0.0411
  176SOPE  C21820044   5.527   1.194   8.908  0.2789 -0.6530 -0.0288
  176SOPE  H18R20045   5.541   1.290   8.854 -2.4172 -1.0031 -1.5340
  176SOPE  H18S20046   5.455   1.225   8.987 -0.5579  1.2937 -1.4719
  176SOPE  H18T20047   5.468   1.125   8.845 -1.2637 -0.2157  0.8623
  176SOPE   C3320048   5.414   1.277   9.919 -0.1061 -0.2459  0.4323
  176SOPE   H3X20049   5.321   1.333   9.943 -1.9268 -1.0519 -3.8452
  176SOPE   H3Y20050   5.389   1.170   9.933 -2.2314 -0.4677 -3.5854
  176SOPE   C3420051   5.468   1.302   9.783  0.1451 -0.2955  0.0050
  176SOPE   H4X20052   5.554   1.239   9.752  2.5793  2.9172 -0.1701
  176SOPE   H4Y20053   5.504   1.406   9.769 -0.2459 -0.2478 -0.6992
  176SOPE   C3520054   5.356   1.285   9.680 -0.2415  0.4204 -0.2356
  176SOPE   H5X20055   5.275   1.360   9.694 -2.0853 -1.4356 -0.4588
  176SOPE   H5Y20056   5.313   1.183   9.684 -0.0799  0.2194 -2.6676
  176SOPE   C3620057   5.412   1.300   9.539  0.2017 -0.3850 -0.1231
  176SOPE   H6X20058   5.486   1.220   9.517  1.1270  0.2153  0.7460
  176SOPE   H6Y20059   5.485   1.382   9.526 -0.1679 -0.1739 -0.9297
  176SOPE   C3720060   5.295   1.307   9.440 -0.8543 -0.0573 -0.2563
  176SOPE   H7X20061   5.224   1.387   9.470 -1.0643 -0.0756 -0.7026
  176SOPE   H7Y20062   5.239   1.211   9.442 -2.9392  1.0929 -0.1392
  176SOPE   C3820063   5.328   1.315   9.294 -0.2795  0.2677  0.6612
  176SOPE   H8X20064   5.236   1.316   9.232 -0.9994 -0.6568  1.6752
  176SOPE   H8Y20065   5.391   1.229   9.263 -1.9461 -0.8974  0.4034
  176SOPE   C3920066   5.391   1.448   9.248 -0.4456 -0.3894  0.4861
  176SOPE   H9X20067   5.363   1.520   9.328  2.9398  1.8290 -0.1166
  176SOPE   H9Y20068   5.331   1.485   9.162 -0.1591  2.1110  1.2648
  176SOPE  C31020069   5.541   1.446   9.218  0.4878  0.8298 -0.9379
  176SOPE  H10X20070   5.554   1.360   9.149 -2.1759  0.1902 -0.7358
  176SOPE  H10Y20071   5.589   1.421   9.315 -1.4279  1.0934  0.1228
  176SOPE  C31120072   5.589   1.571   9.154  0.1726 -0.2718 -0.2922
  176SOPE  H11X20073   5.697   1.583   9.175  0.2379 -3.5343  1.9916
  176SOPE  H11Y20074   5.531   1.654   9.200 -2.6344 -1.8716 -0.6742
  176SOPE  C31220075   5.563   1.582   9.003  0.4967 -0.1360  0.0760
  176SOPE  H12X20076   5.453   1.573   8.987  0.5363 -0.1844 -0.1734
  176SOPE  H12Y20077   5.613   1.500   8.947 -1.5868 -0.7965 -0.9109
  176SOPE  C31320078   5.622   1.721   8.951 -0.3941 -0.5869  0.6057
  176SOPE  H13X20079   5.730   1.740   8.970 -0.4415 -2.2549  2.9755
  176SOPE  H13Y20080   5.582   1.808   9.006  2.0071  0.0326  1.5072
  176SOPE  C31420081   5.580   1.741   8.801  0.3912  0.1335  0.8877
  176SOPE  H14X20082   5.470   1.733   8.794  0.4807  0.3859 -3.1635
  176SOPE  H14Y20083   5.612   1.654   8.739 -0.2895  0.0099  0.7071
  176SOPE  C31520084   5.629   1.876   8.742  0.4188  0.2400 -0.0290
  176SOPE  H15X20085   5.733   1.904   8.769  0.8521 -0.3115 -1.0799
  176SOPE  H15Y20086   5.564   1.954   8.789 -0.8525 -1.1846  0.6899
  176SOPE  C31620087   5.595   1.871   8.598  0.0304 -0.1545  0.0890
  176SOPE  H16X20088   5.621   1.772   8.556 -1.1504 -0.2408 -0.4752
  176SOPE  H16Y20089   5.665   1.944   8.551 -0.2315 -0.7947 -1.3507
  176SOPE  C31720090   5.444   1.903   8.558 -0.5651 -0.3903  0.5894
  176SOPE  H17X20091   5.420   2.009   8.582 -1.0003 -0.0159 -1.3492
  176SOPE  H17Y20092   5.373   1.839   8.614 -2.1341  2.4034  1.9950
  176SOPE  C31820093   5.423   1.888   8.406  0.7563  0.0024 -0.4399
  176SOPE  H18X20094   5.483   1.954   8.340  0.6262 -1.2378 -1.8728
  176SOPE  H18Y20095   5.316   1.895   8.374  1.4755  1.8940 -2.7224
  176SOPE  H18Z20096   5.458   1.785   8.382  0.8811 -0.1716  0.4569
  177SOPE     N20097   5.730   6.110  10.789 -0.4557  0.2267  0.3053
  177SOPE   HN120098   5.683   6.154  10.708 -0.2454 -1.4636 -0.7890
  177SOPE   HN220099   5.781   6.189  10.834 -2.7370  1.9062  0.0655
  177SOPE   HN320100   5.795   6.048  10.736 -2.4925  0.1862 -2.3434
  177SOPE   C1220101   5.646   6.036  10.892 -0.1139  0.3550  0.1272
  177SOPE  H12A20102   5.596   6.113  10.955  3.7481  0.5516  3.3666
  177SOPE  H12B20103   5.713   5.974  10.955  0.8377  2.2973  1.1253
  177SOPE   C1120104   5.545   5.948  10.821 -0.4742  0.1187  0.5419
  177SOPE  H11A20105   5.496   5.871  10.886 -1.8524 -1.2793 -1.9871
  177SOPE  H11B20106   5.604   5.883  10.753 -2.2512  0.0028 -0.9768
  177SOPE     P20107   5.316   6.068  10.826  0.4869  0.3491 -0.3091
  177SOPE   O1320108   5.333   6.043  10.972  0.2861 -0.3673  0.2073
  177SOPE   O1420109   5.209   5.988  10.762 -0.3649  0.7710  0.2504
  177SOPE   O1220110   5.447   6.021  10.752  0.2557  0.6516 -0.1635
  177SOPE   O1120111   5.311   6.220  10.787 -0.1231 -0.0273  0.5066
  177SOPE    C120112   5.191   6.286  10.752 -0.1846  0.1437 -0.0561
  177SOPE    HA20113   5.207   6.394  10.771 -2.1331  0.3315  0.7174
  177SOPE    HB20114   5.118   6.262  10.831  3.4921  2.1657  4.3876
  177SOPE    C220115   5.155   6.265  10.600  0.6095 -0.1451 -0.2412
  177SOPE    HS20116   5.100   6.170  10.590 -0.6309  0.3497  1.4632
  177SOPE   O2120117   5.276   6.265  10.521  0.1536  0.5273  0.0458
  177SOPE   C2120118   5.287   6.187  10.413 -0.0451 -0.3888 -0.9247
  177SOPE   O2220119   5.202   6.114  10.364  0.4143 -0.2869  0.3836
  177SOPE   C2220120   5.426   6.195  10.355 -0.0496 -0.3062  0.4074
  177SOPE   H2R20121   5.492   6.115  10.395  1.0032  1.8544  3.2984
  177SOPE   H2S20122   5.468   6.293  10.385 -2.3080  0.0159  2.8657
  177SOPE    C320123   5.061   6.388  10.566 -0.7964 -0.8799  0.5555
  177SOPE    HX20124   5.128   6.477  10.571 -1.2384 -0.6167  2.6363
  177SOPE    HY20125   4.980   6.394  10.642  0.2646 -1.3574  1.7701
  177SOPE   O3120126   5.009   6.380  10.429  0.2111 -0.1795 -0.8704
  177SOPE   C3120127   4.911   6.299  10.413  0.7432  0.4307  0.6528
  177SOPE   O3220128   4.843   6.252  10.499  0.2101  0.6072 -0.0885
  177SOPE   C3220129   4.892   6.271  10.268 -0.5037 -0.1347 -0.5810
  177SOPE   H2X20130   4.981   6.213  10.234  1.5063  0.9840  2.3662
  177SOPE   H2Y20131   4.891   6.369  10.217 -4.6833 -0.8999 -2.3670
  177SOPE   C2320132   5.419   6.182  10.204 -0.2784  0.7769  0.6242
  177SOPE   H3R20133   5.349   6.103  10.169 -1.4790  1.5810  1.1514
  177SOPE   H3S20134   5.517   6.146  10.168 -1.2797 -1.2000 -0.2507
  177SOPE   C2420135   5.402   6.317  10.133 -0.9775  0.0058  0.0848
  177SOPE   H4R20136   5.486   6.385  10.157 -0.9176 -0.2161  0.5195
  177SOPE   H4S20137   5.422   6.289  10.027 -1.1925 -0.8097  0.2471
  177SOPE   C2520138   5.271   6.383  10.152 -0.5658  0.2501 -0.2342
  177SOPE   H5R20139   5.196   6.306  10.125 -0.7375  0.4308 -0.2755
  177SOPE   H5S20140   5.259   6.414  10.258  1.2612  1.7825 -0.4194
  177SOPE   C2620141   5.255   6.507  10.066 -0.0140 -0.0156 -0.1520
  177SOPE   H6R20142   5.321   6.589  10.103 -0.2916  0.1795 -0.0879
  177SOPE   H6S20143   5.304   6.499   9.966  2.6024 -0.2712  1.0744
  177SOPE   C2720144   5.113   6.548  10.061 -0.1262  0.4631 -0.4544
  177SOPE   H7R20145   5.054   6.479   9.996  0.4019  0.5026 -0.9932
  177SOPE   H7S20146   5.071   6.521  10.160  1.4497 -1.1918 -0.1761
  177SOPE   C2820147   5.089   6.699  10.033 -0.2609  0.2772  0.1085
  177SOPE   H8R20148   4.979   6.713  10.043 -0.6196 -0.9650 -1.5996
  177SOPE   H8S20149   5.143   6.749  10.116  0.1698 -0.7971  0.4851
  177SOPE   C2920150   5.124   6.748   9.895  0.1755  0.0057  0.3168
  177SOPE   H9120151   5.232   6.771   9.886  0.0807  1.7872  2.6883
  177SOPE  C21020152   5.044   6.771   9.783 -0.2257 -0.3103 -0.4933
  177SOPE  H10120153   5.087   6.820   9.695 -1.9717  1.4305 -0.4352
  177SOPE  C21120154   4.896   6.752   9.774  0.0412 -0.6744  0.0053
  177SOPE  H11R20155   4.850   6.852   9.786  1.0689 -0.3990  2.2351
  177SOPE  H11S20156   4.855   6.691   9.858 -0.1915  0.6191  0.8654
  177SOPE  C21220157   4.871   6.697   9.631  0.1404  0.5598  0.1868
  177SOPE  H12R20158   4.771   6.648   9.634 -1.0286  2.7783 -0.3787
  177SOPE  H12S20159   4.935   6.612   9.598 -0.1548  0.6105 -0.5431
  177SOPE  C21320160   4.863   6.792   9.513 -0.1337 -0.3652 -0.5019
  177SOPE  H13R20161   4.966   6.827   9.490 -0.1840  0.3762  0.3447
  177SOPE  H13S20162   4.808   6.882   9.547  0.5775 -0.1457  0.0875
  177SOPE  C21420163   4.799   6.742   9.387 -0.1286 -0.4761  0.5084
  177SOPE  H14R20164   4.698   6.706   9.416 -0.6010  0.9941  0.7578
  177SOPE  H14S20165   4.860   6.658   9.348  0.2782 -0.7501  1.7106
  177SOPE  C21520166   4.782   6.842   9.271  0.5247 -0.5060 -0.0077
  177SOPE  H15R20167   4.871   6.842   9.204  0.2013  3.9605 -0.7553
  177SOPE  H15S20168   4.785   6.946   9.311  0.8272 -0.6420  0.3254
  177SOPE  C21620169   4.653   6.836   9.197 -0.5871  0.2689  0.9628
  177SOPE  H16R20170   4.565   6.851   9.263 -0.7090  0.9380  0.6526
  177SOPE  H16S20171   4.639   6.735   9.152 -0.7453  0.6130  0.2179
  177SOPE  C21720172   4.645   6.927   9.067  0.3747 -0.6149  0.3084
  177SOPE  H17R20173   4.562   6.905   8.996 -0.9923  0.8113  1.4126
  177SOPE  H17S20174   4.740   6.910   9.012  1.9864  3.3456  1.5370
  177SOPE  C21820175   4.641   7.074   9.100  0.3231  0.4250 -0.6862
  177SOPE  H18R20176   4.563   7.098   9.175  0.1658  0.6394 -0.9137
  177SOPE  H18S20177   4.628   7.139   9.010 -1.0193 -0.8794 -1.4777
  177SOPE  H18T20178   4.732   7.104   9.156 -0.8041  1.7422  0.5223
  177SOPE   C3320179   4.768   6.190  10.221  0.3875 -0.1813  0.2339
  177SOPE   H3X20180   4.679   6.252  10.245  2.1171  2.2665  0.7077
  177SOPE   H3Y20181   4.758   6.100  10.286  3.5379  0.5911  2.0158
  177SOPE   C3420182   4.769   6.158  10.069 -0.1628  0.0651  0.0189
  177SOPE   H4X20183   4.673   6.103  10.057 -1.3918  2.0917 -0.0517
  177SOPE   H4Y20184   4.848   6.090  10.033  0.8055  1.0952  0.1553
  177SOPE   C3520185   4.753   6.275   9.967 -0.2083  0.0856 -0.1590
  177SOPE   H5X20186   4.823   6.355   9.998  0.6711 -0.8690  0.3624
  177SOPE   H5Y20187   4.650   6.317   9.970  0.1583  1.0329 -0.5023
  177SOPE   C3620188   4.786   6.230   9.825  0.1423  0.4226 -0.8255
  177SOPE   H6X20189   4.729   6.136   9.811  1.2559 -0.4479  0.2885
  177SOPE   H6Y20190   4.893   6.201   9.814  0.3907  0.5661  0.8635
  177SOPE   C3720191   4.738   6.326   9.721  0.3396 -1.0783  0.1995
  177SOPE   H7X20192   4.800   6.418   9.729  1.8033 -2.1165  1.3270
  177SOPE   H7Y20193   4.634   6.358   9.742  0.3908 -0.8053  0.0541
  177SOPE   C3820194   4.746   6.267   9.582 -0.0609  0.1266 -0.0321
  177SOPE   H8X20195   4.662   6.196   9.566 -0.9921  1.3622 -0.8133
  177SOPE   H8Y20196   4.846   6.221   9.568  0.4771 -0.5971  4.5343
  177SOPE   C3920197   4.719   6.378   9.466  0.1710  0.2255  0.1275
  177SOPE   H9X20198   4.776   6.471   9.487 -0.3637  0.3895  0.8663
  177SOPE   H9Y20199   4.612   6.408   9.461  0.2248  1.2104  3.1344
  177SOPE  C31020200   4.766   6.331   9.328 -0.5583 -0.1598  0.0668
  177SOPE  H10X20201   4.749   6.222   9.322  1.5348 -0.4503 -2.5096
  177SOPE  H10Y20202   4.877   6.343   9.329 -0.6045  0.3056  1.7638
  177SOPE  C31120203   4.707   6.410   9.212 -0.7060  0.3195  0.8664
  177SOPE  H11X20204   4.705   6.517   9.241  2.1451  1.3147 -1.9809
  177SOPE  H11Y20205   4.602   6.376   9.200 -0.3421 -0.0598 -1.9739
  177SOPE  C31220206   4.778   6.373   9.081  0.4272  0.3227  0.3793
  177SOPE  H12X20207   4.725   6.423   8.997  0.1158 -1.0083 -0.2453
  177SOPE  H12Y20208   4.750   6.266   9.065 -0.3032  0.1275  2.6494
  177SOPE  C31320209   4.927   6.404   9.064  0.0812 -0.2285  0.0430
  177SOPE  H13X20210   4.964   6.386   8.961  0.7038 -0.6807  0.3392
  177SOPE  H13Y20211   4.978   6.342   9.141 -2.1906 -1.7070  0.4697
  177SOPE  C31420212   4.967   6.555   9.089  0.5033 -0.2827  0.2240
  177SOPE  H14X20213   4.931   6.571   9.193  0.1300  0.5080 -0.0166
  177SOPE  H14Y20214   4.897   6.614   9.026 -1.5466 -0.1611  2.4913
  177SOPE  C31520215   5.114   6.591   9.075 -0.3940  0.1971  0.2636
  177SOPE  H15X20216   5.119   6.701   9.090 -2.6967  0.2153  1.3960
  177SOPE  H15Y20217   5.160   6.557   8.980 -0.0749 -2.0644  1.1407
  177SOPE  C31620218   5.203   6.521   9.176 -0.4460 -0.3034 -1.1915
  177SOPE  H16X20219   5.161   6.425   9.211  0.4537  0.0216  0.9462
  177SOPE  H16Y20220   5.201   6.587   9.265  1.9301  0.6938 -1.7899
  177SOPE  C31720221   5.349   6.508   9.132  0.0549 -0.1991  0.4550
  177SOPE  H17X20222   5.363   6.434   9.050 -2.8225  3.7882 -4.2338
  177SOPE  H17Y20223   5.411   6.464   9.213  0.9627 -1.0185 -0.6409
  177SOPE  C31820224   5.402   6.639   9.084  0.4293  0.0604  0.3290
  177SOPE  H18X20225   5.351   6.697   9.004 -1.3766  0.4203  1.6698
  177SOPE  H18Y20226   5.510   6.631   9.060 -0.1324 -0.5384 -2.2381
  177SOPE  H18Z20227   5.393   6.710   9.170  2.5610  0.6627  0.1014
  178SOPE     N20228   1.164   4.335  10.960 -0.0333 -0.9649 -0.5431
  178SOPE   HN120229   1.227   4.302  11.036  0.8279 -2.1467 -1.7306
  178SOPE   HN220230   1.065   4.338  10.991  0.2417  1.5164  0.3381
  178SOPE   HN320231   1.178   4.273  10.878 -0.6220  0.4090 -1.7228
  178SOPE   C1220232   1.212   4.481  10.927 -0.3499  0.4147 -0.4640
  178SOPE  H12A20233   1.215   4.539  11.022 -1.9373  0.5442 -0.4697
  178SOPE  H12B20234   1.147   4.526  10.849 -0.8749 -2.9827 -2.1390
  178SOPE   C1120235   1.356   4.471  10.870 -0.0267 -0.2030 -0.4154
  178SOPE  H11A20236   1.350   4.388  10.797 -1.9651  0.6237 -1.2702
  178SOPE  H11B20237   1.429   4.422  10.938  0.2904 -0.3126 -0.8319
  178SOPE     P20238   1.370   4.648  10.677  0.2835  0.2156 -0.2756
  178SOPE   O1320239   1.444   4.774  10.653 -0.2601  0.2586  0.2785
  178SOPE   O1420240   1.226   4.639  10.648  0.4111  0.0284  0.6220
  178SOPE   O1220241   1.394   4.593  10.822 -0.1274 -0.0284  0.2984
  178SOPE   O1120242   1.438   4.535  10.596  0.0319  0.0525 -0.2284
  178SOPE    C120243   1.579   4.502  10.612  0.6763  0.4843  0.5950
  178SOPE    HA20244   1.583   4.391  10.602 -0.0990  0.5646 -0.8146
  178SOPE    HB20245   1.621   4.532  10.710  2.6149 -1.5734  0.4870
  178SOPE    C220246   1.681   4.561  10.514 -0.5287 -1.1192 -0.0454
  178SOPE    HS20247   1.707   4.654  10.568  0.1584 -3.0702  3.2872
  178SOPE   O2120248   1.618   4.574  10.384 -0.2527 -0.4806  0.3255
  178SOPE   C2120249   1.645   4.684  10.311 -0.0366  0.6555  0.0549
  178SOPE   O2220250   1.709   4.780  10.351 -0.0415  0.4618  0.1004
  178SOPE   C2220251   1.554   4.676  10.183  0.3055  0.0461 -0.2156
  178SOPE   H2R20252   1.504   4.775  10.182 -0.9297 -0.5481 -1.8466
  178SOPE   H2S20253   1.480   4.594  10.194  0.5427 -0.2911 -1.0694
  178SOPE    C320254   1.804   4.464  10.497 -0.3359 -0.1520  0.2379
  178SOPE    HX20255   1.752   4.366  10.490 -0.6681 -0.3082  3.4735
  178SOPE    HY20256   1.863   4.452  10.590  0.1292 -0.7347 -0.1250
  178SOPE   O3120257   1.883   4.494  10.387 -0.2271  0.7656  0.4104
  178SOPE   C3120258   1.981   4.582  10.399  0.3246 -0.6771  0.0911
  178SOPE   O3220259   1.997   4.652  10.496  0.5962 -0.4868 -0.2368
  178SOPE   C3220260   2.070   4.575  10.272 -0.0081 -0.5612  0.1419
  178SOPE   H2X20261   2.114   4.474  10.259  0.0478 -0.5591  0.3173
  178SOPE   H2Y20262   2.155   4.646  10.280 -0.8237  0.4907 -0.2493
  178SOPE   C2320263   1.644   4.669  10.055  0.5486 -0.4039 -0.5428
  178SOPE   H3R20264   1.710   4.581  10.068  0.2635 -0.5369  0.0571
  178SOPE   H3S20265   1.707   4.760  10.054  0.0139  0.0316  1.1593
  178SOPE   C2420266   1.559   4.645   9.932  0.0913 -0.1109 -0.0121
  178SOPE   H4R20267   1.508   4.547   9.946 -1.0122  0.3798 -0.5248
  178SOPE   H4S20268   1.485   4.728   9.934  0.7566  0.4895  1.8652
  178SOPE   C2520269   1.648   4.638   9.813  0.2465  0.2255  0.0534
  178SOPE   H5R20270   1.675   4.744   9.788 -1.6771  0.2158 -2.4544
  178SOPE   H5S20271   1.740   4.583   9.844  1.2815  3.0946  2.5929
  178SOPE   C2620272   1.576   4.568   9.699  0.0397 -0.4955  0.0569
  178SOPE   H6R20273   1.580   4.458   9.714  0.2993 -0.6125 -0.8316
  178SOPE   H6S20274   1.476   4.615   9.712  0.5311  0.9645 -1.1829
  178SOPE   C2720275   1.621   4.614   9.559  0.1762  0.3791  0.4200
  178SOPE   H7R20276   1.585   4.716   9.536  0.1866  0.2988  0.0389
  178SOPE   H7S20277   1.731   4.623   9.546  0.3573 -0.9110  0.9021
  178SOPE   C2820278   1.570   4.524   9.439  0.3964  0.1300 -0.2755
  178SOPE   H8R20279   1.583   4.418   9.470  2.7886  0.0628 -1.2157
  178SOPE   H8S20280   1.465   4.553   9.419  0.7653  0.7750 -1.3892
  178SOPE   C2920281   1.658   4.528   9.324  0.7011  0.0507 -0.1162
  178SOPE   H9120282   1.752   4.470   9.317  0.8032  0.1313  0.5562
  178SOPE  C21020283   1.643   4.609   9.222  0.5347  0.1764 -0.1814
  178SOPE  H10120284   1.725   4.604   9.149  0.1534 -0.6945 -0.5701
  178SOPE  C21120285   1.535   4.708   9.179  0.4035 -0.1815 -0.5611
  178SOPE  H11R20286   1.547   4.794   9.249  1.5152  0.2910 -1.2974
  178SOPE  H11S20287   1.436   4.660   9.194  0.3856 -0.2188 -0.7945
  178SOPE  C21220288   1.558   4.769   9.038 -0.5395 -0.0560  0.1445
  178SOPE  H12R20289   1.667   4.784   9.023 -0.7310  0.6213 -0.6185
  178SOPE  H12S20290   1.515   4.871   9.034  0.4925  0.4077  0.6140
  178SOPE  C21320291   1.498   4.679   8.924  0.3235  0.0085  0.1393
  178SOPE  H13R20292   1.498   4.742   8.831 -0.5893  2.1270  1.4896
  178SOPE  H13S20293   1.392   4.672   8.957  1.1050  1.2424  3.2088
  178SOPE  C21420294   1.553   4.539   8.900 -0.1011  0.2280  0.2419
  178SOPE  H14R20295   1.517   4.468   8.977 -1.2990  2.3750  1.7686
  178SOPE  H14S20296   1.664   4.542   8.906 -0.0617 -0.2639 -0.1678
  178SOPE  C21520297   1.505   4.494   8.758 -0.3888  0.6740 -0.1945
  178SOPE  H15R20298   1.517   4.583   8.692 -0.2282  2.6830  2.3896
  178SOPE  H15S20299   1.397   4.466   8.755 -0.0503 -0.6689 -2.2612
  178SOPE  C21620300   1.578   4.368   8.697 -0.4799 -0.0241  0.0655
  178SOPE  H16R20301   1.578   4.283   8.769 -1.0801  1.1961  1.5876
  178SOPE  H16S20302   1.685   4.397   8.694 -0.4753 -0.0451  0.0219
  178SOPE  C21720303   1.543   4.331   8.548 -0.2958  0.3308 -0.2097
  178SOPE  H17R20304   1.601   4.392   8.476  0.8029  1.1277  1.2935
  178SOPE  H17S20305   1.439   4.369   8.533 -0.9189 -0.8272  0.9170
  178SOPE  C21820306   1.546   4.182   8.513 -0.1730  0.7183  0.3998
  178SOPE  H18R20307   1.483   4.121   8.582  0.7675 -0.0699  0.5783
  178SOPE  H18S20308   1.652   4.149   8.512  0.8596  3.5403 -3.2558
  178SOPE  H18T20309   1.505   4.163   8.412  1.5652  0.9098 -0.3746
  178SOPE   C3320310   2.008   4.595  10.136 -0.0654  0.3955  0.8096
  178SOPE   H3X20311   1.951   4.690  10.128 -2.2266 -0.7378  1.8553
  178SOPE   H3Y20312   1.940   4.509  10.122 -1.1896  1.2465  0.8610
  178SOPE   C3420313   2.116   4.602  10.022  0.0128 -0.7904  0.3381
  178SOPE   H4X20314   2.177   4.510  10.032  0.2032 -0.9067 -1.4659
  178SOPE   H4Y20315   2.171   4.696  10.041 -0.3233 -0.8436  1.6829
  178SOPE   C3520316   2.052   4.623   9.888 -0.3445 -0.1474 -0.5923
  178SOPE   H5X20317   1.985   4.711   9.881 -0.4729 -0.0244  1.6862
  178SOPE   H5Y20318   1.986   4.539   9.857 -0.0479  0.0749 -1.9155
  178SOPE   C3620319   2.138   4.664   9.766 -0.1704  0.0812  0.3600
  178SOPE   H6X20320   2.215   4.584   9.761 -0.9085 -0.7228  1.4006
  178SOPE   H6Y20321   2.182   4.766   9.771 -0.6900  0.4616 -1.8011
  178SOPE   C3720322   2.045   4.667   9.639 -0.1077  0.3337 -0.9338
  178SOPE   H7X20323   1.984   4.759   9.640 -1.1933 -0.3625 -0.1451
  178SOPE   H7Y20324   1.965   4.590   9.644 -1.9776  2.2609  1.6964
  178SOPE   C3820325   2.123   4.647   9.506 -0.4249 -0.4237 -0.4766
  178SOPE   H8X20326   2.148   4.539   9.496  0.6254 -0.0674 -2.1497
  178SOPE   H8Y20327   2.207   4.718   9.520 -0.4525  0.0108 -2.2827
  178SOPE   C3920328   2.033   4.660   9.382 -0.2526  0.0255 -0.0611
  178SOPE   H9X20329   2.001   4.766   9.377 -1.2134 -0.3300 -3.0506
  178SOPE   H9Y20330   1.944   4.595   9.389 -0.2078 -0.2180 -1.5296
  178SOPE  C31020331   2.114   4.640   9.257 -0.2162 -0.1331 -0.1620
  178SOPE  H10X20332   2.157   4.538   9.251  2.5197  0.9294 -0.2521
  178SOPE  H10Y20333   2.205   4.705   9.261  0.5484 -1.1898  2.6193
  178SOPE  C31120334   2.025   4.667   9.132  0.2679 -0.3662  0.2080
  178SOPE  H11X20335   1.976   4.766   9.145  2.0135  0.4386  1.0015
  178SOPE  H11Y20336   1.948   4.588   9.139  1.4358 -1.5495  0.0433
  178SOPE  C31220337   2.103   4.654   8.999 -0.5739  0.6526  0.0610
  178SOPE  H12X20338   2.164   4.562   8.993 -0.8365  0.5475 -1.3752
  178SOPE  H12Y20339   2.174   4.740   8.997 -1.5943  1.5200 -0.0328
  178SOPE  C31320340   2.015   4.652   8.877 -0.1665 -0.1988  0.8720
  178SOPE  H13X20341   1.932   4.579   8.881  0.2649 -0.9179 -1.6313
  178SOPE  H13Y20342   2.078   4.644   8.785 -1.4916  1.5532 -0.2593
  178SOPE  C31420343   1.956   4.797   8.851 -0.2644  0.0617 -0.2658
  178SOPE  H14X20344   2.039   4.868   8.830 -0.6859  0.4377 -0.6667
  178SOPE  H14Y20345   1.924   4.837   8.950 -0.5637  0.9505 -0.7088
  178SOPE  C31520346   1.839   4.798   8.747 -0.6992  0.4233  0.2738
  178SOPE  H15X20347   1.759   4.740   8.799 -0.0688  0.6988  1.6035
  178SOPE  H15Y20348   1.876   4.744   8.657  2.2153 -0.0996  1.6416
  178SOPE  C31620349   1.791   4.941   8.727  0.1929 -0.0726  0.8888
  178SOPE  H16X20350   1.878   5.005   8.701  0.3469 -0.4986  0.3361
  178SOPE  H16Y20351   1.748   4.980   8.821 -4.9165 -0.6462 -0.8847
  178SOPE  C31720352   1.681   4.945   8.618 -0.1187  0.2970  0.0095
  178SOPE  H17X20353   1.603   4.868   8.638  0.0472  0.3688  0.9738
  178SOPE  H17Y20354   1.727   4.912   8.523 -0.0741  0.2425  0.0493
  178SOPE  C31820355   1.624   5.082   8.590  0.6219 -1.2413  0.3107
  178SOPE  H18X20356   1.702   5.160   8.603  1.0314 -1.4497 -0.8214
  178SOPE  H18Y20357   1.548   5.107   8.667 -0.7411 -1.8072 -0.8195
  178SOPE  H18Z20358   1.587   5.094   8.486  0.2691  2.1235  0.7191
  179SOPE     N20359   2.496   6.609   6.136  0.1208  0.1166 -0.4863
  179SOPE   HN120360   2.463   6.538   6.067 -1.9548  0.7957 -0.2527
  179SOPE   HN220361   2.555   6.687   6.100  1.6308 -0.5706  0.3779
  179SOPE   HN320362   2.556   6.556   6.202  0.5593  0.5062 -0.5610
  179SOPE   C1220363   2.395   6.679   6.225 -0.3361 -0.2368 -0.0631
  179SOPE  H12A20364   2.343   6.744   6.152  1.3898 -0.3570 -1.4706
  179SOPE  H12B20365   2.464   6.735   6.293 -1.5749  1.4251 -0.1147
  179SOPE   C1120366   2.295   6.585   6.295 -0.8510 -0.0695 -0.4719
  179SOPE  H11A20367   2.215   6.554   6.224 -1.2644  1.4813 -0.7252
  179SOPE  H11B20368   2.243   6.653   6.365  0.2485 -0.8894  1.2196
  179SOPE     P20369   2.316   6.426   6.497 -0.2904 -0.3275  0.2473
  179SOPE   O1320370   2.405   6.328   6.564 -0.3853  0.0180 -0.3339
  179SOPE   O1420371   2.180   6.379   6.475  0.3091 -0.2229  0.4287
  179SOPE   O1220372   2.362   6.478   6.355 -0.0130  0.0418 -0.3523
  179SOPE   O1120373   2.317   6.557   6.586  0.5237 -0.2124 -0.1689
  179SOPE    C120374   2.424   6.635   6.639 -0.1302  0.0426  1.0312
  179SOPE    HA20375   2.401   6.741   6.617  1.1548  0.5083  1.8330
  179SOPE    HB20376   2.520   6.616   6.586  0.7765  1.7350  1.9962
  179SOPE    C220377   2.430   6.615   6.798 -0.7031 -0.0165 -0.0669
  179SOPE    HS20378   2.530   6.659   6.815 -0.5139  0.3252 -1.8366
  179SOPE   O2120379   2.420   6.482   6.844  0.2811  0.4534 -0.9577
  179SOPE   C2120380   2.526   6.405   6.824 -0.2386  0.1704  0.2109
  179SOPE   O2220381   2.639   6.446   6.785  0.1778 -0.2993 -0.4274
  179SOPE   C2220382   2.498   6.263   6.852  0.5178  0.3780 -0.5923
  179SOPE   H2R20383   2.520   6.214   6.755  0.1636  0.4782 -0.7256
  179SOPE   H2S20384   2.391   6.245   6.875  1.0610 -1.0862  0.9546
  179SOPE    C320385   2.331   6.708   6.872 -0.0044  0.5175 -0.7447
  179SOPE    HX20386   2.235   6.655   6.857  0.9240 -1.2914 -0.5994
  179SOPE    HY20387   2.322   6.803   6.817 -0.2175  0.3467 -1.0055
  179SOPE   O3120388   2.365   6.720   7.014 -0.4282  0.3935 -0.3988
  179SOPE   C3120389   2.257   6.710   7.096 -0.4727 -0.0146  0.0640
  179SOPE   O3220390   2.139   6.698   7.059  0.6301 -0.3361 -0.2022
  179SOPE   C3220391   2.310   6.709   7.241  0.3842  0.5261 -0.8454
  179SOPE   H2X20392   2.228   6.691   7.314  1.1902 -1.5787 -0.3939
  179SOPE   H2Y20393   2.350   6.811   7.261 -2.0022  1.3966 -0.2380
  179SOPE   C2320394   2.598   6.201   6.957 -0.2260  0.2452 -0.0202
  179SOPE   H3R20395   2.697   6.246   6.934 -1.0187  1.6423 -0.9114
  179SOPE   H3S20396   2.600   6.091   6.941 -0.7952  0.4099 -1.3526
  179SOPE   C2420397   2.542   6.239   7.094 -0.0737 -0.1734  0.4423
  179SOPE   H4R20398   2.548   6.350   7.103  0.7879  0.1092 -2.5325
  179SOPE   H4S20399   2.440   6.196   7.091 -0.2070  0.1222  0.6455
  179SOPE   C2520400   2.624   6.173   7.204 -0.1862  0.7693 -0.7415
  179SOPE   H5R20401   2.672   6.078   7.173 -2.6770 -1.2051  1.0361
  179SOPE   H5S20402   2.700   6.245   7.240 -0.1658 -0.3858  1.7168
  179SOPE   C2620403   2.538   6.162   7.336  0.2954  0.2357 -0.5178
  179SOPE   H6R20404   2.600   6.176   7.427 -0.3572 -0.5307  0.0513
  179SOPE   H6S20405   2.468   6.247   7.329 -0.5219 -0.0799  2.6623
  179SOPE   C2720406   2.454   6.029   7.339 -0.5877  0.0205 -0.0627
  179SOPE   H7R20407   2.381   6.041   7.257  0.8077 -2.8013 -1.8687
  179SOPE   H7S20408   2.522   5.946   7.309 -0.0773  1.0376 -1.8843
  179SOPE   C2820409   2.392   5.998   7.470  0.4857 -0.1030  0.5277
  179SOPE   H8R20410   2.323   5.912   7.456  0.5301 -0.2279  1.0538
  179SOPE   H8S20411   2.470   5.978   7.546 -0.0853 -2.2128  0.6196
  179SOPE   C2920412   2.309   6.124   7.508  0.0588  0.3471 -0.6027
  179SOPE   H9120413   2.276   6.199   7.435  0.4649 -1.0162 -2.2522
  179SOPE  C21020414   2.298   6.161   7.638 -0.4720 -0.4351 -0.0660
  179SOPE  H10120415   2.228   6.245   7.650 -1.5723 -1.2072 -0.9360
  179SOPE  C21120416   2.346   6.099   7.764  0.7037 -0.0213 -0.0270
  179SOPE  H11R20417   2.444   6.150   7.778 -1.0575  3.3578  1.1010
  179SOPE  H11S20418   2.364   5.990   7.753  1.6942  0.3597 -2.8672
  179SOPE  C21220419   2.272   6.129   7.899  0.4870  0.3873  0.3080
  179SOPE  H12R20420   2.164   6.108   7.885  0.5764 -1.0480  1.5727
  179SOPE  H12S20421   2.283   6.238   7.920  2.6704  0.1440  0.6263
  179SOPE  C21320422   2.336   6.050   8.018  0.3294  0.6245  0.9074
  179SOPE  H13R20423   2.447   6.047   8.012  0.3171  0.2708  0.8137
  179SOPE  H13S20424   2.299   5.945   8.009 -0.5348  0.8346  1.8825
  179SOPE  C21420425   2.294   6.116   8.150 -0.3130 -0.1110  0.1629
  179SOPE  H14R20426   2.184   6.108   8.168 -0.3737 -1.8734 -0.6891
  179SOPE  H14S20427   2.324   6.222   8.142 -2.0962  0.5271  1.4487
  179SOPE  C21520428   2.349   6.036   8.266 -0.2655 -0.0781  0.2552
  179SOPE  H15R20429   2.456   6.015   8.248 -0.4800 -0.5910 -0.4973
  179SOPE  H15S20430   2.305   5.935   8.245  0.7330  0.0521 -3.0470
  179SOPE  C21620431   2.321   6.089   8.408 -0.2242 -0.7495  0.4129
  179SOPE  H16R20432   2.351   6.196   8.402  0.6996 -0.9593  1.1146
  179SOPE  H16S20433   2.377   6.042   8.491 -0.6601  1.3926  2.0209
  179SOPE  C21720434   2.173   6.089   8.452  0.1034 -0.5101  0.7483
  179SOPE  H17R20435   2.141   5.983   8.442  0.6313 -0.5710 -0.4242
  179SOPE  H17S20436   2.114   6.144   8.376  0.0276  0.4319  1.4667
  179SOPE  C21820437   2.147   6.134   8.590  0.3997 -0.1988 -0.7444
  179SOPE  H18R20438   2.181   6.237   8.614 -2.3139  0.9350 -1.3750
  179SOPE  H18S20439   2.198   6.067   8.663 -0.3510  1.0457  1.0179
  179SOPE  H18T20440   2.037   6.130   8.608  0.6040  0.5568  0.8507
  179SOPE   C3320441   2.427   6.606   7.259  0.3803 -0.5325 -0.1459
  179SOPE   H3X20442   2.502   6.595   7.178 -0.9566  0.7052 -1.6263
  179SOPE   H3Y20443   2.383   6.506   7.277  0.9808 -0.8797 -0.6041
  179SOPE   C3420444   2.499   6.659   7.382  0.0375 -0.3001  0.1486
  179SOPE   H4X20445   2.515   6.769   7.375 -1.3154 -0.1192 -0.4232
  179SOPE   H4Y20446   2.599   6.616   7.364 -1.4141 -4.4093  0.9322
  179SOPE   C3520447   2.451   6.610   7.510  0.3698 -0.0353  0.5979
  179SOPE   H5X20448   2.453   6.499   7.517  0.9620  0.0033  1.1064
  179SOPE   H5Y20449   2.344   6.625   7.535  0.1164 -1.7589  0.6358
  179SOPE   C3620450   2.537   6.660   7.632  0.3856  0.3696  0.1843
  179SOPE   H6X20451   2.510   6.766   7.652 -3.0811 -0.4789  0.6597
  179SOPE   H6Y20452   2.640   6.633   7.602 -0.1243 -2.9326  0.9339
  179SOPE   C3720453   2.502   6.575   7.758 -0.0153  0.4216 -0.1247
  179SOPE   H7X20454   2.491   6.468   7.730 -1.1368  0.4063  0.2809
  179SOPE   H7Y20455   2.398   6.603   7.789  1.0981  2.1866  2.3750
  179SOPE   C3820456   2.603   6.583   7.875  1.3538  0.1300  0.2273
  179SOPE   H8X20457   2.583   6.672   7.938 -0.6355 -0.1787  0.1085
  179SOPE   H8Y20458   2.708   6.577   7.839  1.0268  0.4552 -0.8230
  179SOPE   C3920459   2.590   6.457   7.969 -0.0588 -0.8359  0.0866
  179SOPE   H9X20460   2.632   6.364   7.925  0.6267  0.1516 -1.4321
  179SOPE   H9Y20461   2.484   6.435   7.996  0.4874 -3.4250  0.3466
  179SOPE  C31020462   2.656   6.481   8.107  0.1385  0.0475  0.0721
  179SOPE  H10X20463   2.644   6.588   8.135  1.8437  0.4498 -0.5690
  179SOPE  H10Y20464   2.767   6.475   8.095  0.1529  0.6242 -0.1321
  179SOPE  C31120465   2.602   6.395   8.216 -0.2053 -0.3896  0.2332
  179SOPE  H11X20466   2.615   6.288   8.190  2.4512  0.0499 -0.6219
  179SOPE  H11Y20467   2.494   6.406   8.236 -0.6702 -1.1466 -1.6870
  179SOPE  C31220468   2.684   6.421   8.343  0.1667  0.3921 -0.4911
  179SOPE  H12X20469   2.685   6.529   8.367  0.0864  0.0993  0.9431
  179SOPE  H12Y20470   2.789   6.382   8.349 -0.1082 -0.2707  0.1980
  179SOPE  C31320471   2.626   6.352   8.466  0.5109 -0.2089 -0.1636
  179SOPE  H13X20472   2.620   6.242   8.455  0.1173 -0.2059  0.0040
  179SOPE  H13Y20473   2.523   6.392   8.475  0.6527  0.4954 -1.4560
  179SOPE  C31420474   2.710   6.395   8.593  0.3465 -0.4062 -0.3336
  179SOPE  H14X20475   2.700   6.505   8.607  0.6292 -0.3376 -0.6409
  179SOPE  H14Y20476   2.819   6.378   8.579  1.1471  2.9195  0.8703
  179SOPE  C31520477   2.651   6.333   8.726 -0.6368  0.7344  0.8224
  179SOPE  H15X20478   2.540   6.337   8.720 -0.8445 -2.8133 -3.2653
  179SOPE  H15Y20479   2.687   6.411   8.796  1.4687  0.8399 -0.2722
  179SOPE  C31620480   2.698   6.193   8.746  0.2902 -0.1277 -0.4582
  179SOPE  H16X20481   2.809   6.192   8.749  0.2899 -0.3040 -0.4604
  179SOPE  H16Y20482   2.678   6.134   8.654  2.4012  2.1974 -2.5556
  179SOPE  C31720483   2.638   6.107   8.861  0.1328  0.2471 -0.3378
  179SOPE  H17X20484   2.712   6.025   8.872  1.3544  1.5259  1.6572
  179SOPE  H17Y20485   2.541   6.059   8.837  0.8575 -0.5699 -1.7729
  179SOPE  C31820486   2.624   6.178   8.995 -0.5801  0.2672 -0.2555
  179SOPE  H18X20487   2.543   6.254   9.004  2.1586  3.1619  2.7657
  179SOPE  H18Y20488   2.719   6.224   9.030 -2.0313  1.3418  2.5959
  179SOPE  H18Z20489   2.608   6.096   9.069  2.7120 -1.3806 -1.1837
  180SOPE     N20490   2.496   5.265   6.356  0.5278  0.4477 -0.0408
  180SOPE   HN120491   2.529   5.170   6.382 -0.2363  0.1743 -0.0243
  180SOPE   HN220492   2.439   5.258   6.269  0.6305 -2.9328  0.0253
  180SOPE   HN320493   2.572   5.335   6.346  0.8188  0.5567  2.2964
  180SOPE   C1220494   2.406   5.310   6.471 -0.5995 -0.1728 -0.3209
  180SOPE  H12A20495   2.463   5.375   6.541 -0.9145 -1.9195  1.6518
  180SOPE  H12B20496   2.384   5.224   6.538  0.4353  0.9649  1.5577
  180SOPE   C1120497   2.275   5.385   6.433  0.1776  0.0067  0.5760
  180SOPE  H11A20498   2.294   5.494   6.424 -1.2052  0.2147 -0.0809
  180SOPE  H11B20499   2.197   5.364   6.509  0.0075 -0.6727  0.2180
  180SOPE     P20500   2.086   5.382   6.250 -0.0810  0.0679  0.7156
  180SOPE   O1320501   2.067   5.305   6.127 -0.0275  0.3580  0.4179
  180SOPE   O1420502   2.087   5.530   6.230  0.4280  0.1665 -0.5071
  180SOPE   O1220503   2.228   5.332   6.306 -0.5426 -0.0231  0.2626
  180SOPE   O1120504   1.985   5.338   6.360  0.5423 -0.5465  0.2880
  180SOPE    C120505   1.848   5.375   6.363  0.4659 -0.9309  0.1562
  180SOPE    HA20506   1.787   5.293   6.405 -0.5899  0.6044  1.6984
  180SOPE    HB20507   1.817   5.400   6.259 -0.2326 -1.5986  0.1952
  180SOPE    C220508   1.824   5.504   6.444 -0.2239  0.1641  0.3968
  180SOPE    HS20509   1.876   5.583   6.386  0.6870 -1.1536 -0.6595
  180SOPE   O2120510   1.892   5.483   6.571  0.0508 -0.1704  0.1719
  180SOPE   C2120511   1.896   5.583   6.648 -0.3292 -0.4512  0.5825
  180SOPE   O2220512   1.866   5.695   6.612 -0.5918  0.1297  0.1426
  180SOPE   C2220513   1.942   5.548   6.789 -0.7885 -0.5195 -0.2012
  180SOPE   H2R20514   1.852   5.517   6.847  1.3361  0.8305  4.3036
  180SOPE   H2S20515   1.975   5.642   6.839  1.2056 -1.6211  0.6785
  180SOPE    C320516   1.672   5.544   6.463 -0.8555 -0.8470  0.7395
  180SOPE    HX20517   1.634   5.556   6.359  0.4073  1.0527  0.4444
  180SOPE    HY20518   1.661   5.650   6.493 -0.9423 -0.2299 -1.3405
  180SOPE   O3120519   1.599   5.456   6.544  0.0769  0.2864 -0.1360
  180SOPE   C3120520   1.498   5.371   6.494 -0.0989  0.6137  0.3766
  180SOPE   O3220521   1.473   5.353   6.375  0.4074  0.7359 -0.2758
  180SOPE   C3220522   1.442   5.297   6.611  0.5124 -0.0582 -0.2539
  180SOPE   H2X20523   1.522   5.269   6.682 -0.0638 -2.0286 -0.3214
  180SOPE   H2Y20524   1.404   5.201   6.569  1.5636 -0.1769 -0.9995
  180SOPE   C2320525   2.062   5.448   6.791  0.1525 -0.0628  0.0836
  180SOPE   H3R20526   2.138   5.465   6.711  0.3413 -1.8460 -0.1487
  180SOPE   H3S20527   2.021   5.351   6.756 -0.3479  0.3471 -0.4889
  180SOPE   C2420528   2.125   5.419   6.932  0.3071  0.0728  0.3809
  180SOPE   H4R20529   2.204   5.345   6.907  2.1765  2.7291 -2.4213
  180SOPE   H4S20530   2.187   5.505   6.965  1.4712 -0.0134 -1.4419
  180SOPE   C2520531   2.030   5.370   7.040 -0.4122  0.1807 -0.1559
  180SOPE   H5R20532   1.947   5.442   7.058 -3.2111 -3.2149  1.7751
  180SOPE   H5S20533   1.999   5.265   7.021 -0.8550  0.0007  1.3691
  180SOPE   C2620534   2.106   5.375   7.175  0.1380  0.0375  0.1060
  180SOPE   H6R20535   2.201   5.316   7.173 -0.5382 -1.3203  3.1088
  180SOPE   H6S20536   2.116   5.482   7.200  0.1331 -0.2697  1.4693
  180SOPE   C2720537   2.023   5.305   7.288 -0.0704 -0.8952  0.1445
  180SOPE   H7R20538   1.922   5.351   7.283  1.2148  2.4833  1.6696
  180SOPE   H7S20539   2.019   5.200   7.254 -1.2407 -0.7733 -0.1344
  180SOPE   C2820540   2.076   5.311   7.427 -1.3022  0.0704  0.1999
  180SOPE   H8R20541   2.183   5.280   7.431 -1.6485 -1.3318 -0.6204
  180SOPE   H8S20542   2.079   5.418   7.455  0.6583 -0.3176  1.7725
  180SOPE   C2920543   2.004   5.225   7.517  0.0428 -0.0318 -0.9822
  180SOPE   H9120544   2.024   5.121   7.489  1.5952 -0.1725  0.4987
  180SOPE  C21020545   1.924   5.245   7.627  0.6145  0.8018 -0.1694
  180SOPE  H10120546   1.875   5.161   7.678  0.6008  1.1208  0.3563
  180SOPE  C21120547   1.889   5.383   7.679  0.0202  0.8787  0.3498
  180SOPE  H11R20548   1.784   5.389   7.714 -0.4836  1.7669 -1.2242
  180SOPE  H11S20549   1.892   5.457   7.597 -2.5196 -1.1853 -1.7948
  180SOPE  C21220550   1.988   5.430   7.785  0.7878 -0.0033 -0.5674
  180SOPE  H12R20551   1.962   5.537   7.799 -1.7489 -0.7424  1.0152
  180SOPE  H12S20552   2.095   5.420   7.755  0.8375  0.2105 -0.4597
  180SOPE  C21320553   1.954   5.356   7.919 -0.1257  0.4963  0.0759
  180SOPE  H13R20554   1.998   5.255   7.900 -0.3759  0.6746 -1.5894
  180SOPE  H13S20555   1.848   5.337   7.944  0.2908 -0.8121  0.9533
  180SOPE  C21420556   2.012   5.404   8.053 -0.3682  0.4979  0.3645
  180SOPE  H14R20557   1.975   5.505   8.080  0.1837  0.6697  0.4907
  180SOPE  H14S20558   2.120   5.421   8.034 -0.8129  2.8795 -0.3449
  180SOPE  C21520559   1.976   5.314   8.177 -0.3776  0.0494  0.5416
  180SOPE  H15R20560   2.006   5.208   8.169  1.7866  0.6772 -0.2261
  180SOPE  H15S20561   1.865   5.310   8.190 -0.4136  1.0244  0.6154
  180SOPE  C21620562   2.012   5.368   8.325  0.5032  0.5512  0.2119
  180SOPE  H16R20563   2.000   5.479   8.331  0.1010  0.5369 -0.2180
  180SOPE  H16S20564   2.121   5.356   8.343  0.8054  2.7925  0.2269
  180SOPE  C21720565   1.944   5.283   8.428  0.5348 -0.3820 -0.4146
  180SOPE  H17R20566   1.990   5.182   8.424  0.2355 -0.7352  2.4175
  180SOPE  H17S20567   1.834   5.268   8.418  0.5210  0.2661 -1.2445
  180SOPE  C21820568   1.981   5.332   8.573 -0.4358 -0.6471  0.3491
  180SOPE  H18R20569   2.090   5.348   8.587 -0.7870 -0.5538  4.2349
  180SOPE  H18S20570   1.936   5.264   8.649 -1.4659  2.1495  2.4301
  180SOPE  H18T20571   1.940   5.433   8.592  1.1058  0.1590 -0.4294
  180SOPE   C3320572   1.330   5.379   6.682  0.4616 -0.8010  0.1528
  180SOPE   H3X20573   1.278   5.319   6.760 -0.2555 -0.2473  0.1115
  180SOPE   H3Y20574   1.248   5.403   6.611  0.4818 -1.0647  0.0377
  180SOPE   C3420575   1.379   5.517   6.751  0.3284 -0.4561 -0.3618
  180SOPE   H4X20576   1.287   5.579   6.762  0.6783  0.1633 -0.8529
  180SOPE   H4Y20577   1.454   5.572   6.690  4.2326 -0.1775  4.1189
  180SOPE   C3520578   1.457   5.508   6.888 -0.6306  0.2607 -0.5789
  180SOPE   H5X20579   1.515   5.415   6.906 -1.0860 -0.1010 -0.9543
  180SOPE   H5Y20580   1.386   5.502   6.974  0.3354  0.3543  0.2401
  180SOPE   C3620581   1.545   5.631   6.914  0.2553  0.6527 -0.0532
  180SOPE   H6X20582   1.489   5.723   6.886 -0.4723  1.3112  3.1689
  180SOPE   H6Y20583   1.626   5.633   6.837  0.0679 -0.1256 -0.2793
  180SOPE   C3720584   1.599   5.668   7.062  0.2153  0.6381  0.3506
  180SOPE   H7X20585   1.653   5.580   7.103  0.3412  0.6102  0.1274
  180SOPE   H7Y20586   1.508   5.675   7.124  0.8049  1.1760  1.1743
  180SOPE   C3820587   1.673   5.799   7.066 -0.3490 -0.6078 -0.1477
  180SOPE   H8X20588   1.583   5.864   7.062 -1.0628 -1.4556  1.3250
  180SOPE   H8Y20589   1.722   5.811   6.967 -3.3022  0.0520 -1.6476
  180SOPE   C3920590   1.754   5.838   7.188  0.3717 -0.4027 -0.7150
  180SOPE   H9X20591   1.691   5.846   7.279  0.9554 -1.8500 -0.1567
  180SOPE   H9Y20592   1.789   5.943   7.175  1.3815 -0.2306  2.6127
  180SOPE  C31020593   1.875   5.748   7.215  0.0825  0.8654  0.2868
  180SOPE  H10X20594   1.939   5.717   7.129  0.3118 -1.0375  1.0732
  180SOPE  H10Y20595   1.837   5.646   7.237  1.1449 -0.3545 -2.9233
  180SOPE  C31120596   1.967   5.794   7.332  0.4635  0.8796  0.5593
  180SOPE  H11X20597   2.001   5.893   7.295  1.2423  0.4522  0.1005
  180SOPE  H11Y20598   2.054   5.724   7.328 -0.2763 -0.0702  0.7536
  180SOPE  C31220599   1.905   5.788   7.472 -0.0778  0.5917  0.1561
  180SOPE  H12X20600   1.847   5.694   7.486 -2.9050  2.4705  1.9539
  180SOPE  H12Y20601   1.815   5.853   7.465  1.8988  3.3888 -1.4840
  180SOPE  C31320602   1.994   5.834   7.583  0.5322  0.0778  0.0676
  180SOPE  H13X20603   2.043   5.926   7.547 -0.1972  0.3861 -0.1699
  180SOPE  H13Y20604   2.073   5.757   7.592  2.0551  1.4705 -0.9630
  180SOPE  C31420605   1.919   5.863   7.718  1.1427  0.0755 -0.2648
  180SOPE  H14X20606   1.996   5.877   7.797 -0.6862 -1.1616  1.8747
  180SOPE  H14Y20607   1.859   5.772   7.738 -0.1485  1.4624  2.9146
  180SOPE  C31520608   1.831   5.986   7.723  0.2904 -0.6520  0.7140
  180SOPE  H15X20609   1.775   6.011   7.630  0.7138  1.6265  0.9922
  180SOPE  H15Y20610   1.905   6.068   7.739 -0.2999 -0.2447  1.4599
  180SOPE  C31620611   1.725   6.003   7.833  0.8751  0.5970  0.0876
  180SOPE  H16X20612   1.672   5.912   7.868 -0.9808  1.4118 -0.4832
  180SOPE  H16Y20613   1.641   6.066   7.794 -0.1096  0.0546  1.2811
  180SOPE  C31720614   1.779   6.073   7.958 -0.9273 -0.2844 -0.3870
  180SOPE  H17X20615   1.831   6.166   7.925  1.3360 -2.5721 -4.0905
  180SOPE  H17Y20616   1.863   6.007   7.990 -2.6777 -1.5702  1.7519
  180SOPE  C31820617   1.685   6.091   8.076 -0.2573  0.4019 -0.5321
  180SOPE  H18X20618   1.640   5.996   8.113 -0.4623  1.4369  2.1371
  180SOPE  H18Y20619   1.609   6.156   8.027 -0.6246 -0.8415 -1.6588
  180SOPE  H18Z20620   1.732   6.140   8.165 -1.0047  0.1665  0.0038
  181SOPE     N20621   6.117   2.946   5.762 -0.6679 -0.0890 -0.1143
  181SOPE   HN120622   6.030   2.927   5.817  0.3671 -1.7996  1.0290
  181SOPE   HN220623   6.134   3.047   5.750 -0.9619 -0.0390 -0.1261
  181SOPE   HN320624   6.107   2.919   5.662  1.5137  0.8249 -0.6336
  181SOPE   C1220625   6.227   2.863   5.828 -0.1282 -0.4336  0.2104
  181SOPE  H12A20626   6.230   2.883   5.937 -1.5672 -1.5607  0.4876
  181SOPE  H12B20627   6.325   2.898   5.791 -0.1431 -1.6082 -0.9869
  181SOPE   C1120628   6.206   2.715   5.807  0.4002  0.3696 -0.1315
  181SOPE  H11A20629   6.302   2.663   5.829 -0.0475 -1.0472 -1.3321
  181SOPE  H11B20630   6.180   2.699   5.700 -1.5757  3.4428 -0.2277
  181SOPE     P20631   6.091   2.596   6.027  0.2548 -0.4880  0.6119
  181SOPE   O1320632   6.144   2.455   6.016  0.0260 -0.5854 -0.5918
  181SOPE   O1420633   5.947   2.609   6.069 -0.1734 -0.5072  0.2615
  181SOPE   O1220634   6.097   2.669   5.884  0.4432 -0.8452 -0.1690
  181SOPE   O1120635   6.192   2.673   6.119 -0.0717 -0.1919  0.6371
  181SOPE    C120636   6.180   2.656   6.258 -0.0113  0.0525 -0.5044
  181SOPE    HA20637   6.138   2.556   6.284  1.3657 -0.0506  1.5474
  181SOPE    HB20638   6.120   2.736   6.306  0.4653 -0.9194  1.8585
  181SOPE    C220639   6.324   2.660   6.328  0.0313 -0.2801 -0.1754
  181SOPE    HS20640   6.365   2.557   6.327 -0.5821 -0.5384  0.9029
  181SOPE   O2120641   6.310   2.717   6.464 -0.4073 -0.3856  0.1408
  181SOPE   C2120642   6.272   2.630   6.552  0.2960  0.0423  0.0097
  181SOPE   O2220643   6.249   2.512   6.531  0.0309  0.3134  0.2484
  181SOPE   C2220644   6.268   2.710   6.685  0.0565  0.0642  1.5587
  181SOPE   H2R20645   6.184   2.783   6.673 -1.3303 -1.6906 -0.0873
  181SOPE   H2S20646   6.371   2.751   6.689  0.2652 -0.1458 -0.3902
  181SOPE    C320647   6.421   2.745   6.247 -0.3223 -0.2760 -0.3225
  181SOPE    HX20648   6.364   2.841   6.242  0.2311  0.1454  1.0819
  181SOPE    HY20649   6.436   2.709   6.143 -2.7406 -0.7182 -0.5905
  181SOPE   O3120650   6.551   2.776   6.310 -0.4930  0.4360  0.6623
  181SOPE   C3120651   6.644   2.689   6.275  0.6421  0.9333  0.0715
  181SOPE   O3220652   6.617   2.581   6.224  0.2197 -0.7337 -0.0427
  181SOPE   C3220653   6.775   2.737   6.312 -0.1593 -1.3896 -0.6613
  181SOPE   H2X20654   6.773   2.848   6.305  0.3340 -1.4389 -1.8606
  181SOPE   H2Y20655   6.849   2.706   6.235  2.9736  0.9299  1.1652
  181SOPE   C2320656   6.235   2.622   6.809  0.5310  0.2445  0.9670
  181SOPE   H3R20657   6.285   2.522   6.802  1.2447  0.7054 -0.9352
  181SOPE   H3S20658   6.129   2.592   6.801  0.7164 -0.2417  0.1888
  181SOPE   C2420659   6.252   2.694   6.944  0.4300  0.4622  0.1435
  181SOPE   H4R20660   6.361   2.707   6.960  0.2769  0.5921  1.1356
  181SOPE   H4S20661   6.199   2.791   6.954  0.8903  0.7844 -0.4365
  181SOPE   C2520662   6.199   2.608   7.068  0.0230  0.4979 -0.1803
  181SOPE   H5R20663   6.094   2.576   7.054  0.1585  0.9474 -2.8725
  181SOPE   H5S20664   6.257   2.514   7.077  1.0899  1.3149  2.1194
  181SOPE   C2620665   6.216   2.693   7.194  0.4844 -0.1178 -0.2474
  181SOPE   H6R20666   6.171   2.794   7.178  0.2209 -0.1130  0.4877
  181SOPE   H6S20667   6.160   2.630   7.267  2.3577 -2.4609 -0.7164
  181SOPE   C2720668   6.359   2.725   7.248 -0.8021  0.2799  0.1722
  181SOPE   H7R20669   6.383   2.646   7.323 -2.4165  0.8335  1.3421
  181SOPE   H7S20670   6.428   2.709   7.163 -0.9247 -2.8768  0.5558
  181SOPE   C2820671   6.370   2.859   7.323  0.6016  0.3327 -0.1942
  181SOPE   H8R20672   6.469   2.868   7.372 -0.8824  2.1437  2.7798
  181SOPE   H8S20673   6.363   2.936   7.244  0.9737  0.1368 -0.4235
  181SOPE   C2920674   6.268   2.887   7.431 -0.3050 -0.6336 -0.2256
  181SOPE   H9120675   6.164   2.897   7.394  0.3243 -0.3976 -2.0611
  181SOPE  C21020676   6.294   2.881   7.563  0.1495  0.7616  0.0414
  181SOPE  H10120677   6.218   2.911   7.636 -0.9045  0.0067 -0.7113
  181SOPE  C21120678   6.421   2.845   7.628  0.0887  0.1446 -0.0453
  181SOPE  H11R20679   6.486   2.933   7.650 -1.9801  1.1824  2.4274
  181SOPE  H11S20680   6.469   2.776   7.555 -0.5844  1.4997 -1.8456
  181SOPE  C21220681   6.399   2.759   7.760  0.3519 -0.5174  0.2054
  181SOPE  H12R20682   6.310   2.695   7.743 -0.9893  1.5117 -0.8647
  181SOPE  H12S20683   6.365   2.822   7.846  0.3584 -0.8441  0.4483
  181SOPE  C21320684   6.506   2.657   7.787  0.3738 -0.0926  0.5043
  181SOPE  H13R20685   6.599   2.714   7.806  0.1614  0.4781 -0.1214
  181SOPE  H13S20686   6.510   2.597   7.693 -0.6044 -0.8435  0.9222
  181SOPE  C21420687   6.460   2.562   7.898  0.3821 -0.2494 -0.8356
  181SOPE  H14R20688   6.519   2.467   7.900 -1.4683 -1.4429 -0.5904
  181SOPE  H14S20689   6.351   2.545   7.885 -0.8239  0.8073  4.9989
  181SOPE  C21520690   6.463   2.615   8.043  0.2197  0.0425 -0.5178
  181SOPE  H15R20691   6.406   2.549   8.112 -1.0246  0.8004 -0.8040
  181SOPE  H15S20692   6.406   2.710   8.032  0.5743  0.2509 -0.5771
  181SOPE  C21620693   6.601   2.645   8.116 -0.1580  0.1941  0.1388
  181SOPE  H16R20694   6.635   2.746   8.087 -0.7870  0.9404  1.8762
  181SOPE  H16S20695   6.681   2.575   8.083 -0.1720  0.2803 -0.0859
  181SOPE  C21720696   6.584   2.657   8.267 -0.6032 -0.6064 -0.2204
  181SOPE  H17R20697   6.556   2.555   8.299 -2.1831 -0.6291 -1.5327
  181SOPE  H17S20698   6.499   2.724   8.290  0.1180 -0.2700  1.5851
  181SOPE  C21820699   6.711   2.703   8.343 -0.6664  0.2390 -0.3656
  181SOPE  H18R20700   6.791   2.626   8.339 -0.8989  0.0344 -1.2909
  181SOPE  H18S20701   6.687   2.724   8.450  0.4650 -2.7653  0.5886
  181SOPE  H18T20702   6.752   2.795   8.297 -0.3013 -0.4658 -1.4932
  181SOPE   C3320703   6.845   2.694   6.444  0.4303 -0.1342 -0.1095
  181SOPE   H3X20704   6.954   2.713   6.449  0.3059  0.4032  0.6307
  181SOPE   H3Y20705   6.832   2.583   6.452 -1.5645 -0.0208 -1.0616
  181SOPE   C3420706   6.784   2.770   6.565 -0.5404  0.3234 -0.0575
  181SOPE   H4X20707   6.685   2.734   6.602  0.2782 -0.1676  1.7764
  181SOPE   H4Y20708   6.760   2.875   6.537  0.0099  0.9231  1.5940
  181SOPE   C3520709   6.877   2.764   6.689  1.2573  0.0759  0.7783
  181SOPE   H5X20710   6.918   2.661   6.698 -1.2574 -1.2292 -1.3710
  181SOPE   H5Y20711   6.828   2.799   6.782 -0.6350 -0.2551 -0.0602
  181SOPE   C3620712   6.991   2.874   6.670  0.6225 -0.3298  0.2604
  181SOPE   H6X20713   6.947   2.963   6.620  2.1702  0.5829  0.4613
  181SOPE   H6Y20714   7.069   2.838   6.599  0.6927 -0.3572  0.3513
  181SOPE   C3720715   7.044   2.922   6.801  0.4312 -0.5312 -0.3682
  181SOPE   H7X20716   6.962   2.969   6.858  0.8900 -0.4956  0.2792
  181SOPE   H7Y20717   7.124   2.997   6.783  1.3460 -1.5592 -0.6830
  181SOPE   C3820718   7.108   2.811   6.890  0.9846 -0.4947 -0.9888
  181SOPE   H8X20719   7.212   2.805   6.853  1.2234 -0.3928 -0.3506
  181SOPE   H8Y20720   7.047   2.720   6.874 -0.6153  0.3251  0.0713
  181SOPE   C3920721   7.114   2.861   7.038 -0.2246  0.0112 -0.5874
  181SOPE   H9X20722   7.017   2.853   7.093  0.3406  1.1704  0.6270
  181SOPE   H9Y20723   7.146   2.967   7.043  0.7594 -0.3229  1.2210
  181SOPE  C31020724   7.217   2.774   7.116  0.3157  0.2240  0.4031
  181SOPE  H10X20725   7.317   2.793   7.073  0.2864  0.8301  0.5872
  181SOPE  H10Y20726   7.189   2.667   7.107  0.6142  0.1845 -0.0883
  181SOPE  C31120727   7.222   2.820   7.263 -0.5547  0.3126 -0.8719
  181SOPE  H11X20728   7.120   2.799   7.301 -0.8183  1.3605 -0.9575
  181SOPE  H11Y20729   7.224   2.931   7.273 -4.4950  0.4084  0.5051
  181SOPE  C31220730   7.340   2.765   7.345 -0.0772 -0.0544  0.2479
  181SOPE  H12X20731   7.429   2.814   7.301  0.1555  0.9502  1.7441
  181SOPE  H12Y20732   7.354   2.656   7.328  1.8992  0.3019 -0.7861
  181SOPE  C31320733   7.327   2.799   7.495 -0.2907 -0.4652  0.7581
  181SOPE  H13X20734   7.424   2.790   7.548  1.1651  2.4889 -1.1488
  181SOPE  H13Y20735   7.273   2.711   7.537 -2.4654 -0.6843 -2.2102
  181SOPE  C31420736   7.240   2.925   7.523  0.5211  0.3670  0.3278
  181SOPE  H14X20737   7.137   2.921   7.480  0.8177  0.3818 -0.4088
  181SOPE  H14Y20738   7.297   3.001   7.465  1.9319 -1.3840 -0.6958
  181SOPE  C31520739   7.237   2.958   7.669 -0.0996 -0.5580  0.4115
  181SOPE  H15X20740   7.341   2.933   7.699  0.4962  0.6370 -0.5707
  181SOPE  H15Y20741   7.159   2.904   7.727  1.6036 -0.0795  3.4120
  181SOPE  C31620742   7.216   3.109   7.695  0.2203  0.3609 -0.0202
  181SOPE  H16X20743   7.139   3.149   7.626 -0.4688 -1.9967 -0.7406
  181SOPE  H16Y20744   7.302   3.167   7.656  0.1085  0.7132  0.2551
  181SOPE  C31720745   7.181   3.149   7.835  0.7649  0.7295  0.2541
  181SOPE  H17X20746   7.082   3.103   7.857  0.0543  1.7202 -0.7429
  181SOPE  H17Y20747   7.168   3.260   7.838  2.1544  0.9220 -0.2807
  181SOPE  C31820748   7.264   3.100   7.949 -0.2057  0.0464 -0.3002
  181SOPE  H18X20749   7.248   2.992   7.967 -0.9188  0.0543 -0.8132
  181SOPE  H18Y20750   7.243   3.161   8.039 -0.7857  0.0115 -0.4061
  181SOPE  H18Z20751   7.373   3.111   7.930 -0.0226  0.4405  0.9387
  182SOPE     N20752   0.527   5.867   6.008 -0.5215 -0.3704  0.0004
  182SOPE   HN120753   0.626   5.847   6.035  0.2126 -0.9466 -2.7842
  182SOPE   HN220754   0.522   5.804   5.925  1.3366  0.3782 -0.7433
  182SOPE   HN320755   0.517   5.968   5.985 -1.0013 -0.5098 -0.4005
  182SOPE   C1220756   0.421   5.830   6.104 -0.8072 -0.3806  0.0446
  182SOPE  H12A20757   0.332   5.869   6.050 -0.2348 -0.2726 -0.8420
  182SOPE  H12B20758   0.432   5.890   6.197 -1.0922  0.9781 -0.7686
  182SOPE   C1120759   0.429   5.683   6.147  0.1388 -0.2914  0.8960
  182SOPE  H11A20760   0.346   5.676   6.221 -1.5865  1.4477 -0.7749
  182SOPE  H11B20761   0.522   5.654   6.202 -0.1350 -2.8310  0.1462
  182SOPE     P20762   0.421   5.438   6.056 -0.2404  0.0990 -0.3907
  182SOPE   O1320763   0.528   5.391   5.969 -1.0637  0.3520  0.0083
  182SOPE   O1420764   0.288   5.381   6.040 -0.6545  0.1466 -0.1029
  182SOPE   O1220765   0.409   5.595   6.038  0.6179 -0.3705  0.8706
  182SOPE   O1120766   0.456   5.421   6.207 -0.5753 -0.1981 -0.2397
  182SOPE    C120767   0.591   5.376   6.238  0.3286  0.6441  0.0924
  182SOPE    HA20768   0.659   5.457   6.203  1.0116  0.1518  0.2505
  182SOPE    HB20769   0.610   5.282   6.181  0.8975  1.5320 -1.2335
  182SOPE    C220770   0.621   5.341   6.387  1.3107 -0.0293 -0.2927
  182SOPE    HS20771   0.556   5.257   6.420 -1.4994  1.3042 -2.0503
  182SOPE   O2120772   0.600   5.461   6.467  0.1993  0.6008 -0.0775
  182SOPE   C2120773   0.477   5.467   6.509  0.3679 -0.5030 -0.4957
  182SOPE   O2220774   0.385   5.390   6.500 -0.3707  0.0750  0.0356
  182SOPE   C2220775   0.463   5.589   6.590 -0.7073  0.0541 -0.4121
  182SOPE   H2R20776   0.361   5.624   6.562 -0.9076 -1.1765 -1.2966
  182SOPE   H2S20777   0.546   5.656   6.558 -0.2247 -0.1900  0.3156
  182SOPE    C320778   0.764   5.295   6.413  0.3355  0.2721  0.1681
  182SOPE    HX20779   0.830   5.383   6.429  0.1927  0.1262  1.6328
  182SOPE    HY20780   0.795   5.241   6.321  0.8349 -1.5932  1.3680
  182SOPE   O3120781   0.756   5.202   6.526 -0.5437  0.3849 -0.0309
  182SOPE   C3120782   0.873   5.145   6.556 -0.0874  0.1397 -0.0965
  182SOPE   O3220783   0.978   5.179   6.511 -1.1032  0.3189  0.1015
  182SOPE   C3220784   0.852   5.028   6.653 -0.7602 -0.5591 -0.1972
  182SOPE   H2X20785   0.756   4.975   6.632 -0.7003 -0.9013  0.3654
  182SOPE   H2Y20786   0.844   5.060   6.759 -2.0092  0.7889 -0.6800
  182SOPE   C2320787   0.483   5.577   6.743  0.3562  0.2581 -1.6175
  182SOPE   H3R20788   0.529   5.480   6.772  1.3355  1.3649  0.7989
  182SOPE   H3S20789   0.383   5.587   6.789  1.4373 -0.4867  1.0686
  182SOPE   C2420790   0.564   5.686   6.806  0.5356 -0.4275 -0.0886
  182SOPE   H4R20791   0.672   5.668   6.787  0.8389 -0.1336  1.2425
  182SOPE   H4S20792   0.536   5.789   6.776  1.4490 -0.2334 -0.2863
  182SOPE   C2520793   0.556   5.678   6.955 -0.2019  0.4540 -0.1402
  182SOPE   H5R20794   0.449   5.668   6.986 -0.6055  0.5367 -1.4477
  182SOPE   H5S20795   0.615   5.589   6.987  0.5006  1.1974  0.6791
  182SOPE   C2620796   0.616   5.791   7.021 -0.3197 -0.1901 -0.5758
  182SOPE   H6R20797   0.719   5.809   6.983  0.3366  2.5518  2.0765
  182SOPE   H6S20798   0.567   5.891   7.028  1.3790  0.6534  0.0062
  182SOPE   C2720799   0.643   5.749   7.162  0.5415  0.1372  0.2486
  182SOPE   H7R20800   0.549   5.730   7.217  0.8088 -0.3868  0.5363
  182SOPE   H7S20801   0.702   5.655   7.162  0.2865 -0.0595  2.1142
  182SOPE   C2820802   0.723   5.857   7.236  0.8359 -0.3176  0.2076
  182SOPE   H8R20803   0.796   5.915   7.175 -0.5948  1.3583 -0.0289
  182SOPE   H8S20804   0.653   5.938   7.266 -0.3189 -1.1736 -0.0933
  182SOPE   C2920805   0.803   5.818   7.353  0.0768 -0.1110 -0.0317
  182SOPE   H9120806   0.905   5.783   7.330  1.0436  1.4099  1.7088
  182SOPE  C21020807   0.760   5.825   7.475 -0.2474  0.3620 -0.4365
  182SOPE  H10120808   0.824   5.789   7.557 -0.3959  2.9124  0.8807
  182SOPE  C21120809   0.626   5.873   7.520 -0.2392 -0.4208 -0.0270
  182SOPE  H11R20810   0.582   5.800   7.591  1.4344 -3.2518 -1.6831
  182SOPE  H11S20811   0.560   5.872   7.431 -0.9548  1.5804  0.4329
  182SOPE  C21220812   0.642   6.005   7.589 -0.2125 -0.3618 -0.1810
  182SOPE  H12R20813   0.698   6.080   7.530 -1.8673  1.2413  0.2121
  182SOPE  H12S20814   0.702   5.991   7.682  1.3483  1.6734 -0.8016
  182SOPE  C21320815   0.501   6.063   7.619 -0.4455 -0.2549 -0.5279
  182SOPE  H13R20816   0.427   6.048   7.538 -0.8440  1.3168 -0.4927
  182SOPE  H13S20817   0.520   6.173   7.629  0.9796 -0.6870  3.3935
  182SOPE  C21420818   0.464   6.024   7.759  0.0973  0.5870  0.6912
  182SOPE  H14R20819   0.554   6.035   7.823  0.1659  1.8425  0.4097
  182SOPE  H14S20820   0.442   5.916   7.763  4.0461 -0.6192 -2.8030
  182SOPE  C21520821   0.357   6.118   7.820 -0.8232  0.7222 -0.8997
  182SOPE  H15R20822   0.273   6.144   7.752 -0.0009  4.4921 -0.6866
  182SOPE  H15S20823   0.401   6.218   7.841 -2.7051  1.5340 -0.5849
  182SOPE  C21620824   0.294   6.065   7.954  0.3673 -0.5109  0.0224
  182SOPE  H16R20825   0.237   5.972   7.931 -0.1763 -0.0787 -0.3834
  182SOPE  H16S20826   0.220   6.138   7.992 -0.6833  0.0938 -2.9316
  182SOPE  C21720827   0.399   6.033   8.062  0.6912 -1.0248 -0.0460
  182SOPE  H17R20828   0.434   6.127   8.109 -1.8606  0.3708 -0.7612
  182SOPE  H17S20829   0.481   5.973   8.018  0.1735 -0.9565 -1.1403
  182SOPE  C21820830   0.332   5.954   8.175  0.1933  0.3033  0.1715
  182SOPE  H18R20831   0.235   6.007   8.190  1.3404  2.3675  0.6972
  182SOPE  H18S20832   0.384   5.966   8.272  2.5021  3.5653 -1.2964
  182SOPE  H18T20833   0.338   5.849   8.139  0.9478  0.5447 -0.4167
  182SOPE   C3320834   0.967   4.928   6.647 -0.2940 -0.0875  0.3746
  182SOPE   H3X20835   1.012   4.935   6.545  2.2930 -2.1815  1.2681
  182SOPE   H3Y20836   0.934   4.824   6.663 -1.0946  0.2312  0.8578
  182SOPE   C3420837   1.075   4.958   6.752 -0.1364  0.2854 -0.4589
  182SOPE   H4X20838   1.110   5.064   6.754  0.4185  0.0941  0.5476
  182SOPE   H4Y20839   1.160   4.890   6.732  1.2339  2.1647 -1.3133
  182SOPE   C3520840   1.038   4.914   6.894 -0.9973 -0.4860 -0.2023
  182SOPE   H5X20841   1.063   4.807   6.913  0.2689 -0.4151 -1.2863
  182SOPE   H5Y20842   0.928   4.928   6.906 -0.8711 -1.1820  2.2398
  182SOPE   C3620843   1.096   5.001   7.007 -0.5526  0.2402  0.8252
  182SOPE   H6X20844   1.085   5.108   6.977  1.4880  0.6646  1.4131
  182SOPE   H6Y20845   1.207   4.991   7.004 -0.4565  1.4414 -0.6998
  182SOPE   C3720846   1.047   4.973   7.149 -0.2312  0.2035  0.8674
  182SOPE   H7X20847   1.024   4.864   7.156 -1.8567  0.0902 -3.2692
  182SOPE   H7Y20848   0.947   5.015   7.168 -0.2106  0.2064  0.9707
  182SOPE   C3820849   1.141   5.018   7.260  1.0604  0.6927 -0.3959
  182SOPE   H8X20850   1.184   5.114   7.225  1.3868  0.3326 -1.0084
  182SOPE   H8Y20851   1.225   4.947   7.273  0.7497  0.2989 -0.5194
  182SOPE   C3920852   1.063   5.031   7.391 -0.8234 -0.8167  0.0845
  182SOPE   H9X20853   1.034   4.927   7.418  1.8086 -1.8887 -0.8686
  182SOPE   H9Y20854   0.982   5.104   7.372  0.5767  0.3511 -1.7530
  182SOPE  C31020855   1.148   5.113   7.492 -0.5123 -0.0982 -0.5273
  182SOPE  H10X20856   1.077   5.143   7.572 -1.2298 -0.3691 -1.0517
  182SOPE  H10Y20857   1.178   5.213   7.455 -0.1228  0.1569  0.4563
  182SOPE  C31120858   1.269   5.045   7.548  0.3137 -0.0887 -0.8650
  182SOPE  H11X20859   1.345   5.034   7.467  1.1623 -0.7892  0.0066
  182SOPE  H11Y20860   1.237   4.948   7.592  1.5664  0.6971  2.0161
  182SOPE  C31220861   1.351   5.128   7.658  0.6529  0.3535  0.2070
  182SOPE  H12X20862   1.383   5.225   7.614  2.6754 -1.2639 -2.1725
  182SOPE  H12Y20863   1.434   5.062   7.691 -0.7353 -0.8147  1.4978
  182SOPE  C31320864   1.276   5.154   7.796  0.3007  0.5614 -0.1556
  182SOPE  H13X20865   1.170   5.188   7.787  0.3248  0.9946  0.9852
  182SOPE  H13Y20866   1.332   5.236   7.845  2.3243  1.0382 -3.0357
  182SOPE  C31420867   1.264   5.036   7.899  0.9930  0.1707  0.6639
  182SOPE  H14X20868   1.364   4.987   7.896  1.3858  0.9720  0.0658
  182SOPE  H14Y20869   1.187   4.968   7.858  1.1267  0.4239 -0.0230
  182SOPE  C31520870   1.217   5.086   8.034 -0.4406 -0.4208  0.5999
  182SOPE  H15X20871   1.110   5.117   8.037 -1.2381 -2.9891  0.9087
  182SOPE  H15Y20872   1.282   5.171   8.062  2.4588 -2.0017 -0.8819
  182SOPE  C31620873   1.251   4.982   8.137  0.0115  0.0376  0.0057
  182SOPE  H16X20874   1.358   4.964   8.160 -0.0517 -2.0954 -1.0900
  182SOPE  H16Y20875   1.211   4.889   8.091  0.4385  0.3621 -1.0554
  182SOPE  C31720876   1.174   5.004   8.272  0.0224 -0.0704  0.2682
  182SOPE  H17X20877   1.090   4.932   8.285 -0.7548  0.7835  0.0462
  182SOPE  H17Y20878   1.146   5.111   8.271  0.3835  0.0228 -0.3452
  182SOPE  C31820879   1.264   4.978   8.401  0.2256  1.0774 -0.0148
  182SOPE  H18X20880   1.202   4.994   8.491  0.2893 -0.7332  0.3927
  182SOPE  H18Y20881   1.356   5.041   8.406 -0.1391  1.5890  0.2677
  182SOPE  H18Z20882   1.307   4.875   8.400 -0.9244  0.5574  0.9885
  183SOPE     N20883   2.639   3.121   6.314 -0.0551 -0.3942  0.2882
  183SOPE   HN120884   2.579   3.038   6.297 -1.8120  1.2163 -2.1369
  183SOPE   HN220885   2.735   3.080   6.318 -0.8402 -2.3845 -0.1624
  183SOPE   HN320886   2.616   3.158   6.408 -2.4957  2.0088 -1.1138
  183SOPE   C1220887   2.632   3.221   6.200 -0.8071 -0.2499  0.0302
  183SOPE  H12A20888   2.547   3.287   6.229  0.9543  1.5069  1.4330
  183SOPE  H12B20889   2.613   3.166   6.105  0.2149  0.4290 -0.5862
  183SOPE   C1120890   2.770   3.298   6.204  0.2988  0.0077 -0.3373
  183SOPE  H11A20891   2.775   3.377   6.126  1.4291  0.9515  0.6658
  183SOPE  H11B20892   2.844   3.219   6.182 -0.0390 -0.4229  0.0489
  183SOPE     P20893   2.729   3.469   6.398 -0.3414 -0.4308  0.4185
  183SOPE   O1320894   2.698   3.564   6.286 -0.0469  1.0437  0.1308
  183SOPE   O1420895   2.816   3.519   6.506  0.0894  0.6240  0.5695
  183SOPE   O1220896   2.810   3.348   6.334 -0.1668 -0.2030  0.3290
  183SOPE   O1120897   2.597   3.399   6.445  0.5469 -0.8252 -0.1242
  183SOPE    C120898   2.471   3.470   6.447  0.1727  0.1042  0.0733
  183SOPE    HA20899   2.393   3.400   6.410  1.0839 -1.7279  1.4190
  183SOPE    HB20900   2.467   3.562   6.385 -1.5293  0.8032  1.1407
  183SOPE    C220901   2.422   3.501   6.591 -0.7134 -0.3938 -0.8452
  183SOPE    HS20902   2.328   3.558   6.581 -1.5090 -1.5853 -0.4257
  183SOPE   O2120903   2.518   3.586   6.663  0.3061  0.3004  0.0271
  183SOPE   C2120904   2.533   3.709   6.623 -0.3516  0.0114 -0.5681
  183SOPE   O2220905   2.467   3.761   6.533 -0.7468  0.0235 -0.8895
  183SOPE   C2220906   2.639   3.778   6.711  0.1869  0.1651  0.2061
  183SOPE   H2R20907   2.588   3.863   6.762  3.0643 -0.0252  3.8303
  183SOPE   H2S20908   2.720   3.822   6.648  1.1722  2.0821  2.6463
  183SOPE    C320909   2.399   3.378   6.688  0.3915 -0.4716 -0.3457
  183SOPE    HX20910   2.479   3.301   6.687  1.0981  0.2488 -1.8267
  183SOPE    HY20911   2.306   3.330   6.652  1.5571 -2.3869 -0.9603
  183SOPE   O3120912   2.381   3.428   6.820  0.2819 -0.4507 -0.1752
  183SOPE   C3120913   2.258   3.440   6.873 -0.3777 -0.2766  0.4307
  183SOPE   O3220914   2.155   3.448   6.809 -0.0326 -0.3821  0.4341
  183SOPE   C3220915   2.269   3.443   7.024  0.3904  0.2534  0.1161
  183SOPE   H2X20916   2.324   3.538   7.043 -0.3922  1.0966 -1.5952
  183SOPE   H2Y20917   2.337   3.363   7.058  1.5039  0.4787 -1.4875
  183SOPE   C2320918   2.696   3.705   6.833  0.0152  0.5364  0.3218
  183SOPE   H3R20919   2.789   3.650   6.807 -0.7037 -0.5112 -0.0779
  183SOPE   H3S20920   2.630   3.632   6.884  1.5800 -1.1522  0.0094
  183SOPE   C2420921   2.767   3.803   6.935 -0.0427 -0.1581 -0.0590
  183SOPE   H4R20922   2.840   3.859   6.873 -1.4284  1.4779 -0.3062
  183SOPE   H4S20923   2.693   3.872   6.981  0.7928  1.7278 -1.3979
  183SOPE   C2520924   2.859   3.736   7.039  0.3271  0.5629  0.3923
  183SOPE   H5R20925   2.788   3.680   7.105 -1.5742  0.9845 -1.1968
  183SOPE   H5S20926   2.925   3.655   7.001  0.1652 -0.7520  2.7033
  183SOPE   C2620927   2.949   3.834   7.126 -0.1022 -0.1629 -0.2892
  183SOPE   H6R20928   2.994   3.914   7.062 -1.4942  1.4368  0.6305
  183SOPE   H6S20929   2.877   3.902   7.178  1.1199  1.9906 -1.2460
  183SOPE   C2720930   3.043   3.772   7.224  0.4326  0.2302 -0.2742
  183SOPE   H7R20931   3.005   3.678   7.268  3.7445 -0.7737  0.7147
  183SOPE   H7S20932   3.125   3.734   7.158 -1.1019 -2.5931 -0.7320
  183SOPE   C2820933   3.086   3.856   7.337 -0.1662 -0.1979 -0.4482
  183SOPE   H8R20934   2.992   3.890   7.385 -1.5034 -1.8924 -1.7372
  183SOPE   H8S20935   3.153   3.796   7.402  0.5277 -0.8259 -1.7027
  183SOPE   C2920936   3.139   3.994   7.306  0.0642  0.2896 -0.1107
  183SOPE   H9120937   3.102   4.031   7.209 -2.2777 -0.3616  0.4836
  183SOPE  C21020938   3.211   4.078   7.382  0.8424 -0.2285  0.7609
  183SOPE  H10120939   3.253   4.168   7.334 -2.1127  0.4733 -0.7175
  183SOPE  C21120940   3.251   4.044   7.523  0.3552  0.3134  1.0283
  183SOPE  H11R20941   3.362   4.036   7.534  0.3271 -2.3567  0.1883
  183SOPE  H11S20942   3.206   3.948   7.556 -0.2989  0.2080 -0.1061
  183SOPE  C21220943   3.212   4.165   7.619 -0.5382  0.1773  0.1651
  183SOPE  H12R20944   3.101   4.159   7.617 -0.5662  0.8157 -0.8435
  183SOPE  H12S20945   3.259   4.255   7.575 -1.0970  0.1909 -0.4079
  183SOPE  C21320946   3.265   4.139   7.757 -0.6621  0.0102  0.0401
  183SOPE  H13R20947   3.371   4.112   7.738  0.0950 -0.7865  4.3199
  183SOPE  H13S20948   3.223   4.058   7.821 -2.0480  0.6839  0.0138
  183SOPE  C21420949   3.267   4.263   7.846 -0.1370 -0.2321  0.2957
  183SOPE  H14R20950   3.166   4.306   7.859 -0.4615 -1.1076  0.7748
  183SOPE  H14S20951   3.340   4.328   7.793  0.8921  0.2022  2.1359
  183SOPE  C21520952   3.323   4.248   7.992  0.4978 -0.0665  0.5031
  183SOPE  H15R20953   3.383   4.340   8.013 -1.1414  1.5029 -1.2679
  183SOPE  H15S20954   3.382   4.154   7.987 -1.8670 -1.5845 -0.5491
  183SOPE  C21620955   3.214   4.244   8.092  0.3201  0.7327  1.1329
  183SOPE  H16R20956   3.157   4.154   8.060  3.1408 -0.2057 -1.7631
  183SOPE  H16S20957   3.153   4.336   8.079  0.7693  0.6015 -3.2599
  183SOPE  C21720958   3.261   4.224   8.236  0.7528  0.0958  0.8462
  183SOPE  H17R20959   3.196   4.287   8.301 -0.6707  0.0876 -0.5173
  183SOPE  H17S20960   3.365   4.259   8.253  0.8983 -1.4601  4.1596
  183SOPE  C21820961   3.245   4.075   8.288 -0.3137 -0.5197  0.0853
  183SOPE  H18R20962   3.263   4.085   8.397  1.3916  2.0265 -0.3540
  183SOPE  H18S20963   3.315   3.999   8.246 -0.3321 -0.9790  0.8561
  183SOPE  H18T20964   3.141   4.037   8.278 -1.7159  3.0051 -0.0667
  183SOPE   C3320965   2.134   3.441   7.106 -0.3452  0.1540 -0.3300
  183SOPE   H3X20966   2.076   3.348   7.088 -0.7684  0.0667  1.3498
  183SOPE   H3Y20967   2.065   3.524   7.081  0.6116  1.0985  0.1200
  183SOPE   C3420968   2.161   3.459   7.257 -0.4589  0.7165  0.5766
  183SOPE   H4X20969   2.244   3.531   7.272  1.5950 -1.5002  0.5063
  183SOPE   H4Y20970   2.196   3.363   7.300 -0.6230 -0.2315 -1.2685
  183SOPE   C3520971   2.038   3.509   7.332  0.1521 -0.5460 -0.1686
  183SOPE   H5X20972   1.956   3.437   7.314  1.2688 -1.5203 -1.6201
  183SOPE   H5Y20973   2.000   3.597   7.276 -0.2250 -0.9909 -0.6191
  183SOPE   C3620974   2.063   3.537   7.478  0.1116  0.0288 -0.5305
  183SOPE   H6X20975   2.144   3.472   7.517  0.1050 -0.1728 -0.8491
  183SOPE   H6Y20976   1.966   3.527   7.531 -0.2937  1.9659 -0.8394
  183SOPE   C3720977   2.110   3.683   7.493 -0.6786  0.4074 -0.2218
  183SOPE   H7X20978   2.034   3.760   7.466 -0.9370 -0.1078 -0.9866
  183SOPE   H7Y20979   2.191   3.709   7.422 -0.3496  0.0327  0.0157
  183SOPE   C3820980   2.150   3.718   7.639 -0.7960 -0.2051  0.1321
  183SOPE   H8X20981   2.189   3.822   7.647 -1.4139  0.0925 -0.5853
  183SOPE   H8Y20982   2.223   3.637   7.658 -2.2441 -1.5683  0.0871
  183SOPE   C3920983   2.042   3.695   7.740  0.3673  1.0232  0.0658
  183SOPE   H9X20984   1.985   3.602   7.721  2.9171 -0.5352 -0.4339
  183SOPE   H9Y20985   1.967   3.777   7.743  1.2396  1.8993 -1.1996
  183SOPE  C31020986   2.104   3.677   7.883 -0.2383  0.0405 -0.2158
  183SOPE  H10X20987   2.158   3.769   7.914 -1.5016  1.3941 -1.7882
  183SOPE  H10Y20988   2.178   3.595   7.882 -1.5414 -1.1795 -1.4572
  183SOPE  C31120989   2.005   3.629   7.987  0.2530  0.1016 -0.3431
  183SOPE  H11X20990   2.043   3.599   8.088 -0.7460  0.3584  0.1249
  183SOPE  H11Y20991   1.954   3.537   7.950  0.2504 -0.7720  1.6657
  183SOPE  C31220992   1.899   3.729   8.026 -0.3682  0.5266  0.3030
  183SOPE  H12X20993   1.803   3.676   8.045 -0.4967 -0.2688 -2.2380
  183SOPE  H12Y20994   1.872   3.784   7.933  2.7388  0.6424 -0.6283
  183SOPE  C31320995   1.938   3.818   8.141 -0.5170  0.0855 -0.0361
  183SOPE  H13X20996   2.031   3.870   8.112  1.2545 -2.8899 -0.0651
  183SOPE  H13Y20997   1.966   3.747   8.221  0.8907 -1.1029 -1.5222
  183SOPE  C31420998   1.830   3.913   8.191  0.1184  0.1231 -0.1139
  183SOPE  H14X20999   1.801   3.977   8.105 -0.4040 -0.3186 -0.2698
  183SOPE  H14Y21000   1.882   3.977   8.266  1.8164  0.8107 -1.7844
  183SOPE  C31521001   1.703   3.858   8.255 -0.0642 -0.0230 -0.0136
  183SOPE  H15X21002   1.665   3.787   8.179  0.4156  1.5152 -1.7774
  183SOPE  H15Y21003   1.632   3.943   8.246 -0.6663 -0.6641 -1.7407
  183SOPE  C31621004   1.703   3.799   8.394  0.4564 -0.7013  1.4425
  183SOPE  H16X21005   1.597   3.787   8.427  1.1070 -0.1333  3.9983
  183SOPE  H16Y21006   1.736   3.875   8.468 -1.1179  2.5545 -0.9168
  183SOPE  C31721007   1.749   3.656   8.414  0.3426 -0.5094 -0.2251
  183SOPE  H17X21008   1.859   3.666   8.407  0.3678 -0.1634  0.5148
  183SOPE  H17Y21009   1.711   3.594   8.330 -1.9148 -1.3773  1.3183
  183SOPE  C31821010   1.715   3.593   8.549  0.0757 -0.3273 -0.0412
  183SOPE  H18X21011   1.741   3.661   8.632  0.3555 -0.2771 -0.1677
  183SOPE  H18Y21012   1.774   3.499   8.557 -0.0957 -0.5661 -1.2582
  183SOPE  H18Z21013   1.605   3.577   8.552  0.2469 -1.6234  0.0235
  184SOPE     N21014   2.229   3.818   6.146 -0.1153 -0.5518 -0.4900
  184SOPE   HN121015   2.333   3.810   6.152 -0.1585 -1.6565 -0.9269
  184SOPE   HN221016   2.210   3.797   6.046 -0.6971 -1.4784 -0.2027
  184SOPE   HN321017   2.207   3.916   6.172  2.2525 -0.3301  1.0475
  184SOPE   C1221018   2.166   3.731   6.253  0.9032  0.2435  0.0597
  184SOPE  H12A21019   2.148   3.786   6.348 -0.9870  1.5652 -0.9956
  184SOPE  H12B21020   2.228   3.642   6.277  2.8208  0.9922 -1.8658
  184SOPE   C1121021   2.022   3.701   6.213  0.1032 -0.5678  0.3102
  184SOPE  H11A21022   1.969   3.647   6.295 -1.4076 -2.0159 -1.5346
  184SOPE  H11B21023   2.025   3.646   6.117  0.1636 -3.1953  1.7160
  184SOPE     P21024   1.798   3.817   6.162 -0.3343  0.0441 -0.1249
  184SOPE   O1321025   1.763   3.684   6.097  0.0514  0.3441  0.0740
  184SOPE   O1421026   1.759   3.933   6.074  1.0778 -0.0909 -0.1280
  184SOPE   O1221027   1.958   3.823   6.178  0.5524 -0.2985  0.1789
  184SOPE   O1121028   1.754   3.831   6.315  0.1057 -0.6764 -0.0131
  184SOPE    C121029   1.796   3.942   6.402  0.2219  0.0124  0.3601
  184SOPE    HA21030   1.708   4.008   6.421  0.2818  0.8920 -2.0737
  184SOPE    HB21031   1.872   4.000   6.346 -0.2123  1.7967  1.5223
  184SOPE    C221032   1.857   3.900   6.536 -0.1997  0.3362 -0.7400
  184SOPE    HS21033   1.926   3.814   6.521  0.4826  1.1429 -2.3784
  184SOPE   O2121034   1.751   3.858   6.626 -0.2166  0.0618  0.1662
  184SOPE   C2121035   1.790   3.781   6.720  0.3203  0.1157 -0.0729
  184SOPE   O2221036   1.896   3.723   6.728 -0.0964 -0.3847 -0.1407
  184SOPE   C2221037   1.684   3.768   6.827  0.2331  0.4538 -0.0366
  184SOPE   H2R21038   1.597   3.711   6.788  0.9467 -0.2316 -0.6462
  184SOPE   H2S21039   1.656   3.870   6.860 -1.1138 -0.2325  1.0661
  184SOPE    C321040   1.941   4.011   6.604  1.1449 -0.3917  0.8091
  184SOPE    HX21041   1.876   4.093   6.640  1.1212  0.8736 -1.8655
  184SOPE    HY21042   1.996   4.055   6.518 -1.9039  2.1727  0.0043
  184SOPE   O3121043   2.015   3.977   6.718 -0.5531 -0.0357  0.6049
  184SOPE   C3121044   2.122   3.896   6.690 -0.0074 -0.1037 -0.2447
  184SOPE   O3221045   2.167   3.875   6.581  0.3907  0.1495  1.0194
  184SOPE   C3221046   2.175   3.826   6.812 -0.5380 -0.0486 -0.0806
  184SOPE   H2X21047   2.225   3.731   6.782 -1.4835 -0.7828  0.6024
  184SOPE   H2Y21048   2.086   3.804   6.875 -1.9028  2.9161 -0.8299
  184SOPE   C2321049   1.742   3.705   6.959 -0.1689  0.1261  0.3202
  184SOPE   H3R21050   1.827   3.772   6.984  0.2283 -0.4267  0.4813
  184SOPE   H3S21051   1.787   3.604   6.947  2.2060  1.0908  0.5219
  184SOPE   C2421052   1.648   3.709   7.080  0.1173  0.1528 -0.2761
  184SOPE   H4R21053   1.596   3.807   7.083 -1.4236 -0.4782 -3.0285
  184SOPE   H4S21054   1.582   3.620   7.070 -1.0011  1.1808 -3.1472
  184SOPE   C2521055   1.716   3.692   7.216 -0.1880 -0.1444  0.1857
  184SOPE   H5R21056   1.762   3.591   7.214 -1.0104 -0.5319 -0.0732
  184SOPE   H5S21057   1.779   3.779   7.241  0.3980 -1.0283  1.9131
  184SOPE   C2621058   1.603   3.694   7.322  0.3050  0.6074  0.0287
  184SOPE   H6R21059   1.523   3.768   7.300 -2.5533 -1.7805  1.6771
  184SOPE   H6S21060   1.559   3.592   7.322  2.0840 -0.2161  0.4638
  184SOPE   C2721061   1.658   3.727   7.457 -0.1846 -0.3011  0.4305
  184SOPE   H7R21062   1.738   3.656   7.487 -0.3333 -0.5990  0.1259
  184SOPE   H7S21063   1.703   3.828   7.444  0.3376 -0.0796  3.1886
  184SOPE   C2821064   1.549   3.756   7.565  0.8659  0.9914  0.7371
  184SOPE   H8R21065   1.479   3.831   7.524  1.1685  0.9530  0.1470
  184SOPE   H8S21066   1.491   3.665   7.594  0.4342  1.9131  3.0471
  184SOPE   C2921067   1.617   3.807   7.692 -0.6928 -0.0860  0.3441
  184SOPE   H9121068   1.712   3.859   7.672 -0.1553 -0.9063  0.7179
  184SOPE  C21021069   1.571   3.788   7.815 -0.5383 -0.0617  0.2112
  184SOPE  H10121070   1.635   3.818   7.899  1.2411 -2.3080 -0.2469
  184SOPE  C21121071   1.441   3.714   7.843  0.3573  0.1861  0.1744
  184SOPE  H11R21072   1.440   3.612   7.799  2.2820 -0.1272  0.7579
  184SOPE  H11S21073   1.351   3.755   7.794  1.0116 -0.0941 -1.3230
  184SOPE  C21221074   1.403   3.688   7.992 -0.3671  0.2676 -0.0567
  184SOPE  H12R21075   1.493   3.641   8.038 -0.9898  1.5733  2.7253
  184SOPE  H12S21076   1.320   3.616   7.977  0.5877 -1.1535  1.1998
  184SOPE  C21321077   1.362   3.809   8.062  0.7032  0.6048  0.0853
  184SOPE  H13R21078   1.271   3.855   8.016 -0.1630 -1.0488  0.0698
  184SOPE  H13S21079   1.442   3.885   8.073  0.2236  1.1175  0.1072
  184SOPE  C21421080   1.322   3.776   8.201  0.9174  0.2100 -0.2551
  184SOPE  H14R21081   1.276   3.867   8.245 -0.6134  1.0389 -3.3171
  184SOPE  H14S21082   1.411   3.751   8.263  2.5876  1.1520 -2.1542
  184SOPE  C21521083   1.216   3.665   8.210  0.4362 -0.2896 -0.4569
  184SOPE  H15R21084   1.253   3.569   8.170  0.2525  0.3397 -2.2254
  184SOPE  H15S21085   1.133   3.704   8.147  2.4461  2.0367 -1.8682
  184SOPE  C21621086   1.173   3.640   8.353  0.5259  0.1183 -0.8756
  184SOPE  H16R21087   1.088   3.569   8.358  1.3804 -0.8557  0.9375
  184SOPE  H16S21088   1.147   3.739   8.396  0.8774 -1.1035  2.4633
  184SOPE  C21721089   1.286   3.579   8.435  0.1591  0.0840 -0.1429
  184SOPE  H17R21090   1.347   3.658   8.483 -1.0425 -0.0082  1.6677
  184SOPE  H17S21091   1.346   3.505   8.378  0.2243 -0.1917  0.2750
  184SOPE  C21821092   1.223   3.508   8.552 -0.4441 -0.2192  0.3781
  184SOPE  H18R21093   1.137   3.565   8.595 -0.7359  1.6542 -2.4373
  184SOPE  H18S21094   1.294   3.494   8.636  0.3705  0.4316 -0.1950
  184SOPE  H18T21095   1.185   3.405   8.537  0.2261 -0.7055  1.8716
  184SOPE   C3321096   2.277   3.908   6.891 -0.2542  0.6517 -0.0558
  184SOPE   H3X21097   2.221   3.998   6.925 -0.2492  0.4334  0.5301
  184SOPE   H3Y21098   2.366   3.945   6.837  0.4029 -0.5709  0.1524
  184SOPE   C3421099   2.333   3.829   7.008 -0.0107  0.4720 -0.3387
  184SOPE   H4X21100   2.423   3.770   6.978  0.0330  0.2552  0.2062
  184SOPE   H4Y21101   2.250   3.765   7.045  0.1279  0.2084 -0.4775
  184SOPE   C3521102   2.370   3.916   7.126  0.3337 -0.0488  0.7416
  184SOPE   H5X21103   2.277   3.973   7.148 -0.2500 -1.5169  2.3177
  184SOPE   H5Y21104   2.458   3.976   7.096 -1.5847  2.0454 -1.0656
  184SOPE   C3621105   2.408   3.833   7.245 -0.5747 -0.6295  0.1164
  184SOPE   H6X21106   2.451   3.731   7.230  2.4612  0.3224  1.4398
  184SOPE   H6Y21107   2.320   3.830   7.313  1.3484 -2.2453  2.7589
  184SOPE   C3721108   2.519   3.904   7.327  0.0686  1.0363 -0.5018
  184SOPE   H7X21109   2.484   4.008   7.342 -1.1542  0.9033 -2.1260
  184SOPE   H7Y21110   2.610   3.917   7.264  0.1990  0.7675 -0.3718
  184SOPE   C3821111   2.557   3.828   7.453  0.0374  0.6016 -0.4413
  184SOPE   H8X21112   2.561   3.717   7.445 -2.0029  0.2877  1.9360
  184SOPE   H8Y21113   2.488   3.850   7.536  0.5660  0.2736  0.0957
  184SOPE   C3921114   2.688   3.894   7.515  0.4877  0.4846 -0.0241
  184SOPE   H9X21115   2.674   4.004   7.512 -2.2671  0.1836 -1.9552
  184SOPE   H9Y21116   2.775   3.853   7.460 -0.3511 -0.4482 -0.6876
  184SOPE  C31021117   2.723   3.843   7.659 -0.0110  0.7977  0.0189
  184SOPE  H10X21118   2.743   3.735   7.639 -0.2291  0.8842 -0.7014
  184SOPE  H10Y21119   2.633   3.857   7.722  0.3736  0.1823  0.7105
  184SOPE  C31121120   2.851   3.902   7.719 -0.4218  0.1553  0.2521
  184SOPE  H11X21121   2.834   4.012   7.712 -0.6555  0.0222 -1.6154
  184SOPE  H11Y21122   2.941   3.888   7.655 -1.3327  2.9255 -1.8405
  184SOPE  C31221123   2.876   3.865   7.870  0.0888 -0.2235 -0.0906
  184SOPE  H12X21124   2.959   3.927   7.911  1.7731 -1.5437 -1.3423
  184SOPE  H12Y21125   2.912   3.760   7.873 -0.1949 -0.3514 -0.9773
  184SOPE  C31321126   2.755   3.879   7.960  0.4723 -0.5103  0.3723
  184SOPE  H13X21127   2.692   3.791   7.934  1.8789 -1.4052 -0.1108
  184SOPE  H13Y21128   2.703   3.972   7.929  1.9877 -0.0757 -1.0228
  184SOPE  C31421129   2.786   3.884   8.107  0.4747 -0.2347 -0.0400
  184SOPE  H14X21130   2.693   3.909   8.162  0.6988 -1.0401  0.7401
  184SOPE  H14Y21131   2.856   3.969   8.125 -1.3102  1.6753 -1.7326
  184SOPE  C31521132   2.841   3.745   8.148  0.1996 -0.9930 -0.3632
  184SOPE  H15X21133   2.945   3.728   8.111  1.3575  2.2366  1.0087
  184SOPE  H15Y21134   2.762   3.670   8.127 -1.2068  0.2947  0.1060
  184SOPE  C31621135   2.845   3.717   8.296  0.2157 -0.5129  0.3376
  184SOPE  H16X21136   2.884   3.614   8.313  2.5249  0.3680  0.7255
  184SOPE  H16Y21137   2.743   3.723   8.339  0.3774 -0.0636  0.6733
  184SOPE  C31721138   2.916   3.833   8.379 -0.5781  0.6684  0.6711
  184SOPE  H17X21139   2.867   3.931   8.362  0.7903  1.0319 -1.4895
  184SOPE  H17Y21140   3.017   3.842   8.335 -0.1578 -3.9604  0.2430
  184SOPE  C31821141   2.937   3.796   8.530  0.1554 -0.6852  0.3771
  184SOPE  H18X21142   3.012   3.713   8.538  0.6534 -0.3462 -0.6181
  184SOPE  H18Y21143   2.842   3.769   8.581  0.2462 -0.5551  0.6168
  184SOPE  H18Z21144   2.996   3.874   8.583  1.7283 -0.5534 -1.4695
  185SAPI   C1221145   5.208   6.549  11.220 -0.9597  0.3580  0.1362
  185SAPI    H221146   5.103   6.518  11.240 -0.1473 -2.1366  1.0220
  185SAPI    O221147   5.239   6.675  11.277  0.4108  0.5244 -0.1572
  185SAPI   HO221148   5.255   6.738  11.206  0.3942 -0.7685 -1.3483
  185SAPI   C1321149   5.289   6.429  11.271 -0.0316 -0.1805 -0.1198
  185SAPI    H321150   5.262   6.333  11.222 -1.1254  1.2881 -2.5968
  185SAPI    O321151   5.274   6.403  11.414  0.2263 -0.4322 -0.3000
  185SAPI   HO321152   5.245   6.311  11.424 -1.0540 -0.2076 -1.5295
  185SAPI   C1421153   5.434   6.442  11.229  0.3017 -0.0764 -0.3810
  185SAPI    H421154   5.469   6.540  11.271 -3.0901  1.8461 -1.6802
  185SAPI    O421155   5.517   6.343  11.291  0.1104 -0.6027  0.1907
  185SAPI   HO421156   5.499   6.253  11.261  3.4685 -1.8939  1.5866
  185SAPI   C1521157   5.449   6.450  11.079  0.5672 -0.1244 -0.0505
  185SAPI    H521158   5.402   6.360  11.032 -0.5824  0.6533 -0.4429
  185SAPI    O521159   5.591   6.458  11.048 -0.3268  0.3189  0.7891
  185SAPI   HO521160   5.632   6.394  11.107  2.0772  1.1286  0.1173
  185SAPI   C1621161   5.369   6.568  11.031  0.4223  0.1406 -0.1955
  185SAPI    H621162   5.416   6.656  11.081 -1.2917  1.5142 -0.9081
  185SAPI    O621163   5.378   6.588  10.893 -0.2904 -0.2643 -0.1225
  185SAPI   HO621164   5.292   6.615  10.859  0.3533  0.5328 -1.1653
  185SAPI   C1121165   5.222   6.557  11.070 -0.1888  0.6131  0.7385
  185SAPI    H121166   5.193   6.456  11.033  2.4254 -0.1963  0.6835
  185SAPI     P21167   5.017   6.643  10.912  0.0333  0.3210  0.7713
  185SAPI   O1321168   4.940   6.765  10.896 -0.1173 -0.0563  0.3350
  185SAPI   O1421169   4.938   6.518  10.932 -0.1338 -0.6098  0.2208
  185SAPI   O1221170   5.134   6.665  11.024 -1.1804 -0.1636  0.1119
  185SAPI   O1121171   5.107   6.625  10.787  0.9672  0.2318  0.5458
  185SAPI    C121172   5.158   6.732  10.702 -0.4207  0.3562 -0.2194
  185SAPI    HA21173   5.226   6.794  10.762 -1.8477 -0.0356  1.9258
  185SAPI    HB21174   5.227   6.689  10.626  0.6299 -0.2504  1.0373
  185SAPI    C221175   5.050   6.820  10.626  0.0543  0.1769  0.3434
  185SAPI    HS21176   4.987   6.880  10.696 -0.8233 -0.2440 -0.0646
  185SAPI   O2121177   4.975   6.727  10.549 -0.6403 -0.1532 -0.0003
  185SAPI   C2121178   4.845   6.754  10.543  0.6509 -0.3973  0.1021
  185SAPI   O2221179   4.793   6.852  10.598 -0.6940 -0.0986  0.1744
  185SAPI   C2221180   4.760   6.649  10.483  0.0420 -0.3273  0.4119
  185SAPI   H2R21181   4.793   6.549  10.519 -2.5151 -0.4684  2.6153
  185SAPI   H2S21182   4.660   6.664  10.529  0.8406 -2.1807  2.9735
  185SAPI    C321183   5.141   6.912  10.534  0.1299  0.9161 -0.2595
  185SAPI    HX21184   5.203   6.849  10.466 -1.2672 -1.0911  0.2404
  185SAPI    HY21185   5.216   6.966  10.596  0.3787  0.2601  0.0207
  185SAPI   O3121186   5.065   7.019  10.467 -0.0055  0.6743 -0.5937
  185SAPI   C3121187   5.032   7.027  10.347 -0.1649 -0.6829  0.0612
  185SAPI   O3221188   5.071   6.954  10.262  0.1125  0.3844  0.4793
  185SAPI   C3221189   4.963   7.155  10.327  0.2674 -0.0468 -0.4952
  185SAPI   H2X21190   5.026   7.232  10.376  2.3227 -2.1026  0.3100
  185SAPI   H2Y21191   4.866   7.142  10.378  0.9491  0.0532  0.8620
  185SAPI   C2321192   4.752   6.667  10.325  0.5277  0.2007 -0.9370
  185SAPI   H3R21193   4.838   6.620  10.273 -0.3670 -1.1697 -1.2479
  185SAPI   H3S21194   4.747   6.775  10.302  0.2658  0.6766  1.1326
  185SAPI   C2421195   4.631   6.602  10.263  0.3581  0.7084 -0.2378
  185SAPI   H4R21196   4.546   6.654  10.312 -0.4078  1.3606 -2.1654
  185SAPI   H4S21197   4.634   6.497  10.301  0.5105  0.2070 -1.5673
  185SAPI   C2521198   4.633   6.594  10.111 -0.4312  0.1309 -0.3350
  185SAPI   H5R21199   4.672   6.500  10.070 -0.7543  0.1052 -0.5902
  185SAPI   C2621200   4.591   6.685  10.024  0.1663  0.4225 -0.3409
  185SAPI   H6R21201   4.613   6.681   9.916  0.7112 -0.5201 -0.2054
  185SAPI   C2721202   4.519   6.813  10.069 -0.1581  0.7877 -0.5757
  185SAPI   H7R21203   4.483   6.811  10.174 -1.2473 -0.5329 -0.9463
  185SAPI   H7S21204   4.430   6.835  10.006  0.1792  2.8317 -0.4295
  185SAPI   C2821205   4.626   6.912  10.048 -0.9694 -0.1425  0.6808
  185SAPI   H8R21206   4.709   6.907  10.120 -0.0294  1.9035 -0.2041
  185SAPI   C2921207   4.636   7.000   9.939  0.1310 -0.3451 -0.1476
  185SAPI   H9R21208   4.726   7.064   9.941  0.0669 -0.2786  1.3624
  185SAPI  C21021209   4.542   7.010   9.817 -0.2582  0.5734 -0.7756
  185SAPI  H10R21210   4.531   7.115   9.783 -1.7848  0.6872  0.0096
  185SAPI  H10S21211   4.443   6.999   9.865  0.9665 -1.5049  1.4600
  185SAPI  C21121212   4.548   6.918   9.697 -0.2577  0.0010  0.3778
  185SAPI  H11R21213   4.551   6.812   9.725  1.5824 -0.1501 -0.2285
  185SAPI  C21221214   4.519   6.943   9.567 -0.7681 -0.2310 -0.1815
  185SAPI  H12R21215   4.539   6.865   9.492  0.6562 -2.6515  2.4938
  185SAPI  C21321216   4.489   7.079   9.507  0.3919  0.0281 -0.4282
  185SAPI  H13R21217   4.543   7.077   9.410  0.3964  0.1301 -0.4274
  185SAPI  H13S21218   4.537   7.163   9.562  0.9260 -0.3800 -0.2633
  185SAPI  C21421219   4.342   7.120   9.494 -0.1496 -0.0633 -0.3639
  185SAPI  H14R21220   4.331   7.204   9.564  1.7882  1.7464 -2.1016
  185SAPI  C21521221   4.247   7.094   9.405 -0.8559  0.3381 -0.4502
  185SAPI  H15R21222   4.151   7.146   9.418 -1.8906 -1.9266  1.6882
  185SAPI  C21621223   4.270   7.005   9.288  0.2081 -0.2271  0.5057
  185SAPI  H16R21224   4.205   6.917   9.304  0.9542 -0.4858  2.2968
  185SAPI  H16S21225   4.376   6.974   9.275  0.2741  0.5184 -1.0232
  185SAPI  C21721226   4.239   7.083   9.157  0.4469  0.2760  0.4905
  185SAPI  H17R21227   4.271   7.028   9.066  0.2234 -0.0721  0.6257
  185SAPI  H17S21228   4.294   7.180   9.159 -1.2637  1.3476 -1.1080
  185SAPI  C21821229   4.089   7.126   9.151  0.1010 -0.1226 -0.6795
  185SAPI  H18R21230   4.080   7.207   9.227  1.7043 -0.7209  0.1946
  185SAPI  H18S21231   4.028   7.039   9.181  1.2299  0.0990  2.6047
  185SAPI  C21921232   4.029   7.177   9.020 -0.2614  0.2786 -0.9986
  185SAPI  H19R21233   3.933   7.231   9.030 -0.3884 -0.1502  0.2987
  185SAPI  H19S21234   4.006   7.081   8.968 -1.2446 -1.1243  1.8272
  185SAPI  C22021235   4.131   7.260   8.952 -0.7852 -0.7348 -0.1078
  185SAPI  H20R21236   4.209   7.192   8.912  0.7617  0.9583 -0.0942
  185SAPI  H20S21237   4.173   7.341   9.015 -0.5703  0.1192 -1.3181
  185SAPI  H20T21238   4.088   7.301   8.858 -1.1407 -3.0662 -1.0346
  185SAPI   C3321239   4.924   7.181  10.179  0.1786  0.1097 -0.1451
  185SAPI   H3X21240   4.852   7.266  10.185  1.8322  1.6657 -1.2185
  185SAPI   H3Y21241   4.890   7.086  10.132 -0.0149 -1.2101  2.4649
  185SAPI   C3421242   5.037   7.241  10.089  0.6895  0.5719  0.3740
  185SAPI   H4X21243   5.112   7.163  10.063  0.1626  0.9353 -2.5298
  185SAPI   H4Y21244   5.081   7.317  10.158 -1.3198  0.8057  1.4743
  185SAPI   C3521245   4.980   7.311   9.960  0.4168 -0.2772  0.1369
  185SAPI   H5X21246   5.039   7.394   9.915  0.6908 -0.8984 -0.6736
  185SAPI   H5Y21247   4.883   7.357   9.986  0.9870  0.9268  0.1814
  185SAPI   C3621248   4.975   7.218   9.835  0.2704  0.2377 -0.7880
  185SAPI   H6X21249   4.899   7.143   9.862  1.1680  0.2944  2.2056
  185SAPI   H6Y21250   5.074   7.167   9.838  0.4465  0.5753 -0.7088
  185SAPI   C3721251   4.945   7.301   9.715  0.0592 -0.2681  0.1064
  185SAPI   H7X21252   5.024   7.379   9.709  0.0753 -0.2327  0.7040
  185SAPI   H7Y21253   4.848   7.352   9.733 -0.7073 -0.9821 -1.6856
  185SAPI   C3821254   4.935   7.221   9.591 -0.8284 -0.0910  0.3329
  185SAPI   H8X21255   4.835   7.174   9.578  0.0744 -2.1332  0.3959
  185SAPI   H8Y21256   5.008   7.138   9.583 -0.9546 -0.0745 -1.5142
  185SAPI   C3921257   4.974   7.301   9.466  0.4220  0.5746 -1.0012
  185SAPI   H9X21258   4.936   7.234   9.386 -0.7108 -0.2857  0.2222
  185SAPI   H9Y21259   5.085   7.307   9.455  0.3681  1.7748 -1.0668
  185SAPI  C31021260   4.908   7.434   9.431 -0.3358 -0.5861 -0.6596
  185SAPI  H10X21261   4.929   7.510   9.509  0.0314 -1.5004  0.1459
  185SAPI  H10Y21262   4.798   7.416   9.436 -0.1938 -1.6760 -1.1292
  185SAPI  C31121263   4.938   7.473   9.288 -0.5412  0.1492 -0.0942
  185SAPI  H11X21264   5.038   7.521   9.282  1.0456 -2.3397  3.2176
  185SAPI  H11Y21265   4.863   7.551   9.264  0.0415  1.2480  1.4635
  185SAPI  C31221266   4.927   7.361   9.184 -0.1297 -0.2612 -0.1844
  185SAPI  H12X21267   4.834   7.300   9.191 -0.2833  0.0771  0.8710
  185SAPI  H12Y21268   5.004   7.281   9.194  0.8836  0.9607  2.6907
  185SAPI  C31321269   4.917   7.410   9.038  0.1841  0.1274 -0.1791
  185SAPI  H13X21270   5.009   7.462   9.004  0.1155  0.1934 -0.2647
  185SAPI  H13Y21271   4.831   7.479   9.025  0.2427  0.0563 -0.9899
  185SAPI  C31421272   4.892   7.286   8.951 -0.0906  0.4429  0.9079
  185SAPI  H14X21273   4.805   7.233   8.995 -1.0484 -0.1112 -1.4814
  185SAPI  H14Y21274   4.975   7.213   8.944  0.9981  1.5607  1.8331
  185SAPI  C31521275   4.830   7.313   8.809 -0.0185  0.2396  1.0121
  185SAPI  H15X21276   4.736   7.370   8.824 -0.0190  0.3024  0.7781
  185SAPI  H15Y21277   4.796   7.215   8.771  0.5774  0.1696  0.6400
  185SAPI  C31621278   4.932   7.381   8.709 -0.2752 -1.2616  0.2686
  185SAPI  H16X21279   5.013   7.313   8.676  2.3918  3.0657 -3.4416
  185SAPI  H16Y21280   4.980   7.470   8.755 -2.2359 -0.8190  1.5832
  185SAPI  C31721281   4.865   7.432   8.581 -0.0843 -0.1197  0.7050
  185SAPI  H17X21282   4.792   7.356   8.545 -0.5005 -0.6718  2.6179
  185SAPI  H17Y21283   4.939   7.443   8.499 -0.4829  2.1670  0.5893
  185SAPI  C31821284   4.782   7.562   8.595 -0.5637 -0.0012  0.4208
  185SAPI  H18X21285   4.849   7.650   8.605  2.2786 -1.8594 -0.7093
  185SAPI  H18Y21286   4.729   7.561   8.692  0.8002  3.2350  1.3335
  185SAPI  H18Z21287   4.720   7.586   8.506  0.6112  0.2107 -0.3602
  186SAPI   C1221288   0.614   5.586  10.624  0.1240 -0.2569  0.5426
  186SAPI    H221289   0.594   5.610  10.518  0.9738  0.4506  0.5355
  186SAPI    O221290   0.677   5.460  10.614 -0.3216 -0.3114  0.1344
  186SAPI   HO221291   0.649   5.412  10.535 -1.2020  0.8920 -0.3085
  186SAPI   C1321292   0.710   5.683  10.676 -0.5840  0.1014 -0.1811
  186SAPI    H321293   0.659   5.780  10.692  0.7720  0.9001 -0.5455
  186SAPI    O321294   0.813   5.707  10.584  0.0284 -0.4157 -0.2070
  186SAPI   HO321295   0.891   5.660  10.612  0.1986  0.1432  0.2992
  186SAPI   C1421296   0.762   5.649  10.818 -0.0814 -0.4954  0.2604
  186SAPI    H421297   0.803   5.546  10.819  0.9056 -0.2578 -3.3142
  186SAPI    O421298   0.857   5.743  10.881  0.5519  0.0158 -0.5678
  186SAPI   HO421299   0.832   5.835  10.870  1.5512  0.6112  1.6450
  186SAPI   C1521300   0.640   5.642  10.908 -0.6796  0.1651  0.2664
  186SAPI    H521301   0.586   5.739  10.911 -3.3517 -1.2474  2.6763
  186SAPI    O521302   0.680   5.614  11.044 -0.3402  0.1369  0.4408
  186SAPI   HO521303   0.761   5.563  11.039  1.4102  2.7680  0.1303
  186SAPI   C1621304   0.536   5.540  10.853 -0.4815 -0.5575 -0.8305
  186SAPI    H621305   0.584   5.440  10.856  1.0913  0.1576 -1.0304
  186SAPI    O621306   0.421   5.545  10.937 -0.0250 -0.5617 -0.3082
  186SAPI   HO621307   0.428   5.624  10.991  0.7389 -1.4176  0.8808
  186SAPI   C1121308   0.493   5.580  10.713 -0.3154  0.7799  0.6858
  186SAPI    H121309   0.448   5.682  10.713 -0.5087  0.6970  0.2328
  186SAPI     P21310   0.293   5.537  10.539  0.4718  0.2095 -0.2963
  186SAPI   O1321311   0.225   5.660  10.577  0.2973 -0.0380  0.3859
  186SAPI   O1421312   0.202   5.418  10.514  0.1227 -0.0087  0.4306
  186SAPI   O1221313   0.393   5.493  10.663  0.0337 -0.1118  0.1116
  186SAPI   O1121314   0.379   5.561  10.404 -0.2803 -0.1155 -0.3343
  186SAPI    C121315   0.359   5.672  10.320 -0.1591  0.0409  0.4690
  186SAPI    HA21316   0.376   5.769  10.370 -0.2046  0.6064 -0.5857
  186SAPI    HB21317   0.432   5.673  10.236  1.1889 -1.8664  1.5335
  186SAPI    C221318   0.216   5.671  10.254 -0.2314  0.6735 -0.1086
  186SAPI    HS21319   0.144   5.663  10.339 -0.0697 -3.9768 -0.1616
  186SAPI   O2121320   0.194   5.551  10.170 -0.4182  0.1483 -0.4416
  186SAPI   C2121321   0.070   5.540  10.113 -0.1379  0.5688  0.5043
  186SAPI   O2221322  -0.026   5.613  10.135  0.0624 -0.0807 -0.0225
  186SAPI   C2221323   0.077   5.416  10.029 -1.0801 -0.8909  0.4654
  186SAPI   H2R21324   0.181   5.406   9.993 -0.8250  1.1605  0.5291
  186SAPI   H2S21325   0.045   5.333  10.097 -2.7013  0.4078  1.3682
  186SAPI    C321326   0.191   5.803  10.176 -0.3824  0.3516 -0.3149
  186SAPI    HX21327   0.238   5.882  10.238 -0.7022 -0.9792  1.6983
  186SAPI    HY21328   0.080   5.799  10.169 -0.4768 -0.3547  1.1347
  186SAPI   O3121329   0.255   5.783  10.048  0.5186  0.1002  0.4934
  186SAPI   C3121330   0.236   5.886   9.960 -0.5139 -0.2085 -0.0855
  186SAPI   O3221331   0.173   5.989   9.980 -0.2318  0.2394  0.5890
  186SAPI   C3221332   0.311   5.859   9.836  0.0646 -0.4453 -0.1258
  186SAPI   H2X21333   0.300   5.753   9.807 -1.3839 -0.3447 -0.0290
  186SAPI   H2Y21334   0.419   5.872   9.858 -0.0187 -1.0395  0.6983
  186SAPI   C2321335  -0.031   5.420   9.921 -0.1880 -0.6207  0.7647
  186SAPI   H3R21336  -0.133   5.442   9.959 -0.6891  0.7104 -1.1667
  186SAPI   H3S21337  -0.040   5.320   9.875 -2.4554 -0.6768  1.2140
  186SAPI   C2421338  -0.011   5.520   9.805 -0.2723 -0.4872  0.0699
  186SAPI   H4R21339  -0.051   5.617   9.839  0.4230  0.1469 -0.8710
  186SAPI   H4S21340  -0.083   5.482   9.730 -1.0903 -1.6109  1.3789
  186SAPI   C2521341   0.129   5.526   9.741  0.5262 -0.0768 -0.4601
  186SAPI   H5R21342   0.193   5.581   9.811 -1.2093  1.6772 -0.1325
  186SAPI   C2621343   0.167   5.495   9.618 -0.1876 -0.5007  0.4492
  186SAPI   H6R21344   0.276   5.506   9.603 -0.1657  0.3685  1.2293
  186SAPI   C2721345   0.098   5.445   9.487 -0.4460 -0.9799 -0.8227
  186SAPI   H7R21346   0.032   5.360   9.513 -1.1243 -0.1640  0.2102
  186SAPI   H7S21347   0.179   5.399   9.426  1.9848  3.6107 -1.5787
  186SAPI   C2821348   0.021   5.544   9.393  0.5774  0.9822 -0.4705
  186SAPI   H8R21349  -0.032   5.616   9.457 -0.2767 -1.1461  1.3739
  186SAPI   C2921350   0.000   5.551   9.263  0.4510  0.9449  0.6359
  186SAPI   H9R21351  -0.056   5.637   9.223 -1.1054 -0.7683 -1.0556
  186SAPI  C21021352   0.055   5.458   9.158 -0.3863  0.0173 -0.3173
  186SAPI  H10R21353  -0.018   5.467   9.074 -0.1520  0.2643 -0.4958
  186SAPI  H10S21354   0.069   5.350   9.180 -1.7030 -0.6768 -2.5598
  186SAPI  C21121355   0.178   5.518   9.100 -0.2443  0.5391 -0.7514
  186SAPI  H11R21356   0.241   5.566   9.176  0.5153 -2.0665  0.3788
  186SAPI  C21221357   0.220   5.500   8.970  0.3241 -0.0506  0.6752
  186SAPI  H12R21358   0.310   5.547   8.930 -0.3445 -0.0973 -0.9652
  186SAPI  C21321359   0.156   5.413   8.868  0.2237  0.5923  0.7064
  186SAPI  H13R21360   0.108   5.329   8.922  2.9519 -2.4003 -1.1586
  186SAPI  H13S21361   0.234   5.367   8.804  0.8137  0.7528  1.2904
  186SAPI  C21421362   0.054   5.479   8.769  0.1329 -0.2599 -0.0619
  186SAPI  H14R21363   0.061   5.588   8.772  0.7915 -0.0704 -3.7182
  186SAPI  C21521364  -0.031   5.419   8.681 -0.1899  0.1217  0.1327
  186SAPI  H15R21365  -0.080   5.494   8.619  1.6584  3.5860  2.5341
  186SAPI  C21621366  -0.035   5.270   8.651 -0.5279 -0.5325 -0.1802
  186SAPI  H16R21367   0.026   5.217   8.726 -0.3905  2.4890  2.0469
  186SAPI  H16S21368   0.020   5.260   8.555 -1.0562 -0.1113 -0.5314
  186SAPI  C21721369  -0.180   5.219   8.645 -0.4758 -0.0467 -1.2668
  186SAPI  H17R21370  -0.246   5.284   8.583 -1.2168  0.0750 -0.3732
  186SAPI  H17S21371  -0.220   5.218   8.749  0.9742 -1.3992 -0.6897
  186SAPI  C21821372  -0.167   5.078   8.583 -0.1200 -0.3251 -0.3652
  186SAPI  H18R21373  -0.119   5.003   8.650 -2.4270 -0.7585  0.9372
  186SAPI  H18S21374  -0.105   5.084   8.491  0.8522 -0.1282  0.2867
  186SAPI  C21921375  -0.292   5.004   8.548  0.7064 -0.4641 -0.5527
  186SAPI  H19R21376  -0.278   4.905   8.499 -2.9560 -1.5734  0.3537
  186SAPI  H19S21377  -0.353   5.062   8.476  0.9774  0.1560 -0.2883
  186SAPI  C22021378  -0.385   4.978   8.667  0.3090  0.3212 -0.1675
  186SAPI  H20R21379  -0.477   4.923   8.640  1.6174 -0.7181 -2.9171
  186SAPI  H20S21380  -0.425   5.071   8.712  0.5540 -0.3432  1.5049
  186SAPI  H20T21381  -0.342   4.914   8.748 -1.8688 -4.7539 -2.6165
  186SAPI   C3321382   0.265   5.941   9.715  0.7162 -0.4172 -0.2830
  186SAPI   H3X21383   0.317   6.039   9.721 -1.1733  0.5429  1.6659
  186SAPI   H3Y21384   0.160   5.975   9.721  0.6536 -0.8388  2.0437
  186SAPI   C3421385   0.286   5.871   9.581 -0.2660  0.0337  0.5589
  186SAPI   H4X21386   0.244   5.768   9.591 -2.4456  0.7536 -0.5842
  186SAPI   H4Y21387   0.395   5.877   9.556 -0.3031 -1.5271 -0.0935
  186SAPI   C3521388   0.215   5.945   9.472 -0.0511 -0.0074 -0.1644
  186SAPI   H5X21389   0.247   6.051   9.465  2.1087 -0.7077 -2.4090
  186SAPI   H5Y21390   0.108   5.936   9.501  0.2400  0.2061  1.0150
  186SAPI   C3621391   0.249   5.882   9.332  0.7198  0.3684 -0.0740
  186SAPI   H6X21392   0.217   5.958   9.257  0.7388  0.0576 -0.4003
  186SAPI   H6Y21393   0.189   5.789   9.322  2.1978 -0.5233 -0.8322
  186SAPI   C3721394   0.395   5.846   9.292 -0.1250 -0.2361  0.0484
  186SAPI   H7X21395   0.424   5.754   9.348  0.0202  0.2176  0.7244
  186SAPI   H7Y21396   0.464   5.930   9.311  0.0438 -0.3212 -0.1899
  186SAPI   C3821397   0.406   5.813   9.135  0.0862 -0.2122  0.4185
  186SAPI   H8X21398   0.314   5.764   9.099 -0.5648  1.1533  0.1495
  186SAPI   H8Y21399   0.490   5.740   9.134  0.3663 -0.0251  2.8131
  186SAPI   C3921400   0.434   5.937   9.051 -0.1992 -0.3529 -0.5795
  186SAPI   H9X21401   0.543   5.953   9.068 -0.5214  0.2981  1.0032
  186SAPI   H9Y21402   0.376   6.024   9.087 -1.8986 -2.0147  0.9835
  186SAPI  C31021403   0.426   5.906   8.896 -0.4183  0.7534 -0.1283
  186SAPI  H10X21404   0.482   5.812   8.877 -0.2096  0.7504  0.4770
  186SAPI  H10Y21405   0.474   5.988   8.840  3.1902  0.8385  2.7234
  186SAPI  C31121406   0.279   5.892   8.854 -0.3825 -0.3954 -0.9475
  186SAPI  H11X21407   0.217   5.981   8.878 -1.5846 -0.9206 -2.0311
  186SAPI  H11Y21408   0.229   5.809   8.908  0.9310 -0.5979 -0.0045
  186SAPI  C31221409   0.253   5.876   8.702 -0.3531  0.3761 -0.2023
  186SAPI  H12X21410   0.287   5.776   8.667  0.1825  1.2671 -2.4139
  186SAPI  H12Y21411   0.295   5.956   8.638 -0.8146 -0.5710 -1.7244
  186SAPI  C31321412   0.099   5.884   8.663 -0.2637 -0.0409 -0.3602
  186SAPI  H13X21413   0.063   5.984   8.693  2.0413  1.0134 -0.8594
  186SAPI  H13Y21414   0.044   5.810   8.726  1.0489  1.3487  2.6445
  186SAPI  C31421415   0.072   5.866   8.513  0.4125  0.4573 -0.0982
  186SAPI  H14X21416   0.089   5.761   8.480 -0.8191 -0.3856  1.7747
  186SAPI  H14Y21417   0.158   5.924   8.473 -0.0281  0.8196 -0.5171
  186SAPI  C31521418  -0.064   5.918   8.462 -0.5672 -0.2125  0.1899
  186SAPI  H15X21419  -0.091   6.016   8.507 -2.5247 -1.6868  2.4686
  186SAPI  H15Y21420  -0.151   5.852   8.482 -0.8422  0.3957  1.0166
  186SAPI  C31621421  -0.063   5.940   8.309  0.3525 -0.5819  0.2240
  186SAPI  H16X21422  -0.086   5.840   8.267 -0.1279  0.0512 -1.0497
  186SAPI  H16Y21423   0.040   5.967   8.278  0.0835  0.7940  0.4637
  186SAPI  C31721424  -0.166   6.042   8.263 -0.1632  0.1561  0.1661
  186SAPI  H17X21425  -0.128   6.143   8.290  0.2232  0.1703 -0.3984
  186SAPI  H17Y21426  -0.259   6.012   8.314  1.3060 -1.1157  2.2724
  186SAPI  C31821427  -0.171   6.055   8.112 -0.5008  0.1639 -0.7557
  186SAPI  H18X21428  -0.080   6.095   8.063 -0.2286  2.0014  1.0969
  186SAPI  H18Y21429  -0.256   6.123   8.090 -0.1884  0.4001 -1.2397
  186SAPI  H18Z21430  -0.184   5.950   8.076 -0.5876  0.3482 -1.2677
  187SAPI   C1221431   3.995   6.701   6.201 -0.0527  0.7195 -0.1540
  187SAPI    H221432   3.924   6.616   6.190 -1.8646  2.0907  0.4576
  187SAPI    O221433   4.068   6.696   6.079  0.3410  0.1166  0.1529
  187SAPI   HO221434   4.076   6.607   6.043 -2.0600  0.3921 -1.2527
  187SAPI   C1321435   3.905   6.827   6.214 -0.4180  0.3337  0.2675
  187SAPI    H321436   3.854   6.829   6.312  0.4456 -0.5226  0.7526
  187SAPI    O321437   3.805   6.827   6.113  0.3673  0.1067 -0.0227
  187SAPI   HO321438   3.849   6.819   6.028 -0.0680 -1.2582 -0.1370
  187SAPI   C1421439   4.002   6.942   6.206 -0.2055 -0.0813 -0.0601
  187SAPI    H421440   4.071   6.937   6.118  0.8515  1.2213  0.6650
  187SAPI    O421441   3.942   7.069   6.185  0.2477  0.3486 -0.9556
  187SAPI   HO421442   4.009   7.138   6.181  0.6207  0.0582  0.0461
  187SAPI   C1521443   4.104   6.940   6.318 -0.2437 -0.8478 -0.9449
  187SAPI    H521444   4.053   6.950   6.416  2.7362  0.8134  0.5869
  187SAPI    O521445   4.190   7.058   6.310  0.5470  0.1131 -0.2423
  187SAPI   HO521446   4.181   7.115   6.387 -3.0281  1.3509 -1.3743
  187SAPI   C1621447   4.179   6.805   6.322 -0.3198  0.1841  0.6795
  187SAPI    H621448   4.242   6.798   6.231 -1.9097  1.4728 -0.5702
  187SAPI    O621449   4.265   6.786   6.435 -0.5796 -0.5095 -0.0996
  187SAPI   HO621450   4.296   6.695   6.442  0.9244  0.0637  1.3459
  187SAPI   C1121451   4.079   6.687   6.326 -0.6194 -0.0242 -0.1615
  187SAPI    H121452   4.009   6.706   6.410  1.0919  2.0250  0.9004
  187SAPI     P21453   4.049   6.433   6.391 -0.1050 -0.2432  0.1834
  187SAPI   O1321454   4.115   6.308   6.357  0.6760  0.1411 -0.3448
  187SAPI   O1421455   3.903   6.452   6.360 -0.2074 -0.1718 -0.2420
  187SAPI   O1221456   4.141   6.558   6.331  0.0863  0.5574  0.6835
  187SAPI   O1121457   4.078   6.445   6.543 -0.6315 -1.1094  0.3028
  187SAPI    C121458   3.995   6.421   6.652  0.1287 -0.2733 -1.0278
  187SAPI    HA21459   3.949   6.321   6.637 -1.3523  0.6147 -2.8686
  187SAPI    HB21460   4.057   6.422   6.744 -2.4414  0.1945  0.8348
  187SAPI    C221461   3.876   6.522   6.665  0.2175  0.0186  0.0219
  187SAPI    HS21462   3.829   6.530   6.565  1.3894 -0.6212 -0.5934
  187SAPI   O2121463   3.931   6.648   6.708  0.0524  0.1048 -0.0336
  187SAPI   C2121464   3.871   6.752   6.654  0.0754 -0.3630 -0.4627
  187SAPI   O2221465   3.784   6.739   6.571 -0.4326 -0.1978  0.4145
  187SAPI   C2221466   3.916   6.877   6.734  0.4390  0.7694 -0.2017
  187SAPI   H2R21467   3.992   6.861   6.814 -0.7518 -1.4761  0.5773
  187SAPI   H2S21468   3.965   6.947   6.664 -1.5963  2.0750 -0.4131
  187SAPI    C321469   3.779   6.466   6.770 -0.5492  0.0267 -0.0666
  187SAPI    HX21470   3.716   6.390   6.718 -1.8533 -1.2911  3.2057
  187SAPI    HY21471   3.717   6.550   6.810  1.6070  1.0929  1.1780
  187SAPI   O3121472   3.833   6.404   6.896 -0.1943 -0.2905  1.3070
  187SAPI   C3121473   3.761   6.311   6.947  0.1833 -0.1673  0.5239
  187SAPI   O3221474   3.656   6.271   6.899 -0.4239 -0.4078  0.0955
  187SAPI   C3221475   3.856   6.224   7.035 -0.3397  0.2955  0.2811
  187SAPI   H2X21476   3.899   6.290   7.114 -1.1343  1.3434 -0.1543
  187SAPI   H2Y21477   3.942   6.198   6.969  0.1527  0.6057  0.7879
  187SAPI   C2321478   3.791   6.939   6.810 -0.2828  0.2767 -0.2790
  187SAPI   H3R21479   3.740   6.859   6.867  0.2710  0.0291 -0.1206
  187SAPI   H3S21480   3.718   6.967   6.731 -1.1543  1.8051  1.0021
  187SAPI   C2421481   3.814   7.062   6.899 -0.1859  0.3207 -0.1880
  187SAPI   H4R21482   3.710   7.085   6.931 -0.3292  2.4651 -1.9138
  187SAPI   H4S21483   3.854   7.142   6.833 -0.4042  0.3610 -0.2724
  187SAPI   C2521484   3.904   7.045   7.020 -0.0632  0.2932  0.1495
  187SAPI   H5R21485   4.006   7.010   6.998 -0.5734 -0.8635 -0.4918
  187SAPI   C2621486   3.874   7.061   7.149  0.6283  0.8037 -0.4977
  187SAPI   H6R21487   3.951   7.031   7.222 -0.3527 -0.8159 -0.0844
  187SAPI   C2721488   3.739   7.088   7.220  0.0657  0.3179  0.3961
  187SAPI   H7R21489   3.715   6.991   7.268 -2.5482 -1.2294 -3.4664
  187SAPI   H7S21490   3.663   7.110   7.142  2.3358 -0.6043 -2.2919
  187SAPI   C2821491   3.747   7.205   7.318  0.3044 -0.1838  0.4219
  187SAPI   H8R21492   3.745   7.309   7.282  0.0873  0.8658  3.2166
  187SAPI   C2921493   3.749   7.201   7.454  0.1101  0.4788  0.7342
  187SAPI   H9R21494   3.776   7.296   7.502 -1.9884  2.2520 -1.3526
  187SAPI  C21021495   3.751   7.068   7.530  0.8007  0.4812  0.1952
  187SAPI  H10R21496   3.809   7.090   7.622 -0.0546  1.2139  0.5748
  187SAPI  H10S21497   3.822   7.000   7.477  0.3147 -0.9582  1.3417
  187SAPI  C21121498   3.618   7.002   7.555 -1.0718 -0.3013 -0.4897
  187SAPI  H11R21499   3.594   6.910   7.499  1.6381 -1.3293 -0.1126
  187SAPI  C21221500   3.521   7.044   7.636  0.0322  0.2393  0.4904
  187SAPI  H12R21501   3.423   6.994   7.635  1.1581 -2.0651 -1.0937
  187SAPI  C21321502   3.527   7.163   7.724 -0.6227 -0.6689 -1.1352
  187SAPI  H13R21503   3.468   7.254   7.698  0.4539  0.7254  0.9679
  187SAPI  H13S21504   3.635   7.187   7.729 -0.4232 -1.7691  1.8948
  187SAPI  C21421505   3.487   7.128   7.862 -0.0724 -0.2877 -0.1659
  187SAPI  H14R21506   3.439   7.029   7.872  0.4430 -0.4604  0.6942
  187SAPI  C21521507   3.499   7.196   7.975 -0.0722 -0.9916 -0.6114
  187SAPI  H15R21508   3.445   7.183   8.070  1.5243 -2.0719  0.1846
  187SAPI  C21621509   3.572   7.331   7.979 -0.7395  0.4957 -0.3928
  187SAPI  H16R21510   3.644   7.329   7.895 -1.9173 -2.1725 -1.4458
  187SAPI  H16S21511   3.628   7.330   8.075 -0.2992  0.7651 -0.6442
  187SAPI  C21721512   3.486   7.458   7.984  0.3970  0.2574 -0.3283
  187SAPI  H17R21513   3.403   7.457   8.057  0.4232 -0.5703 -0.3052
  187SAPI  H17S21514   3.444   7.478   7.884  2.0573  1.2240 -0.8730
  187SAPI  C21821515   3.569   7.574   8.033  0.0945  0.0875  0.3108
  187SAPI  H18R21516   3.643   7.593   7.953  1.0808 -1.9841  0.6710
  187SAPI  H18S21517   3.622   7.538   8.123  1.0828 -2.5516 -1.2180
  187SAPI  C21921518   3.497   7.710   8.051  0.1806  0.6093 -0.0768
  187SAPI  H19R21519   3.446   7.696   8.149 -0.8454 -0.5461 -0.7464
  187SAPI  H19S21520   3.424   7.719   7.968  0.8357  2.6293 -0.4959
  187SAPI  C22021521   3.584   7.829   8.064  0.1806 -1.2188  0.0024
  187SAPI  H20R21522   3.640   7.829   8.160 -0.1098 -2.6360  0.1924
  187SAPI  H20S21523   3.513   7.913   8.050 -0.5578 -2.2110 -2.9590
  187SAPI  H20T21524   3.647   7.819   7.973 -0.6060 -2.0412 -0.4668
  187SAPI   C3321525   3.788   6.102   7.098  0.4539  0.0012  0.5192
  187SAPI   H3X21526   3.862   6.022   7.118 -0.5904 -1.2620 -0.4039
  187SAPI   H3Y21527   3.722   6.057   7.021  0.1010  0.2485  0.6739
  187SAPI   C3421528   3.693   6.142   7.214 -0.1900  0.7337 -0.6334
  187SAPI   H4X21529   3.615   6.209   7.171  2.5619  2.5816 -3.1039
  187SAPI   H4Y21530   3.746   6.191   7.298  0.2440  1.4814 -1.3279
  187SAPI   C3521531   3.625   6.023   7.285 -0.5208  0.0797  0.6127
  187SAPI   H5X21532   3.706   5.962   7.330  2.0500  3.3898  0.7856
  187SAPI   H5Y21533   3.585   5.961   7.202  0.1975 -0.1998  0.4696
  187SAPI   C3621534   3.527   6.050   7.391  0.1158 -0.1003 -0.1847
  187SAPI   H6X21535   3.478   5.956   7.425  0.4251  0.5169  2.0955
  187SAPI   H6Y21536   3.447   6.116   7.352 -1.3753 -1.5336  0.3603
  187SAPI   C3721537   3.574   6.132   7.514 -0.3642  0.9079  0.4816
  187SAPI   H7X21538   3.586   6.239   7.486  1.4854  0.6193 -0.0123
  187SAPI   H7Y21539   3.672   6.087   7.543 -0.4000 -1.8281 -2.9205
  187SAPI   C3821540   3.474   6.121   7.631  0.5926  0.5985  0.5889
  187SAPI   H8X21541   3.465   6.013   7.657  2.7112  0.3813  0.6500
  187SAPI   H8Y21542   3.385   6.159   7.578 -0.1995  1.2964  2.3460
  187SAPI   C3921543   3.503   6.216   7.751 -0.1441  0.2448  0.5570
  187SAPI   H9X21544   3.481   6.320   7.719 -0.7663  0.4416  1.5889
  187SAPI   H9Y21545   3.608   6.206   7.787 -0.3918 -2.1539  0.7956
  187SAPI  C31021546   3.422   6.174   7.878  0.2307 -0.1207 -1.1505
  187SAPI  H10X21547   3.314   6.159   7.858 -0.9960  0.0670  3.8791
  187SAPI  H10Y21548   3.415   6.262   7.946 -0.0224 -1.7956  1.1464
  187SAPI  C31121549   3.474   6.055   7.961  0.2265 -0.9077  0.5682
  187SAPI  H11X21550   3.562   6.085   8.022  0.3324 -1.2844  0.6029
  187SAPI  H11Y21551   3.504   5.970   7.896  1.2574  0.4233 -0.7802
  187SAPI  C31221552   3.374   6.012   8.068 -0.1324 -0.1823 -0.5151
  187SAPI  H12X21553   3.274   6.020   8.021 -1.9446  3.6038  3.3223
  187SAPI  H12Y21554   3.374   6.094   8.143 -0.3897  0.7797 -1.5439
  187SAPI  C31321555   3.396   5.871   8.134  0.1386  0.2162 -0.4292
  187SAPI  H13X21556   3.494   5.870   8.184 -0.4230 -1.5686  0.7389
  187SAPI  H13Y21557   3.412   5.802   8.048  0.7391 -2.3188  1.5881
  187SAPI  C31421558   3.280   5.823   8.227 -0.6866  0.5513  0.3001
  187SAPI  H14X21559   3.192   5.807   8.161  0.0782 -3.5125 -0.0004
  187SAPI  H14Y21560   3.265   5.903   8.302 -2.3106  0.8431 -0.2864
  187SAPI  C31521561   3.319   5.688   8.295 -0.3483  0.6338 -0.3176
  187SAPI  H15X21562   3.344   5.613   8.217 -0.3972 -0.7675  0.9718
  187SAPI  H15Y21563   3.228   5.648   8.346  0.4456 -0.1692  0.5080
  187SAPI  C31621564   3.427   5.693   8.417 -0.8412 -0.1144  0.9900
  187SAPI  H16X21565   3.519   5.712   8.359 -2.4094 -1.2589 -2.1171
  187SAPI  H16Y21566   3.435   5.591   8.461  0.2482 -0.1397  0.7458
  187SAPI  C31721567   3.390   5.791   8.522 -0.0739 -0.1962 -0.2848
  187SAPI  H17X21568   3.287   5.776   8.562 -0.5693  0.2632 -1.3675
  187SAPI  H17Y21569   3.388   5.891   8.474 -3.2439  0.4130  0.8789
  187SAPI  C31821570   3.495   5.809   8.626 -0.4515  0.1068 -0.7041
  187SAPI  H18X21571   3.597   5.828   8.588 -0.8912  2.4735 -0.8510
  187SAPI  H18Y21572   3.493   5.718   8.690  0.1951  0.9954  0.6313
  187SAPI  H18Z21573   3.477   5.902   8.684  2.4873  0.1511  0.2978
  188SAPI   C1221574   3.930   2.570   6.434  0.5115 -0.4884 -0.6675
  188SAPI    H221575   3.927   2.625   6.530 -3.2549 -0.7916 -0.4559
  188SAPI    O221576   4.066   2.536   6.397 -0.4888 -0.5281  0.0609
  188SAPI   HO221577   4.081   2.595   6.322  1.9325 -1.3390 -0.1573
  188SAPI   C1321578   3.848   2.443   6.450 -0.6715 -0.6840 -0.6782
  188SAPI    H321579   3.752   2.492   6.476  0.9601  1.5439  1.5939
  188SAPI    O321580   3.887   2.370   6.571  0.3749 -0.8174  0.2790
  188SAPI   HO321581   3.818   2.304   6.577  0.1135 -0.6865 -1.1486
  188SAPI   C1421582   3.835   2.358   6.326  0.2282 -0.2210  0.5952
  188SAPI    H421583   3.932   2.308   6.301 -1.0850 -2.0837 -1.1047
  188SAPI    O421584   3.750   2.247   6.354 -0.0972 -1.0956  0.1411
  188SAPI   HO421585   3.791   2.167   6.319  1.8547 -0.2394  0.3612
  188SAPI   C1521586   3.785   2.445   6.210  1.0430 -0.4359 -0.1439
  188SAPI    H521587   3.679   2.468   6.236  1.1200 -0.7741  0.4806
  188SAPI    O521588   3.785   2.377   6.083  0.2733  0.1986  0.1256
  188SAPI   HO521589   3.701   2.330   6.081  0.1286  0.4008  0.9034
  188SAPI   C1621590   3.855   2.574   6.198  0.0496 -0.2409 -0.4279
  188SAPI    H621591   3.962   2.551   6.179 -0.6724 -3.1199 -1.5074
  188SAPI    O621592   3.795   2.656   6.100  0.0330  0.0867 -0.2836
  188SAPI   HO621593   3.711   2.685   6.137 -2.3110 -4.7751 -0.9644
  188SAPI   C1121594   3.865   2.650   6.326 -0.6127 -0.5606 -0.4196
  188SAPI    H121595   3.760   2.677   6.351 -0.7138 -1.9324  0.7404
  188SAPI     P21596   3.904   2.909   6.380  0.1553  0.1167  0.0526
  188SAPI   O1321597   3.755   2.926   6.393 -0.5226  0.4208  0.2337
  188SAPI   O1421598   3.974   3.014   6.303 -0.3752  0.4632  0.4752
  188SAPI   O1221599   3.949   2.768   6.305  0.4851 -0.6290 -0.0684
  188SAPI   O1121600   3.963   2.901   6.529  0.5545  0.0633 -0.1573
  188SAPI    C121601   4.103   2.918   6.557 -0.1427  0.7332  0.7338
  188SAPI    HA21602   4.163   2.846   6.496 -1.7461  1.1191 -1.4484
  188SAPI    HB21603   4.137   3.019   6.525  0.0713  0.3314 -0.3768
  188SAPI    C221604   4.141   2.913   6.710  0.0702  0.2045 -0.1691
  188SAPI    HS21605   4.249   2.930   6.733  0.2502 -1.4376  0.3336
  188SAPI   O2121606   4.100   2.786   6.768 -0.0021 -0.4242 -0.4915
  188SAPI   C2121607   4.186   2.696   6.726  0.3856  0.2940 -0.9363
  188SAPI   O2221608   4.280   2.714   6.654  0.4979 -0.6251  0.0083
  188SAPI   C2221609   4.126   2.560   6.773 -0.6235 -0.2530  0.5659
  188SAPI   H2R21610   4.018   2.563   6.745 -0.5471 -1.5341  0.0561
  188SAPI   H2S21611   4.170   2.484   6.704 -0.5300  0.0491  0.2933
  188SAPI    C321612   4.070   3.026   6.799  0.2334  0.1589 -0.4455
  188SAPI    HX21613   3.964   3.030   6.765 -0.0048 -0.7921  0.1410
  188SAPI    HY21614   4.115   3.126   6.781 -0.4333  0.6756  0.6582
  188SAPI   O3121615   4.090   2.995   6.936 -0.6731 -0.2864 -0.4103
  188SAPI   C3121616   3.992   2.923   6.999  0.1675  0.2989  0.4942
  188SAPI   O3221617   3.890   2.882   6.943  0.0825  0.1927 -0.3757
  188SAPI   C3221618   4.026   2.907   7.142  0.0911 -0.1870  0.6814
  188SAPI   H2X21619   4.064   3.007   7.172 -0.5289  0.9292 -2.0083
  188SAPI   H2Y21620   4.109   2.833   7.151  0.1294 -0.4850 -1.6236
  188SAPI   C2321621   4.151   2.538   6.925  0.5851 -0.0719  0.2630
  188SAPI   H3R21622   4.105   2.442   6.957  0.4122  0.4865  1.7366
  188SAPI   H3S21623   4.094   2.612   6.985  0.6649 -1.2573  1.8705
  188SAPI   C2421624   4.298   2.546   6.971  0.1814 -0.4742  0.2220
  188SAPI   H4R21625   4.310   2.541   7.081  1.0595 -0.0195  0.1561
  188SAPI   H4S21626   4.344   2.635   6.924  1.1758 -1.4651 -0.7695
  188SAPI   C2521627   4.362   2.425   6.919  0.0679  0.3110 -0.0849
  188SAPI   H5R21628   4.380   2.426   6.810  1.4393 -1.4505  0.0756
  188SAPI   C2621629   4.396   2.310   6.983  0.7728 -0.0343 -0.6131
  188SAPI   H6R21630   4.431   2.223   6.926  0.3811 -0.2061 -0.5912
  188SAPI   C2721631   4.364   2.277   7.131  0.3511  0.2440 -0.3281
  188SAPI   H7R21632   4.329   2.172   7.143 -1.6395  0.5752 -2.6087
  188SAPI   H7S21633   4.289   2.345   7.176  1.3619  2.0331 -1.2567
  188SAPI   C2821634   4.495   2.284   7.206 -0.3718  0.1240  0.0731
  188SAPI   H8R21635   4.579   2.238   7.150 -0.1701  1.9832 -1.2301
  188SAPI   C2921636   4.518   2.347   7.324  0.0803  0.0304  0.2294
  188SAPI   H9R21637   4.621   2.352   7.362  0.1505  0.2308  0.0110
  188SAPI  C21021638   4.420   2.428   7.396  0.4482 -0.1071 -0.0649
  188SAPI  H10R21639   4.352   2.470   7.319  1.8192 -0.7718 -1.7113
  188SAPI  H10S21640   4.468   2.523   7.429  1.5773  0.1616 -2.3152
  188SAPI  C21121641   4.350   2.361   7.506 -0.1654 -0.1941  0.4941
  188SAPI  H11R21642   4.341   2.254   7.482 -1.4743  0.2840 -1.4394
  188SAPI  C21221643   4.313   2.415   7.623 -0.4387  0.6763  0.3001
  188SAPI  H12R21644   4.276   2.344   7.699  0.6029 -3.2061 -2.5033
  188SAPI  C21321645   4.320   2.558   7.662  0.1303 -0.0821 -0.7857
  188SAPI  H13R21646   4.218   2.595   7.687  0.2558 -0.6701  0.6858
  188SAPI  H13S21647   4.355   2.621   7.577  0.8882  0.1968 -0.2719
  188SAPI  C21421648   4.407   2.578   7.781 -0.0386 -0.3405 -0.8365
  188SAPI  H14R21649   4.507   2.619   7.762  0.4854 -1.1942  0.0041
  188SAPI  C21521650   4.371   2.571   7.914  0.2871 -0.2360  0.5772
  188SAPI  H15R21651   4.452   2.576   7.988  0.4687  0.4391  0.3379
  188SAPI  C21621652   4.237   2.530   7.967  0.9904  0.6908  0.7429
  188SAPI  H16R21653   4.175   2.487   7.886  1.9098  1.6755 -0.5157
  188SAPI  H16S21654   4.182   2.615   8.013  1.1099  1.4953 -0.5627
  188SAPI  C21721655   4.227   2.419   8.075 -0.3425 -0.0801 -0.2627
  188SAPI  H17R21656   4.284   2.329   8.042  3.6169  1.1347  2.4501
  188SAPI  H17S21657   4.124   2.383   8.092 -0.2606  0.1857  0.9156
  188SAPI  C21821658   4.289   2.473   8.205 -0.1083  0.3481  0.7308
  188SAPI  H18R21659   4.221   2.553   8.239  0.9508  0.9692  1.4608
  188SAPI  H18S21660   4.384   2.528   8.188 -1.7941  2.7725 -1.5058
  188SAPI  C21921661   4.317   2.360   8.310  0.3510  0.4712  0.3393
  188SAPI  H19R21662   4.230   2.290   8.307  1.6129 -1.1345 -0.0114
  188SAPI  H19S21663   4.333   2.407   8.409  1.2085 -1.8379  1.3709
  188SAPI  C22021664   4.439   2.269   8.267  0.3810  0.0953 -0.0266
  188SAPI  H20R21665   4.425   2.229   8.164  0.0966 -0.9934  0.4197
  188SAPI  H20S21666   4.462   2.188   8.339  2.6009  0.6860 -0.0183
  188SAPI  H20T21667   4.520   2.341   8.289 -0.2976  0.7935  0.2244
  188SAPI   C3321668   3.904   2.864   7.231 -0.7030 -0.7248 -0.0958
  188SAPI   H3X21669   3.845   2.781   7.185 -2.7797 -0.2017  1.4829
  188SAPI   H3Y21670   3.830   2.946   7.245 -0.7698 -0.6915 -0.6092
  188SAPI   C3421671   3.951   2.812   7.366  0.3389 -0.2191  0.4235
  188SAPI   H4X21672   4.036   2.747   7.337  0.7589  1.2854 -1.9349
  188SAPI   H4Y21673   3.866   2.760   7.415  1.2342 -1.9723  0.1870
  188SAPI   C3521674   4.010   2.926   7.450  0.0459  1.1625  0.5349
  188SAPI   H5X21675   3.925   2.997   7.466 -1.2741 -0.5157  1.2791
  188SAPI   H5Y21676   4.089   2.986   7.400  1.8674 -1.5444  0.0185
  188SAPI   C3621677   4.054   2.874   7.586 -0.0930  0.3532  0.7915
  188SAPI   H6X21678   4.123   2.788   7.568 -3.1382 -1.6540 -2.6870
  188SAPI   H6Y21679   3.969   2.818   7.629  1.5006 -3.8601 -0.9877
  188SAPI   C3721680   4.085   2.982   7.688 -0.2595  0.6434  0.7279
  188SAPI   H7X21681   4.002   3.054   7.701  0.1535  1.0473  1.1664
  188SAPI   H7Y21682   4.169   3.040   7.643  0.0892  0.8785  1.6558
  188SAPI   C3821683   4.122   2.909   7.819 -0.4991 -0.5363  0.3501
  188SAPI   H8X21684   4.230   2.885   7.828 -0.7765 -2.8296 -1.3888
  188SAPI   H8Y21685   4.061   2.817   7.835 -1.8656  0.3048  0.1517
  188SAPI   C3921686   4.094   2.999   7.939 -0.3053 -0.0764  0.3398
  188SAPI   H9X21687   3.983   3.009   7.937 -0.3238 -0.1603  0.7618
  188SAPI   H9Y21688   4.107   3.108   7.922 -0.6879  0.0738  0.9592
  188SAPI  C31021689   4.140   2.955   8.078  0.7002  0.3578  0.2249
  188SAPI  H10X21690   4.127   2.844   8.081  1.4494  0.2682  0.2870
  188SAPI  H10Y21691   4.063   2.994   8.149 -1.9740 -2.6774 -0.7260
  188SAPI  C31121692   4.273   3.024   8.109 -0.5691  0.1488 -0.4051
  188SAPI  H11X21693   4.276   3.134   8.095 -0.4620  0.2867  0.5963
  188SAPI  H11Y21694   4.355   2.970   8.057 -1.3913 -0.5183 -1.0354
  188SAPI  C31221695   4.317   2.997   8.254  0.6033  0.3677 -0.4902
  188SAPI  H12X21696   4.258   3.055   8.329  2.1499  0.4828  0.6974
  188SAPI  H12Y21697   4.421   3.033   8.266  0.5783  0.6911 -1.2452
  188SAPI  C31321698   4.309   2.849   8.309 -0.1038 -0.5173  0.0970
  188SAPI  H13X21699   4.348   2.798   8.218  1.2893  1.8472 -0.7279
  188SAPI  H13Y21700   4.204   2.824   8.335  0.5822 -3.0677  0.6726
  188SAPI  C31421701   4.398   2.826   8.434  0.2274  0.0893  0.5868
  188SAPI  H14X21702   4.501   2.845   8.398  0.5356 -0.4293  1.1762
  188SAPI  H14Y21703   4.385   2.719   8.459 -0.0741  0.6169  2.8805
  188SAPI  C31521704   4.386   2.931   8.552  0.1128 -0.4048 -0.5011
  188SAPI  H15X21705   4.282   2.916   8.590  0.9606 -1.8206  1.4113
  188SAPI  H15Y21706   4.382   3.031   8.504 -0.2225 -0.8778 -1.4930
  188SAPI  C31621707   4.474   2.912   8.676 -0.5197 -0.2177  0.4073
  188SAPI  H16X21708   4.578   2.938   8.647 -0.1328 -1.1559  0.9067
  188SAPI  H16Y21709   4.479   2.803   8.697  2.2295 -0.1038  0.7495
  188SAPI  C31721710   4.426   2.988   8.796  0.9960  0.5204 -0.2588
  188SAPI  H17X21711   4.324   2.950   8.820  0.8566 -0.7679 -2.6314
  188SAPI  H17Y21712   4.423   3.096   8.773  2.8219  0.4347 -0.9915
  188SAPI  C31821713   4.516   2.963   8.923  0.1700  0.5693 -0.3814
  188SAPI  H18X21714   4.622   2.985   8.902  0.5519 -0.8676 -0.0849
  188SAPI  H18Y21715   4.517   2.856   8.954 -3.2820  0.1639 -1.1884
  188SAPI  H18Z21716   4.492   3.021   9.015  0.2080 -0.0038 -0.0015
  189POPC     N21717   3.791   5.037  10.683  0.5025  0.1495  0.6910
  189POPC   C1221718   3.756   4.942  10.563  0.1762  0.5705 -0.6402
  189POPC  H12A21719   3.846   4.884  10.549  0.6595  1.0963  0.1653
  189POPC  H12B21720   3.752   4.998  10.471 -2.3725  0.1811 -0.8249
  189POPC   C1321721   3.678   5.121  10.722 -0.3516  0.1443 -0.0233
  189POPC  H13A21722   3.684   5.179  10.813  0.0828 -0.3466  0.2723
  189POPC  H13B21723   3.643   5.193  10.650  0.0581  1.3110  0.9155
  189POPC  H13C21724   3.596   5.053  10.739 -0.1811  0.3835  2.0400
  189POPC   C1421725   3.809   4.954  10.803 -0.4297 -0.2166  1.0528
  189POPC  H14A21726   3.906   4.907  10.810 -0.9794 -1.7652 -0.9285
  189POPC  H14B21727   3.791   5.008  10.895  1.7790  3.3676 -0.3930
  189POPC  H14C21728   3.735   4.875  10.798  0.8586 -1.6087  2.9440
  189POPC   C1521729   3.919   5.116  10.648  0.1445  0.0993 -0.6537
  189POPC  H15A21730   3.904   5.180  10.563 -1.9969 -2.3984 -2.3288
  189POPC  H15B21731   4.004   5.049  10.642  0.6533  0.8000 -1.6163
  189POPC  H15C21732   3.940   5.187  10.727  0.7869 -0.4048 -0.3554
  189POPC   C1121733   3.622   4.859  10.552 -0.0106 -0.4643 -0.7749
  189POPC  H11A21734   3.637   4.793  10.464  0.8371  1.4194 -2.1216
  189POPC  H11B21735   3.529   4.916  10.534 -0.7240 -0.7390  1.6422
  189POPC     P21736   3.487   4.771  10.772 -0.5716  0.2280 -0.0339
  189POPC   O1321737   3.453   4.917  10.813 -0.1602 -0.0203  0.0915
  189POPC   O1421738   3.501   4.664  10.879 -0.1325  0.3292  0.0126
  189POPC   O1221739   3.613   4.773  10.670  0.1129  0.5702 -0.0026
  189POPC   O1121740   3.377   4.726  10.672  0.7673  0.4909  0.5166
  189POPC    C121741   3.349   4.586  10.638  0.4604  0.2008 -0.5081
  189POPC    HA21742   3.239   4.568  10.636  0.2490  1.1381 -4.2180
  189POPC    HB21743   3.395   4.508  10.702  0.6208  0.8635  0.1962
  189POPC    C221744   3.381   4.549  10.494 -0.3763  0.3722  0.6760
  189POPC    HS21745   3.492   4.540  10.501 -0.3900 -0.4531  0.0230
  189POPC   O2121746   3.336   4.649  10.403  0.2623  0.5073  0.4481
  189POPC   C2121747   3.416   4.670  10.304  0.0478  0.3034  0.4494
  189POPC   O2221748   3.525   4.624  10.287 -0.4962  0.4577 -0.8457
  189POPC   C2221749   3.338   4.771  10.212 -0.5831 -0.3040  0.1944
  189POPC   H2R21750   3.305   4.858  10.273 -0.8689 -1.2313  1.3918
  189POPC   H2S21751   3.254   4.711  10.170 -1.3427  0.0401  1.1964
  189POPC    C321752   3.326   4.414  10.460  0.8943  0.0701  0.2922
  189POPC    HX21753   3.227   4.409  10.410  1.1869  1.8069 -0.5303
  189POPC    HY21754   3.323   4.353  10.553  2.7298 -1.4470 -0.5634
  189POPC   O3121755   3.412   4.346  10.374  0.4316  0.8346  0.5283
  189POPC   C3121756   3.395   4.360  10.239  0.4713  0.1811  0.5526
  189POPC   O3221757   3.290   4.405  10.191  0.1393  0.5485 -0.0773
  189POPC   C3221758   3.519   4.309  10.169 -0.0606  0.0667  0.5330
  189POPC   H2X21759   3.539   4.203  10.195 -0.7853  0.1196  1.3285
  189POPC   H2Y21760   3.613   4.345  10.216 -0.6673  0.3234  1.5911
  189POPC   C2321761   3.434   4.831  10.112 -0.2785  0.6552  0.0809
  189POPC   H3R21762   3.531   4.842  10.164  1.0635 -0.4197 -2.0391
  189POPC   H3S21763   3.403   4.930  10.074  0.9212  1.8421  2.0295
  189POPC   C2421764   3.469   4.743   9.993  0.5556 -0.0723 -0.2120
  189POPC   H4R21765   3.373   4.728   9.939 -1.2142  0.9000  2.4333
  189POPC   H4S21766   3.505   4.643  10.025 -1.1065 -1.0459 -1.2426
  189POPC   C2521767   3.567   4.817   9.899  0.5049 -0.0459 -0.1970
  189POPC   H5R21768   3.667   4.849   9.936  1.3714 -3.5523  0.8713
  189POPC   H5S21769   3.512   4.904   9.856  1.3505 -0.2662 -1.8143
  189POPC   C2621770   3.589   4.725   9.781  0.6252 -0.3620 -0.5245
  189POPC   H6R21771   3.487   4.715   9.739  0.4895  0.3909 -0.3902
  189POPC   H6S21772   3.640   4.635   9.823  2.6719  2.0433  2.6267
  189POPC   C2721773   3.675   4.803   9.681 -0.1676 -0.4174  0.1943
  189POPC   H7R21774   3.645   4.910   9.688 -1.0386 -0.5461 -1.0628
  189POPC   H7S21775   3.648   4.766   9.580  0.7045 -1.7636  0.4400
  189POPC   C2821776   3.821   4.783   9.692 -0.1902 -0.3580 -0.8692
  189POPC   H8R21777   3.861   4.680   9.696  2.9723  0.6573 -2.7676
  189POPC   H8S21778   3.840   4.839   9.786  0.8002 -2.4695  0.2554
  189POPC   C2921779   3.894   4.853   9.580  0.0892 -0.4251  0.3138
  189POPC   H9121780   3.869   4.960   9.569  1.7029 -0.0537 -0.0434
  189POPC  C21021781   3.965   4.804   9.481 -0.5228 -0.0119 -0.3509
  189POPC  H10121782   4.023   4.866   9.412 -1.8837  1.2792 -0.3935
  189POPC  C21121783   3.985   4.657   9.464 -0.3342  0.4713  1.0736
  189POPC  H11R21784   3.906   4.595   9.510  0.8326 -0.0013  2.5225
  189POPC  H11S21785   4.073   4.619   9.521 -1.4053 -0.6431  2.0225
  189POPC  C21221786   3.981   4.612   9.313 -0.4269 -0.0775 -0.2496
  189POPC  H12R21787   4.044   4.683   9.256  1.0860 -1.0537  0.1464
  189POPC  H12S21788   3.881   4.609   9.266 -1.6764 -1.1985  2.2936
  189POPC  C21321789   4.053   4.479   9.292 -0.1101  0.3771 -0.0755
  189POPC  H13R21790   4.008   4.402   9.358 -1.3778  0.5268 -0.7486
  189POPC  H13S21791   4.159   4.497   9.321 -0.0482 -0.9461  0.5744
  189POPC  C21421792   4.057   4.431   9.142 -0.4105 -0.1827  0.4716
  189POPC  H14R21793   4.149   4.379   9.109 -1.2818 -1.2860 -0.3122
  189POPC  H14S21794   4.044   4.517   9.073 -0.2002  0.9629  1.7921
  189POPC  C21521795   3.949   4.323   9.127  0.0217 -0.2966 -0.9368
  189POPC  H15R21796   3.856   4.380   9.144 -0.3600 -1.5318  1.5345
  189POPC  H15S21797   3.963   4.233   9.191  1.4216 -0.8255 -1.9287
  189POPC  C21621798   3.952   4.258   8.983  0.1593  0.3832 -0.1632
  189POPC  H16R21799   3.869   4.184   8.982 -0.5135  1.1349 -0.8182
  189POPC  H16S21800   4.043   4.194   8.975 -1.4977 -1.8797 -2.6249
  189POPC  C21721801   3.928   4.347   8.863  0.4752  0.2883  0.8619
  189POPC  H17R21802   4.008   4.423   8.851 -0.0412  0.7521  0.3003
  189POPC  H17S21803   3.833   4.401   8.882 -0.2329 -0.8504  0.6850
  189POPC  C21821804   3.907   4.264   8.740 -0.3922  0.1262  0.4361
  189POPC  H18R21805   3.991   4.193   8.720 -0.0608  0.4036  0.8333
  189POPC  H18S21806   3.898   4.332   8.652 -1.3813 -2.3893 -1.5409
  189POPC  H18T21807   3.819   4.197   8.751  0.5242 -0.8650  2.2213
  189POPC   C3321808   3.505   4.335  10.019  0.3796 -0.3524  1.3504
  189POPC   H3X21809   3.491   4.441   9.988  0.7289 -0.9508 -1.0232
  189POPC   H3Y21810   3.421   4.271   9.985  2.0546 -2.1910  0.4463
  189POPC   C3421811   3.629   4.285   9.935  0.1813 -0.3837  0.3698
  189POPC   H4X21812   3.639   4.174   9.937  1.1241 -0.3086  0.4602
  189POPC   H4Y21813   3.720   4.340   9.966 -0.5970  0.1288  1.8038
  189POPC   C3521814   3.603   4.324   9.790 -0.8222  0.1975  0.8357
  189POPC   H5X21815   3.591   4.433   9.773 -0.1969  0.0651 -0.5817
  189POPC   H5Y21816   3.512   4.268   9.759 -0.2448 -1.4445  1.9955
  189POPC   C3621817   3.720   4.280   9.694 -0.1755 -0.4098  0.8038
  189POPC   H6X21818   3.747   4.174   9.715 -0.1463 -0.1861  1.9053
  189POPC   H6Y21819   3.799   4.354   9.719 -0.7489  1.2430 -1.8552
  189POPC   C3721820   3.685   4.294   9.547  0.0016 -0.4428  0.2585
  189POPC   H7X21821   3.605   4.221   9.521 -0.7416  1.0472 -1.9925
  189POPC   H7Y21822   3.778   4.254   9.500  0.6927  0.7054  0.5984
  189POPC   C3821823   3.628   4.429   9.497 -0.1964 -0.2970  0.0360
  189POPC   H8X21824   3.700   4.512   9.515  0.2323 -0.2630 -1.6772
  189POPC   H8Y21825   3.533   4.436   9.554 -0.4194 -0.2820 -0.3349
  189POPC   C3921826   3.614   4.442   9.338  0.1212 -0.0303  0.2791
  189POPC   H9X21827   3.552   4.362   9.294  1.8560  0.2526 -3.0608
  189POPC   H9Y21828   3.716   4.428   9.296  0.1241  1.2396 -0.2026
  189POPC  C31021829   3.557   4.578   9.312  0.4359  0.3218 -0.5578
  189POPC  H10X21830   3.638   4.653   9.325 -0.1397  0.9133 -0.3379
  189POPC  H10Y21831   3.477   4.591   9.388  1.7783  3.3323  0.4765
  189POPC  C31121832   3.505   4.588   9.164 -0.2171 -0.7990 -0.0002
  189POPC  H11X21833   3.442   4.678   9.146  1.4414 -0.1158 -3.2816
  189POPC  H11Y21834   3.449   4.495   9.140  2.8260 -2.5931 -0.5707
  189POPC  C31221835   3.615   4.584   9.066 -0.4545  0.3968 -0.4335
  189POPC  H12X21836   3.669   4.487   9.066 -2.1316 -0.5636  0.1142
  189POPC  H12Y21837   3.679   4.671   9.093  0.9532  0.1763 -2.7491
  189POPC  C31321838   3.573   4.620   8.920 -0.5324  0.1556 -0.4182
  189POPC  H13X21839   3.671   4.637   8.869 -1.9671 -0.9575 -3.9160
  189POPC  H13Y21840   3.513   4.713   8.927 -0.8216 -0.1316  1.0208
  189POPC  C31421841   3.516   4.503   8.844  0.4473  0.1984  0.6259
  189POPC  H14X21842   3.416   4.474   8.883 -0.8657 -0.0020 -2.5954
  189POPC  H14Y21843   3.576   4.411   8.858 -0.4880 -0.5310 -0.0863
  189POPC  C31521844   3.480   4.519   8.696 -0.2552  0.3992  0.1699
  189POPC  H15X21845   3.434   4.422   8.666 -1.0291  0.4811  1.0440
  189POPC  H15Y21846   3.573   4.518   8.634  0.5651  1.8956  1.3123
  189POPC  C31621847   3.385   4.631   8.644 -0.4745  0.0464  0.3929
  189POPC  H16X21848   3.432   4.731   8.650 -0.2742 -0.0601  0.6172
  189POPC  H16Y21849   3.281   4.621   8.684 -0.4279  0.7647  0.7002
  189POPC  H16Z21850   3.371   4.633   8.534 -0.4118  0.6392  0.3936
  190POPC     N21851   5.736   0.092  11.136 -0.5052  0.7465 -1.1403
  190POPC   C1221852   5.866   0.018  11.178  0.2413 -0.1250  0.0478
  190POPC  H12A21853   5.875  -0.018  11.280  0.6344 -1.0074 -0.2835
  190POPC  H12B21854   5.939   0.097  11.181  0.0881 -0.0059  1.0859
  190POPC   C1321855   5.694   0.172  11.263  0.7941 -0.2479 -0.1057
  190POPC  H13A21856   5.742   0.269  11.261  1.1124 -0.4107 -0.6830
  190POPC  H13B21857   5.590   0.193  11.244  0.2832 -4.0291 -2.7033
  190POPC  H13C21858   5.709   0.120  11.356  0.8320  0.1457  0.1086
  190POPC   C1421859   5.759   0.186  11.031 -1.0878 -0.3811 -0.6690
  190POPC  H14A21860   5.666   0.229  10.995 -1.3352 -0.3939 -0.0558
  190POPC  H14B21861   5.811   0.268  11.077  0.3098  1.0240 -4.3643
  190POPC  H14C21862   5.839   0.167  10.960 -0.1311  0.3394  0.1987
  190POPC   C1521863   5.632  -0.003  11.099 -0.1370 -0.1188  0.4008
  190POPC  H15A21864   5.542   0.038  11.058 -1.9766 -2.2694  2.0239
  190POPC  H15B21865   5.602  -0.065  11.183 -1.0153 -2.8740 -1.7830
  190POPC  H15C21866   5.675  -0.067  11.023 -0.3204 -0.9727  1.0022
  190POPC   C1121867   5.908  -0.094  11.082 -0.2196  0.6682 -0.1767
  190POPC  H11A21868   5.832  -0.175  11.091  1.4216 -0.7982  1.4366
  190POPC  H11B21869   6.002  -0.133  11.128  0.3248  0.3638 -1.5147
  190POPC     P21870   6.060   0.030  10.915 -0.0536 -0.3544 -0.1258
  190POPC   O1321871   6.175  -0.062  10.934  0.0176  0.1026 -0.2285
  190POPC   O1421872   6.051   0.158  10.985  0.1373  0.2583  0.6906
  190POPC   O1221873   5.925  -0.051  10.946  0.0015 -0.5119 -0.0841
  190POPC   O1121874   6.040   0.054  10.765 -0.4945 -0.1206  0.1159
  190POPC    C121875   6.092  -0.034  10.664 -0.5232  0.4690  0.0694
  190POPC    HA21876   6.097  -0.137  10.705  0.0903  0.9067  1.1194
  190POPC    HB21877   6.195  -0.002  10.636 -0.9568  1.2330 -0.6907
  190POPC    C221878   6.004  -0.029  10.539 -0.4971  0.4013  0.8526
  190POPC    HS21879   6.040  -0.115  10.478  1.7630  1.2669  0.9009
  190POPC   O2121880   6.012   0.095  10.481  0.2890 -1.1518 -0.0477
  190POPC   C2121881   6.108   0.118  10.389 -0.8856  0.2132  0.0213
  190POPC   O2221882   6.176   0.034  10.336  0.2338  0.5833  0.6617
  190POPC   C2221883   6.122   0.269  10.353  0.2137 -0.2798  0.1179
  190POPC   H2R21884   6.220   0.296  10.398  0.5974 -0.2830 -0.6945
  190POPC   H2S21885   6.043   0.322  10.409 -0.2719  1.1300 -1.7873
  190POPC    C321886   5.857  -0.067  10.559  0.2960  0.5363  0.1435
  190POPC    HX21887   5.817   0.023  10.610 -0.1568  1.0247 -1.0330
  190POPC    HY21888   5.860  -0.156  10.625  0.5013 -0.4864 -1.2043
  190POPC   O3121889   5.775  -0.093  10.443  0.0369 -0.7050  0.3903
  190POPC   C3121890   5.769  -0.218  10.401 -0.3799 -0.8085 -0.8972
  190POPC   O3221891   5.814  -0.315  10.458  0.0219 -0.5112  0.1983
  190POPC   C3221892   5.715  -0.229  10.254 -0.2034  0.0937 -0.5501
  190POPC   H2X21893   5.618  -0.284  10.246  0.4058 -0.7029 -3.3897
  190POPC   H2Y21894   5.795  -0.292  10.210 -0.1726 -0.4921  0.3167
  190POPC   C2321895   6.133   0.295  10.201 -0.5568 -0.1285 -0.4322
  190POPC   H3R21896   6.213   0.233  10.155 -1.1876  0.2352 -2.0662
  190POPC   H3S21897   6.179   0.395  10.184 -0.7043 -0.1164 -0.7536
  190POPC   C2421898   5.990   0.291  10.136 -0.3032 -0.4243  0.8964
  190POPC   H4R21899   5.927   0.364  10.193 -0.2956  1.7482 -1.6953
  190POPC   H4S21900   5.945   0.189  10.140  0.0652 -0.6508 -0.3720
  190POPC   C2521901   6.003   0.323   9.987 -0.6846  0.3490  0.3137
  190POPC   H5R21902   6.073   0.252   9.937  1.8378  1.0744  2.5535
  190POPC   H5S21903   6.056   0.420   9.991 -0.5861  0.3739 -1.0786
  190POPC   C2621904   5.872   0.333   9.909 -0.3374  0.3188  0.8758
  190POPC   H6R21905   5.800   0.397   9.965  0.7722  1.2642  1.2499
  190POPC   H6S21906   5.826   0.232   9.909 -1.4189  0.7979  1.1335
  190POPC   C2721907   5.892   0.365   9.759  1.2832  0.3184 -0.4570
  190POPC   H7R21908   5.972   0.441   9.742  0.0122  1.8492  0.0873
  190POPC   H7S21909   5.795   0.407   9.723  0.8739  0.4332  0.7288
  190POPC   C2821910   5.920   0.235   9.678 -0.0312 -0.1085  0.7939
  190POPC   H8R21911   5.838   0.161   9.693  0.8538 -2.3709 -3.7072
  190POPC   H8S21912   6.009   0.191   9.728 -1.3972 -1.6312  1.9953
  190POPC   C2921913   5.947   0.264   9.524  0.3603 -0.4611 -0.4356
  190POPC   H9121914   6.028   0.338   9.518  0.7359 -0.9504 -1.5830
  190POPC  C21021915   5.884   0.222   9.415 -0.0798 -0.3494  0.3117
  190POPC  H10121916   5.914   0.256   9.315 -0.7157 -0.7852 -0.0391
  190POPC  C21121917   5.770   0.122   9.422 -0.3074  1.1237  0.0280
  190POPC  H11R21918   5.683   0.166   9.370 -0.3626  1.9919  0.8142
  190POPC  H11S21919   5.735   0.114   9.527  2.2247  1.5771  0.9868
  190POPC  C21221920   5.800  -0.021   9.357  0.2331  0.4588 -0.5461
  190POPC  H12R21921   5.717  -0.096   9.365 -0.8100  1.7015  1.0023
  190POPC  H12S21922   5.886  -0.061   9.415  0.2521  0.3914 -0.6203
  190POPC  C21321923   5.831  -0.019   9.211 -1.2368  0.5913  0.4684
  190POPC  H13R21924   5.911   0.057   9.199 -0.4127 -0.2496  0.5119
  190POPC  H13S21925   5.746   0.023   9.152 -0.3437  1.0359 -0.5350
  190POPC  C21421926   5.877  -0.154   9.142  1.0746 -1.0889 -0.4668
  190POPC  H14R21927   5.807  -0.238   9.162  0.2834 -0.2858  0.2213
  190POPC  H14S21928   5.968  -0.175   9.201  1.3223  2.0420  0.4567
  190POPC  C21521929   5.909  -0.154   8.999  0.1208  0.6506 -0.5814
  190POPC  H15R21930   5.972  -0.063   8.983 -0.3146  1.2011  0.7299
  190POPC  H15S21931   5.817  -0.139   8.938 -0.0618 -1.8045 -1.0108
  190POPC  C21621932   5.978  -0.283   8.956 -0.0380 -0.1594 -0.3121
  190POPC  H16R21933   5.907  -0.368   8.959  1.3994 -1.5075 -1.9839
  190POPC  H16S21934   6.070  -0.310   9.012  0.3525  3.6049  1.1230
  190POPC  C21721935   6.020  -0.257   8.816 -0.3397  0.0449  0.1541
  190POPC  H17R21936   6.084  -0.166   8.823  1.3325 -0.9404 -1.4415
  190POPC  H17S21937   5.939  -0.243   8.741  0.5134  2.2057 -0.4378
  190POPC  C21821938   6.109  -0.364   8.766  1.0989 -0.5857  0.1993
  190POPC  H18R21939   6.052  -0.457   8.746 -0.0013  0.0394  0.3481
  190POPC  H18S21940   6.190  -0.387   8.839  0.8045  1.8485  1.4077
  190POPC  H18T21941   6.154  -0.324   8.673  0.2542  0.5263  0.2450
  190POPC   C3321942   5.694  -0.095  10.181 -0.4191  0.0419 -0.1574
  190POPC   H3X21943   5.791  -0.046  10.158  0.0218 -0.8298 -0.2249
  190POPC   H3Y21944   5.625  -0.029  10.237  0.4694  0.3560  0.5940
  190POPC   C3421945   5.624  -0.117  10.043  0.1507  0.0033 -0.2606
  190POPC   H4X21946   5.527  -0.169  10.054  0.1605  0.2715  1.2173
  190POPC   H4Y21947   5.689  -0.176   9.974 -1.1308  0.0124 -1.5342
  190POPC   C3521948   5.608   0.014   9.962  0.4436 -0.4155  0.2440
  190POPC   H5X21949   5.708   0.063   9.953  0.1785  0.2391  0.7798
  190POPC   H5Y21950   5.546   0.091  10.012  1.1242 -0.1841  0.7614
  190POPC   C3621951   5.543  -0.005   9.827  0.5354 -0.2721  0.4652
  190POPC   H6X21952   5.571   0.082   9.763  0.1986  0.2328  0.9900
  190POPC   H6Y21953   5.434  -0.003   9.849 -0.5072 -0.6432 -3.7395
  190POPC   C3721954   5.570  -0.135   9.749 -0.0847  0.0201 -0.2508
  190POPC   H7X21955   5.525  -0.223   9.799 -2.1538  0.7710 -0.6914
  190POPC   H7Y21956   5.680  -0.150   9.756 -0.2690 -0.8005  1.0823
  190POPC   C3821957   5.531  -0.112   9.604  1.0085 -0.4309  0.9840
  190POPC   H8X21958   5.598  -0.183   9.552 -0.2919 -0.4899 -0.7139
  190POPC   H8Y21959   5.544  -0.010   9.561  1.6180 -1.0014 -0.2315
  190POPC   C3921960   5.381  -0.159   9.567  0.5401  0.1049 -0.7827
  190POPC   H9X21961   5.373  -0.168   9.457  1.6723  0.6003 -0.9185
  190POPC   H9Y21962   5.308  -0.084   9.603 -1.0820 -2.1466  0.9726
  190POPC  C31021963   5.342  -0.296   9.626 -0.4150  0.1372 -0.3123
  190POPC  H10X21964   5.356  -0.302   9.736 -0.5328 -0.7946 -0.3391
  190POPC  H10Y21965   5.427  -0.362   9.599  1.2030  2.4311 -1.1793
  190POPC  C31121966   5.208  -0.366   9.588 -0.0019 -0.0904 -0.3634
  190POPC  H11X21967   5.203  -0.361   9.477 -1.5347  0.4494 -0.2991
  190POPC  H11Y21968   5.127  -0.310   9.638  1.3734  0.7603  0.9807
  190POPC  C31221969   5.194  -0.517   9.623  0.3562 -0.0218 -0.1052
  190POPC  H12X21970   5.267  -0.582   9.569  0.5481 -0.4032  0.6036
  190POPC  H12Y21971   5.089  -0.535   9.591  1.0118 -1.1349 -1.7901
  190POPC  C31321972   5.181  -0.557   9.771  0.1978  0.1342 -0.4579
  190POPC  H13X21973   5.098  -0.492   9.805 -0.2099 -0.6171  0.0254
  190POPC  H13Y21974   5.272  -0.521   9.825  0.9075 -0.0190 -1.5248
  190POPC  C31421975   5.172  -0.710   9.796 -0.0155 -0.0065 -0.1119
  190POPC  H14X21976   5.267  -0.758   9.765 -0.1816  0.0525 -0.7260
  190POPC  H14Y21977   5.094  -0.749   9.728 -1.1363  1.5515  0.2202
  190POPC  C31521978   5.136  -0.739   9.945 -0.4900  0.2201 -0.6167
  190POPC  H15X21979   5.046  -0.686   9.982 -0.3093 -0.9088  1.6332
  190POPC  H15Y21980   5.223  -0.693   9.997  0.8664 -0.3088 -2.3429
  190POPC  C31621981   5.114  -0.886   9.978 -0.2927 -0.0792  0.2592
  190POPC  H16X21982   5.140  -0.908  10.084  1.0983  0.5642  0.0813
  190POPC  H16Y21983   5.175  -0.950   9.910 -2.4613 -0.8146 -1.0712
  190POPC  H16Z21984   5.008  -0.911   9.961  0.2193 -3.2833  1.1813
  191POPC     N21985   0.303   1.191   6.110  0.4188 -0.6704 -0.3433
  191POPC   C1221986   0.160   1.176   6.146 -0.6824  0.1897  0.3546
  191POPC  H12A21987   0.098   1.226   6.073 -0.4867  0.0466  0.0912
  191POPC  H12B21988   0.147   1.227   6.240 -2.8442  3.0431 -1.3299
  191POPC   C1321989   0.398   1.133   6.212 -0.0679  0.0356  0.3892
  191POPC  H13A21990   0.381   1.178   6.309 -0.0244 -0.8834  0.8317
  191POPC  H13B21991   0.388   1.027   6.229 -2.4216 -0.3105 -2.4116
  191POPC  H13C21992   0.504   1.149   6.193 -0.4920  0.5990 -1.8042
  191POPC   C1421993   0.331   1.146   5.969  0.1146  0.1291  0.1349
  191POPC  H14A21994   0.430   1.178   5.942  0.7379 -1.2035  0.7478
  191POPC  H14B21995   0.318   1.039   5.964  1.0837  0.0508 -1.7510
  191POPC  H14C21996   0.272   1.196   5.893  0.1383  3.1794  1.9642
  191POPC   C1521997   0.332   1.341   6.105 -0.0094 -0.4277  0.9319
  191POPC  H15A21998   0.278   1.391   6.025 -0.1615 -2.5090 -0.3349
  191POPC  H15B21999   0.437   1.349   6.082  0.5434 -1.0225  3.0357
  191POPC  H15C22000   0.329   1.403   6.193  0.2617 -0.2161  0.7945
  191POPC   C1122001   0.111   1.030   6.141  0.2806 -0.0798 -0.8493
  191POPC  H11A22002   0.163   0.956   6.206  2.9882  1.7794 -0.6957
  191POPC  H11B22003   0.123   0.992   6.037 -0.6400 -0.8680 -0.6825
  191POPC     P22004  -0.063   1.028   6.336  0.0133  0.3998 -0.2305
  191POPC   O1322005  -0.054   0.890   6.390  0.1156 -0.0753 -0.4379
  191POPC   O1422006  -0.195   1.089   6.355 -0.3281  0.4740 -0.2765
  191POPC   O1222007  -0.022   1.037   6.182  0.1283  0.0236  0.0548
  191POPC   O1122008   0.039   1.131   6.397 -0.5176 -0.2916 -0.2184
  191POPC    C122009   0.151   1.085   6.469 -0.4373  0.0646  0.2530
  191POPC    HA22010   0.228   1.158   6.437  0.2170 -0.5801  0.3302
  191POPC    HB22011   0.188   0.987   6.432 -1.0950  0.3319 -1.1564
  191POPC    C222012   0.133   1.077   6.624  0.0706  0.7437  0.9504
  191POPC    HS22013   0.053   1.000   6.633  0.1341  0.6222  0.5195
  191POPC   O2122014   0.090   1.205   6.676 -0.0028 -0.0987  0.3411
  191POPC   C2122015  -0.037   1.219   6.690 -0.5479  0.0805  0.1017
  191POPC   O2222016  -0.122   1.135   6.667  0.6999  0.2428  0.3310
  191POPC   C2222017  -0.065   1.355   6.758  0.0751  0.5782  0.3196
  191POPC   H2R22018  -0.119   1.418   6.683 -0.9508  0.8403  1.2624
  191POPC   H2S22019   0.031   1.404   6.785 -0.6165  3.0382 -1.2322
  191POPC    C322020   0.261   1.026   6.690 -0.4557 -0.6792 -0.2873
  191POPC    HX22021   0.348   1.081   6.650 -0.2501 -0.9686 -0.2437
  191POPC    HY22022   0.274   0.924   6.648 -2.3242 -0.2410 -2.1178
  191POPC   O3122023   0.267   1.027   6.838 -0.1454  0.6581 -0.1262
  191POPC   C3122024   0.174   0.961   6.905 -0.3750 -0.0039 -0.6312
  191POPC   O3222025   0.078   0.903   6.858 -0.4646  0.5002 -0.1687
  191POPC   C3222026   0.218   0.971   7.058 -0.6638 -0.5685 -0.2482
  191POPC   H2X22027   0.322   0.932   7.056 -0.7716 -0.9637  1.0498
  191POPC   H2Y22028   0.156   0.900   7.117 -1.3705 -0.0844 -0.3937
  191POPC   C2322029  -0.169   1.347   6.867  0.7225  1.0126  0.2143
  191POPC   H3R22030  -0.144   1.291   6.959 -2.8033 -1.9140 -0.3590
  191POPC   H3S22031  -0.256   1.292   6.825  1.6052 -0.3450  0.1352
  191POPC   C2422032  -0.219   1.486   6.904 -0.7679  0.2572  0.0079
  191POPC   H4R22033  -0.300   1.473   6.979 -1.4006 -2.4084 -1.0064
  191POPC   H4S22034  -0.255   1.541   6.815  1.8386  3.6011  0.8055
  191POPC   C2522035  -0.109   1.572   6.964  0.6512 -0.1091 -0.6845
  191POPC   H5R22036  -0.040   1.610   6.885  0.3065 -0.8458 -1.3493
  191POPC   H5S22037  -0.048   1.512   7.035  0.0548  0.2923  0.1949
  191POPC   C2622038  -0.172   1.679   7.050 -0.1479 -0.6225 -0.5892
  191POPC   H6R22039  -0.233   1.642   7.135 -1.0737  3.4172  0.7387
  191POPC   H6S22040  -0.216   1.764   6.992  3.0908  1.0343 -0.8728
  191POPC   C2722041  -0.065   1.753   7.133 -0.3622 -0.2994  0.3502
  191POPC   H7R22042   0.006   1.810   7.069 -2.5102  2.5788  0.3744
  191POPC   H7S22043  -0.014   1.670   7.187 -1.8167 -1.3283  0.2102
  191POPC   C2822044  -0.128   1.864   7.223  0.6071 -0.6545 -0.1075
  191POPC   H8R22045  -0.178   1.818   7.311 -1.4192 -0.5212 -1.1379
  191POPC   H8S22046  -0.211   1.913   7.169 -0.2462 -0.9461  0.9207
  191POPC   C2922047  -0.046   1.980   7.266 -0.0413  0.0568 -0.5977
  191POPC   H9122048  -0.010   2.042   7.182 -0.1089 -0.2107 -0.8249
  191POPC  C21022049  -0.020   2.027   7.394 -0.0673 -0.1637  0.0868
  191POPC  H10122050   0.046   2.114   7.388 -0.1940 -0.0516  0.3176
  191POPC  C21122051  -0.066   1.988   7.539 -0.8316  0.3362 -0.6934
  191POPC  H11R22052  -0.141   1.906   7.535 -1.5808  0.8692  1.2161
  191POPC  H11S22053  -0.117   2.076   7.585 -1.2053 -1.3279  2.3077
  191POPC  C21222054   0.047   1.928   7.625 -0.3540 -0.7815  0.3092
  191POPC  H12R22055   0.138   1.993   7.627 -0.1575 -0.9859 -1.1500
  191POPC  H12S22056   0.089   1.832   7.590 -1.9107 -1.2062 -0.4703
  191POPC  C21322057   0.016   1.907   7.771 -0.1499 -0.0766 -0.5885
  191POPC  H13R22058  -0.036   1.993   7.818  0.9704  0.1250  0.3395
  191POPC  H13S22059   0.116   1.905   7.819  0.4174  2.4826 -1.4946
  191POPC  C21422060  -0.064   1.784   7.808 -0.3833 -0.3033  0.9007
  191POPC  H14R22061  -0.005   1.694   7.782  0.8409  0.6731  0.1701
  191POPC  H14S22062  -0.164   1.779   7.759 -0.1720 -0.1476  0.4500
  191POPC  C21522063  -0.100   1.788   7.954 -0.2672  0.0233 -0.6350
  191POPC  H15R22064  -0.159   1.880   7.972 -0.0188  0.3472 -1.3906
  191POPC  H15S22065  -0.006   1.785   8.013  0.3370 -1.0507 -1.6039
  191POPC  C21622066  -0.186   1.666   7.982 -0.3262  0.2986  0.1213
  191POPC  H16R22067  -0.138   1.572   7.946  0.8831  1.6981 -2.0884
  191POPC  H16S22068  -0.282   1.680   7.927 -1.4568 -0.5353  1.7862
  191POPC  C21722069  -0.198   1.644   8.138  0.2520  0.5927  0.1767
  191POPC  H17R22070  -0.099   1.656   8.188 -0.2360 -2.1457  2.0163
  191POPC  H17S22071  -0.244   1.545   8.158 -1.0399  0.3706 -3.2522
  191POPC  C21822072  -0.296   1.738   8.199 -0.6845  0.1561 -0.5594
  191POPC  H18R22073  -0.255   1.840   8.184  1.3928 -0.1374  2.3631
  191POPC  H18S22074  -0.314   1.723   8.307  0.4370 -2.0784 -0.6321
  191POPC  H18T22075  -0.393   1.722   8.147 -0.4262 -0.6570 -0.8064
  191POPC   C3322076   0.218   1.117   7.104  0.0805 -0.4062  0.7887
  191POPC   H3X22077   0.278   1.183   7.038 -1.4628  1.5680  1.2768
  191POPC   H3Y22078   0.291   1.123   7.188  1.6317 -0.6425 -0.4955
  191POPC   C3422079   0.084   1.176   7.140  0.6507  0.2805  0.9833
  191POPC   H4X22080   0.032   1.097   7.197 -1.3376  0.3992 -0.5575
  191POPC   H4Y22081   0.020   1.186   7.050 -1.2559 -0.2659  2.2239
  191POPC   C3522082   0.083   1.310   7.212 -0.1717  0.4928  1.2295
  191POPC   H5X22083  -0.026   1.332   7.221 -1.0016 -1.4566 -2.0299
  191POPC   H5Y22084   0.129   1.374   7.134 -2.7190  1.4355  0.3848
  191POPC   C3622085   0.145   1.303   7.350 -0.1629  0.1852  0.0238
  191POPC   H6X22086   0.254   1.286   7.336 -0.0217  0.1881  1.0338
  191POPC   H6Y22087   0.106   1.223   7.418  1.4844 -1.2967 -0.6918
  191POPC   C3722088   0.132   1.440   7.425  0.2180 -0.0879 -0.7492
  191POPC   H7X22089   0.047   1.496   7.380 -0.3023 -0.3737 -0.1385
  191POPC   H7Y22090   0.224   1.501   7.412  0.1427  0.6087  1.6502
  191POPC   C3822091   0.107   1.449   7.578 -0.3252 -0.2037 -0.0289
  191POPC   H8X22092   0.017   1.390   7.608 -1.3814  0.5764 -1.5207
  191POPC   H8Y22093   0.078   1.554   7.601 -3.1550 -0.4853 -1.8381
  191POPC   C3922094   0.235   1.422   7.661  0.2999 -0.3089 -0.0484
  191POPC   H9X22095   0.314   1.493   7.628  1.5850 -2.5438 -2.1217
  191POPC   H9Y22096   0.268   1.321   7.630 -2.0684 -1.2325  0.2053
  191POPC  C31022097   0.209   1.436   7.803 -0.2159  0.6848 -0.5932
  191POPC  H10X22098   0.164   1.535   7.825 -0.5954  0.4298 -0.2121
  191POPC  H10Y22099   0.308   1.439   7.854 -0.3593  2.5899 -0.3405
  191POPC  C31122100   0.135   1.323   7.881  0.4061 -0.4853 -0.2513
  191POPC  H11X22101   0.156   1.219   7.848 -1.0890 -1.9272  2.8871
  191POPC  H11Y22102   0.030   1.334   7.848  0.2171 -1.5340 -0.0357
  191POPC  C31222103   0.144   1.337   8.037 -0.3311 -0.2805 -0.4443
  191POPC  H12X22104   0.101   1.433   8.072  0.3681 -0.2700  0.4142
  191POPC  H12Y22105   0.249   1.334   8.073 -0.8293  0.5814  1.1543
  191POPC  C31322106   0.080   1.216   8.115 -0.5614 -0.6576  0.4458
  191POPC  H13X22107   0.137   1.216   8.210 -0.1238  1.3316  0.2266
  191POPC  H13Y22108   0.114   1.120   8.070 -1.8103 -0.9007 -0.0218
  191POPC  C31422109  -0.071   1.227   8.129  0.1751 -0.1155  0.1456
  191POPC  H14X22110  -0.092   1.335   8.147 -1.3871 -0.6815  2.0912
  191POPC  H14Y22111  -0.112   1.184   8.223 -1.4141  0.6990 -0.1356
  191POPC  C31522112  -0.151   1.163   8.018 -0.6012 -0.2051  0.3596
  191POPC  H15X22113  -0.109   1.060   8.010 -0.4819 -0.1354  0.0250
  191POPC  H15Y22114  -0.122   1.211   7.922  0.3511  0.9724  1.2016
  191POPC  C31622115  -0.296   1.166   8.045  0.0495  0.4310  0.8344
  191POPC  H16X22116  -0.333   1.271   8.051  0.6303  0.6726  0.3514
  191POPC  H16Y22117  -0.327   1.109   8.135  1.4656 -0.5956  0.7028
  191POPC  H16Z22118  -0.344   1.110   7.962  2.5434  0.7982 -0.9635
  192POPC     N22119   5.271   4.134   5.911 -0.0519  0.3954 -0.4568
  192POPC   C1222120   5.318   4.048   6.031  0.4978 -0.0914 -0.0184
  192POPC  H12A22121   5.226   4.016   6.079  0.2893 -0.4805 -0.6593
  192POPC  H12B22122   5.372   4.110   6.101  1.4831 -2.4228  1.4212
  192POPC   C1322123   5.210   4.260   5.964  0.2023  0.3650 -0.4838
  192POPC  H13A22124   5.132   4.234   6.034 -0.4752 -1.4862 -1.8428
  192POPC  H13B22125   5.285   4.316   6.017 -0.1139 -1.3311  1.8817
  192POPC  H13C22126   5.173   4.320   5.882  0.5143  0.3381 -0.6441
  192POPC   C1422127   5.397   4.161   5.827 -0.1734  0.0880  0.7351
  192POPC  H14A22128   5.490   4.169   5.881  1.0687  0.6724 -1.3810
  192POPC  H14B22129   5.411   4.067   5.775  1.1399 -0.1319  1.4466
  192POPC  H14C22130   5.379   4.240   5.755  1.7376 -0.0896  0.0090
  192POPC   C1522131   5.166   4.069   5.831 -0.0483  0.0401  0.0347
  192POPC  H15A22132   5.072   4.076   5.884 -0.0468  0.4263 -0.0136
  192POPC  H15B22133   5.175   3.962   5.824 -1.7755 -0.1220 -0.1826
  192POPC  H15C22134   5.155   4.125   5.740  0.4800  2.7463  1.5289
  192POPC   C1122135   5.399   3.920   5.996  0.0494 -0.7248 -0.4180
  192POPC  H11A22136   5.343   3.861   5.921 -0.5593  0.0953 -0.6197
  192POPC  H11B22137   5.400   3.846   6.079 -0.5350 -0.5155 -0.2194
  192POPC     P22138   5.644   3.992   6.047  0.1806  0.1871 -0.2857
  192POPC   O1322139   5.656   4.136   6.039 -0.1783 -0.3406  0.1555
  192POPC   O1422140   5.766   3.905   6.043  0.2390 -0.3198  0.2867
  192POPC   O1222141   5.527   3.939   5.947 -0.5076 -0.1009  0.4252
  192POPC   O1122142   5.574   3.959   6.180  0.0126 -0.0834  0.5494
  192POPC    C122143   5.568   4.048   6.294  0.2258  0.1733  0.0936
  192POPC    HA22144   5.505   3.993   6.368 -1.6876 -1.9024 -2.8069
  192POPC    HB22145   5.523   4.147   6.272  1.8037  0.7514 -0.6307
  192POPC    C222146   5.707   4.076   6.356 -0.3697 -0.7231  0.3518
  192POPC    HS22147   5.781   4.096   6.276  1.1975 -2.8446  1.1795
  192POPC   O2122148   5.741   3.951   6.410  0.5592  0.0209 -0.4028
  192POPC   C2122149   5.870   3.940   6.435 -0.1272  0.6096  0.1710
  192POPC   O2222150   5.957   4.026   6.424  0.1560  0.1250 -0.0708
  192POPC   C2222151   5.902   3.800   6.491  0.0135 -0.3069 -0.0379
  192POPC   H2R22152   5.843   3.725   6.434 -1.6421  0.1241  1.0447
  192POPC   H2S22153   5.871   3.794   6.597  1.6764 -3.3922  0.3874
  192POPC    C322154   5.697   4.195   6.452  0.3560  0.4009  0.2359
  192POPC    HX22155   5.679   4.278   6.381 -1.1217 -0.1659 -0.0835
  192POPC    HY22156   5.788   4.209   6.514  0.0952 -1.1931  1.0547
  192POPC   O3122157   5.582   4.182   6.545  0.5709  0.1466 -0.0765
  192POPC   C3122158   5.545   4.297   6.592 -0.5644 -0.1355  0.9099
  192POPC   O3222159   5.574   4.411   6.548  0.5322 -0.0158  0.0471
  192POPC   C3222160   5.431   4.290   6.696 -0.2105 -0.2486 -0.2119
  192POPC   H2X22161   5.409   4.182   6.700 -0.9602 -0.2515 -2.6028
  192POPC   H2Y22162   5.345   4.346   6.654  0.0538  0.7433  0.5162
  192POPC   C2322163   6.053   3.759   6.487 -0.3752 -0.2456 -0.7194
  192POPC   H3R22164   6.089   3.763   6.382  0.2157 -0.1851 -0.5222
  192POPC   H3S22165   6.062   3.651   6.507  0.0126  0.1314  1.3341
  192POPC   C2422166   6.140   3.836   6.592  0.1381  0.1346  0.0986
  192POPC   H4R22167   6.114   3.942   6.576 -0.2608 -0.1153 -0.9411
  192POPC   H4S22168   6.247   3.832   6.562 -0.1126 -0.0061 -0.7992
  192POPC   C2522169   6.123   3.797   6.735  0.4942  0.3985 -0.1762
  192POPC   H5R22170   6.158   3.692   6.738 -1.7812 -0.4535 -1.3225
  192POPC   H5S22171   6.017   3.794   6.767  0.0516  0.7853 -1.5441
  192POPC   C2622172   6.207   3.884   6.835 -0.0045 -0.3511  0.0315
  192POPC   H6R22173   6.200   3.994   6.823  0.6341 -0.1307  1.4063
  192POPC   H6S22174   6.316   3.862   6.826  0.7360  2.9144 -0.4059
  192POPC   C2722175   6.178   3.862   6.987  0.1504  0.0420 -0.2189
  192POPC   H7R22176   6.072   3.896   6.995  0.1948 -0.1472  1.7165
  192POPC   H7S22177   6.236   3.942   7.036 -2.6392  1.1886  1.4424
  192POPC   C2822178   6.194   3.721   7.037 -0.0867  0.9540 -0.7667
  192POPC   H8R22179   6.305   3.712   7.042 -0.2322 -1.1531 -0.0433
  192POPC   H8S22180   6.168   3.650   6.955 -2.5204  0.1830  0.5644
  192POPC   C2922181   6.127   3.679   7.168  0.2749  0.1377  0.2134
  192POPC   H9122182   6.060   3.593   7.149  0.6095 -0.1064  0.1398
  192POPC  C21022183   6.119   3.742   7.286 -1.1636  0.1479  0.7016
  192POPC  H10122184   6.061   3.696   7.368 -0.6488 -1.7348  0.0605
  192POPC  C21122185   6.169   3.877   7.322 -0.2359  0.2913  1.2486
  192POPC  H11R22186   6.110   3.945   7.257  0.8043 -0.5088 -0.5971
  192POPC  H11S22187   6.276   3.891   7.295 -0.2454  0.7403  1.4232
  192POPC  C21222188   6.146   3.934   7.462 -0.4975 -0.2440  0.7898
  192POPC  H12R22189   6.037   3.938   7.482 -1.1790 -0.5881 -2.2561
  192POPC  H12S22190   6.160   4.044   7.457  0.2323 -0.3702 -2.0391
  192POPC  C21322191   6.226   3.874   7.572 -0.2422 -0.5679 -0.5739
  192POPC  H13R22192   6.335   3.887   7.553 -0.2031 -1.5531 -1.0899
  192POPC  H13S22193   6.190   3.770   7.589  1.5283 -1.5064 -2.1936
  192POPC  C21422194   6.191   3.945   7.712 -0.4616 -0.2670  0.1251
  192POPC  H14R22195   6.080   3.955   7.722 -0.6360 -2.5608  1.3593
  192POPC  H14S22196   6.247   4.040   7.717 -0.5021 -0.2588  0.4118
  192POPC  C21522197   6.244   3.849   7.818 -0.0270  0.1288 -0.6464
  192POPC  H15R22198   6.353   3.838   7.799 -0.0568  0.7032 -1.1768
  192POPC  H15S22199   6.191   3.752   7.809 -1.0174  0.3160  2.1932
  192POPC  C21622200   6.236   3.897   7.968 -0.3157  0.0828 -0.3684
  192POPC  H16R22201   6.284   3.997   7.978  0.5568 -0.1656 -1.7610
  192POPC  H16S22202   6.305   3.825   8.018  0.4502  2.2871  1.9627
  192POPC  C21722203   6.103   3.891   8.039  0.2950  0.7080  0.4510
  192POPC  H17R22204   6.054   3.791   8.041 -0.7212  1.1309 -1.2429
  192POPC  H17S22205   6.025   3.946   7.982 -1.6705  0.5013  2.7615
  192POPC  C21822206   6.101   3.950   8.178  0.2907 -0.4643 -0.2341
  192POPC  H18R22207   5.999   3.949   8.222  0.2741  2.8399  0.0453
  192POPC  H18S22208   6.130   4.057   8.169  0.5485 -0.2875  2.1916
  192POPC  H18T22209   6.181   3.908   8.242  0.6777 -1.3583 -1.2725
  192POPC   C3322210   5.456   4.330   6.844 -0.3721  0.2739 -0.0175
  192POPC   H3X22211   5.462   4.441   6.845 -0.3111  0.2791 -0.6314
  192POPC   H3Y22212   5.559   4.298   6.869 -1.0362 -0.5231  1.8920
  192POPC   C3422213   5.363   4.259   6.947  0.4173  0.6396 -0.5553
  192POPC   H4X22214   5.376   4.150   6.928  2.1907  0.7462 -0.1427
  192POPC   H4Y22215   5.255   4.285   6.935 -0.1713 -1.1030  0.4774
  192POPC   C3522216   5.404   4.287   7.100  0.4810  0.8827  0.4491
  192POPC   H5X22217   5.507   4.251   7.122  0.0376 -0.2307  0.7620
  192POPC   H5Y22218   5.339   4.233   7.172  0.1809 -0.0268 -0.4834
  192POPC   C3622219   5.384   4.433   7.141  0.2184  0.1370  0.4026
  192POPC   H6X22220   5.281   4.454   7.105  0.4705  1.1617  0.2606
  192POPC   H6Y22221   5.461   4.495   7.092 -0.1583  0.6981  0.5108
  192POPC   C3722222   5.380   4.457   7.291 -0.1346 -0.0020 -0.6601
  192POPC   H7X22223   5.393   4.566   7.305  2.3932 -0.2660 -0.4758
  192POPC   H7Y22224   5.471   4.413   7.339 -1.3278  0.5550  2.3136
  192POPC   C3822225   5.249   4.410   7.368 -0.7237 -0.4732 -0.6953
  192POPC   H8X22226   5.245   4.301   7.387 -1.9529 -0.2145  0.7004
  192POPC   H8Y22227   5.163   4.432   7.302 -1.3338 -3.5659 -1.0678
  192POPC   C3922228   5.243   4.479   7.506 -0.1831  0.3833 -1.1276
  192POPC   H9X22229   5.141   4.456   7.543  0.3239 -2.9566 -1.4669
  192POPC   H9Y22230   5.256   4.589   7.497  2.5214  0.6730  3.3669
  192POPC  C31022231   5.350   4.415   7.605 -0.4671 -0.0523  0.0894
  192POPC  H10X22232   5.443   4.405   7.546 -1.2865 -1.8035 -0.9919
  192POPC  H10Y22233   5.315   4.313   7.632  0.2575 -1.0882 -2.5818
  192POPC  C31122234   5.369   4.484   7.746  0.5431 -0.2112  0.8202
  192POPC  H11X22235   5.421   4.580   7.727  1.0817 -1.0312 -2.4175
  192POPC  H11Y22236   5.433   4.420   7.811  0.7835 -0.7882  0.0230
  192POPC  C31222237   5.237   4.519   7.816  0.4257  0.0951  0.7101
  192POPC  H12X22238   5.176   4.426   7.809  0.5102  0.1557 -1.6028
  192POPC  H12Y22239   5.175   4.598   7.767 -1.5276 -0.2304  2.4939
  192POPC  C31322240   5.252   4.556   7.965  0.1509 -0.3821 -0.7147
  192POPC  H13X22241   5.298   4.478   8.031  1.3544 -0.5730 -1.7468
  192POPC  H13Y22242   5.148   4.566   8.002  0.2954 -0.7794 -0.1804
  192POPC  C31422243   5.308   4.693   8.006  0.2080 -0.2109  0.0358
  192POPC  H14X22244   5.261   4.769   7.939 -1.3107 -2.7821 -2.0099
  192POPC  H14Y22245   5.418   4.690   7.995  0.5889  2.7341  1.8594
  192POPC  C31522246   5.280   4.725   8.151  0.6713 -1.0212 -0.2843
  192POPC  H15X22247   5.312   4.637   8.210 -0.5895 -0.6551  1.0064
  192POPC  H15Y22248   5.170   4.729   8.169  0.5130 -0.1643 -1.2952
  192POPC  C31622249   5.332   4.861   8.197  0.1517 -0.2796 -0.4223
  192POPC  H16X22250   5.301   4.954   8.143 -0.1008  0.3843  0.8317
  192POPC  H16Y22251   5.442   4.848   8.204  0.1905  0.5595  0.9289
  192POPC  H16Z22252   5.312   4.888   8.303 -0.1294  0.3432 -0.6289
  193SOD    SOD22253   0.200   3.736   3.764  0.2314  0.0855  0.3867
  194SOD    SOD22254   0.692   2.492  15.737 -0.1042  0.3547  0.4338
  195SOD    SOD22255   6.314   5.521  13.647 -0.2595 -0.2601 -0.0972
  196SOD    SOD22256   4.187   0.484  13.839 -0.0925 -0.0512 -0.5212
  197SOD    SOD22257   4.754   2.777  11.806 -0.3755 -0.6528 -0.2656
  198SOD    SOD22258   4.072   2.361   3.029  0.6076  0.0670 -0.3872
  199SOD    SOD22259   2.988   5.250  15.924  0.3753  0.0310 -0.3612
  200SOD    SOD22260   1.891   2.445  12.703 -0.1162 -0.0295 -0.9793
  201SOD    SOD22261   1.200   4.971   0.091 -0.1186 -0.7593 -0.4896
  202SOD    SOD22262   1.597   5.835  16.482 -0.1598  0.1486  0.4916
  203SOD    SOD22263   3.341   1.900  12.685 -0.2475  0.6069 -0.2591
  204SOD    SOD22264   1.666   1.771  16.392 -0.0174 -0.6988  0.3312
  205SOD    SOD22265   5.058   1.395   5.217  0.5980 -0.5400  0.3078
  206SOD    SOD22266   4.896   0.538   4.476 -0.4493 -0.3071  0.2518
  207SOD    SOD22267   1.233   6.615   2.635 -0.4307 -0.5395 -0.1954
  208SOD    SOD22268   3.078   3.642   6.154 -0.4010  0.5396  0.2502
  209SOD    SOD22269   4.078   0.788  15.633 -0.4114  0.4105 -0.2941
  210SOD    SOD22270   5.130   0.376  13.618 -0.1565 -0.1317  0.0079
  211SOD    SOD22271   4.894   3.182  10.857 -0.5115 -0.2292  0.1088
  212SOD    SOD22272   6.146   2.438  16.612  0.3161 -0.0989  0.2918
  213SOD    SOD22273   2.009   3.779  10.973  0.2790 -0.1585 -1.0357
  214SOD    SOD22274   1.534   0.268  14.008  0.3911 -0.0157 -0.2862
  215SOD    SOD22275   1.344   3.689   5.674  0.1704 -0.2374  0.5147
  216SOD    SOD22276   1.819   0.511  10.961 -0.6047 -0.1039  0.4671
  217SOD    SOD22277   6.778   0.259  14.442 -0.4963 -0.1240 -0.1784
  218SOD    SOD22278   4.117   4.623  11.630  0.5092  0.0467 -0.3557
  219SOD    SOD22279   6.006   5.831   5.921 -0.0023  0.1154  0.0539
  220SOD    SOD22280   1.783   2.740   2.877  0.4382 -0.2070 -0.6800
  221SOD    SOD22281   1.220   5.401   0.617 -0.5003 -0.6286 -0.2523
  222SOD    SOD22282   3.886   5.500   2.342  0.0633  0.0672  0.4407
  223SOD    SOD22283   3.394   3.086   5.582  0.5857 -0.5299 -0.2569
  224SOD    SOD22284   2.772   6.757   1.842  0.0921  0.3718 -0.1172
  225SOD    SOD22285   6.458   5.417  10.424 -0.0292  0.1677 -0.2169
  226SOD    SOD22286   5.728   1.428   6.257  0.1536  0.4130  0.1521
  227SOD    SOD22287   1.098   6.765   4.819  0.2787  0.0028 -0.5030
  228SOD    SOD22288   3.848   1.873  10.830 -0.4825 -0.5296  0.1655
  229SOD    SOD22289   6.486   2.136   0.331 -0.0576 -0.5158  0.2852
  230SOD    SOD22290   1.260   5.050   3.600 -0.0223 -0.2785  0.0629
  231SOD    SOD22291   0.372   1.156  16.860 -0.1805 -0.0209  0.3752
  232SOD    SOD22292   1.428   5.830   3.553  0.0584 -0.0845  0.1512
  233SOD    SOD22293   2.168   0.883   1.382  0.1199  0.0345 -0.3875
  234SOD    SOD22294   6.560   5.907   2.352  0.2128 -0.1843  0.5351
  235SOD    SOD22295   0.317   0.397   6.143  0.3382  0.0352 -0.2347
  236SOD    SOD22296   3.320   0.402   4.154  0.6468  0.2309  0.2023
  237SOD    SOD22297   5.958   4.277   0.825  0.4148 -0.0627  0.0435
  238SOD    SOD22298   3.787   5.076   5.284 -0.3956 -0.1943 -0.0326
  239SOD    SOD22299   5.756   5.524  14.348 -0.0616  0.0849  0.2581
  240SOD    SOD22300   4.945   0.640   5.293 -0.1866 -0.4824 -0.0676
  241SOD    SOD22301   5.602   6.510  10.811 -0.0077 -0.1716  0.0220
  242SOD    SOD22302   6.369   3.278  13.240  0.3573 -0.2965 -0.4731
  243SOD    SOD22303   3.844   3.768  15.503 -0.0810 -0.1986  0.2864
  244SOD    SOD22304   0.554   5.631   2.949 -0.3083  0.2226  0.1153
  245SOD    SOD22305   5.104   4.745  11.149  0.3871  0.0176 -0.0879
  246SOD    SOD22306   0.388   5.833  12.960  0.2812  0.4334 -0.2051
  247SOD    SOD22307   0.873   5.845   3.903  0.5820  0.0997 -0.5060
  248SOD    SOD22308   4.791   1.867  16.468 -0.1629 -0.1439  0.4546
  249SOD    SOD22309   5.032   6.706  11.434 -0.0805  0.6392 -0.1202
  250SOD    SOD22310   4.647   0.179  10.684 -0.0026  0.0141  0.3563
  251SOD    SOD22311   2.469   1.161   3.521  0.0497  0.0876 -0.5698
  252SOD    SOD22312   1.758   6.053  12.991 -0.0499  0.1655  0.3644
  253SOD    SOD22313   4.372   0.073  17.072 -0.0743 -0.0226  0.4417
  254SOD    SOD22314   4.198   3.162   5.786  0.0729  0.0274 -0.1650
  255SOD    SOD22315   4.974   5.480  15.744  0.3948  0.6870 -0.1131
  256SOD    SOD22316   6.316   6.525   6.538 -0.3770 -0.4127 -0.1433
  257SOD    SOD22317   6.120   3.575   1.179  0.1827  0.6268  0.5826
  258SOD    SOD22318   6.519   1.075  15.899  0.0979 -0.5110 -0.5194
  259SOD    SOD22319   4.106   6.502  16.458 -0.0684  0.2553  0.1547
  260SOD    SOD22320   0.085   0.544  10.735  0.9327  0.5662  0.1812
  261SOD    SOD22321   0.808   5.830  15.221 -0.1183 -0.5786 -0.1345
  262SOD    SOD22322   0.935   1.309   5.142  0.2264 -0.0798  0.0173
  263SOD    SOD22323   3.346   5.517   4.186 -0.2713 -0.5500  0.0502
  264SOD    SOD22324   1.119   3.941  10.896 -0.0414  0.1505 -0.3952
  265SOD    SOD22325   5.934   5.964   4.664 -0.2012  0.0662 -0.1000
  266SOD    SOD22326   3.231   5.564  10.819 -0.0076  0.0087  0.3591
  267SOD    SOD22327   6.798   3.433  15.241 -0.0160  0.0190 -0.4795
  268SOD    SOD22328   2.443   1.532  12.226  0.4098  0.3353 -0.1512
  269SOD    SOD22329   2.187   3.583   3.425 -0.1607 -0.1158 -0.2987
  270CLA    CLA22330   4.320   4.116  14.305  0.2860  0.0879 -0.3496
  271CLA    CLA22331   2.012   0.290   2.242 -0.1763 -0.3124  0.3114
  272CLA    CLA22332   1.336   2.119   0.590 -0.7671  0.3712  0.3615
  273CLA    CLA22333   0.713   1.597  16.238  0.4867 -0.4525 -0.0660
  274CLA    CLA22334   5.057   6.625  15.547  0.2165  0.1311  0.1592
  275CLA    CLA22335   4.137   3.245  16.806  0.1148  0.1925 -0.0417
  276CLA    CLA22336   6.110   6.511   0.051 -0.6458  0.0592  0.1909
  277CLA    CLA22337   5.863   6.526   0.670  0.2323 -0.5653 -0.0960
  278CLA    CLA22338   6.199   0.724  17.053  0.0855 -0.2008  0.4380
  279CLA    CLA22339   1.161   4.964   2.901  0.1160 -0.3967 -0.0220
  280CLA    CLA22340   6.296   6.105   3.183  0.1053  0.5640  0.4682
  281CLA    CLA22341   1.166   6.644  15.120  0.0318  0.3477 -0.0663
  282CLA    CLA22342   5.642   3.610   2.640  0.1977 -0.1241 -0.0197
  283CLA    CLA22343   1.016   6.431   5.527 -0.2686 -0.5431 -0.1481
  284CLA    CLA22344   1.926   5.841  16.065 -0.4086  0.5984 -0.1163
  285CLA    CLA22345   3.415   2.315   5.188 -0.2235 -0.2042 -0.2654
  286CLA    CLA22346   2.371   3.415  13.706  0.1386 -0.1683  0.3560
  287CLA    CLA22347   3.521   0.978  15.391 -0.2001  0.0211 -0.4660
  288CLA    CLA22348   5.348   4.832   5.153 -0.3116  0.0177  0.1327
  289CLA    CLA22349   2.813   5.403  14.616  0.1397  0.0168 -0.5288
  290CLA    CLA22350   5.568   3.030   0.927  0.1926  0.0879  0.1887
  291CLA    CLA22351   4.541   5.050  11.483  0.0699 -0.0311 -0.1197
  292CLA    CLA22352   0.795   2.066   4.975 -0.4086 -0.4561 -0.2252
  293CLA    CLA22353   2.680   0.341  15.749  0.1446  0.0796 -0.3677
  294CLA    CLA22354   2.263   6.539  13.400 -0.5894  0.0209 -0.1435
  295CLA    CLA22355   6.720   1.930  15.788 -0.1745 -0.5735 -0.1390
  296CLA    CLA22356   4.607   0.444   3.838 -0.5517 -0.1810 -0.2885
  297CLA    CLA22357   1.632   3.933   0.928 -0.1922  0.1405 -0.3122
  298CLA    CLA22358   5.820   3.845  15.504 -0.3310  0.6572  0.0142
  299CLA    CLA22359   5.940   4.599  14.344 -0.1809 -0.5240  0.0555
  300CLA    CLA22360   3.033   3.889   0.647 -0.1292 -0.7412 -0.0184
  301CLA    CLA22361   3.412   2.864   2.275 -0.0950  0.3109  0.1532
  302CLA    CLA22362   4.805   3.238  12.013 -0.0123  0.0473 -0.3827
  303CLA    CLA22363   0.059   2.930  14.007 -0.0768 -0.0584  0.0617
  304CLA    CLA22364   0.840   0.980  11.768 -0.2093 -0.2328 -0.1103
  305CLA    CLA22365   4.895   5.198   3.569  0.3080  0.1198 -0.0733
  306CLA    CLA22366   0.806   6.701  16.817  0.1328 -0.6709 -0.4090
  307CLA    CLA22367   5.010   6.302  16.439  0.0667 -0.2950  0.5019
  308CLA    CLA22368   0.213   5.926   3.268 -0.3537 -0.0131 -0.2401
  309CLA    CLA22369   0.088   1.080  14.383  0.0768 -0.0321  0.0078
  310CLA    CLA22370   1.392   2.203  12.193  0.1666 -0.0465 -0.0938
  311CLA    CLA22371   1.223   1.563   5.423 -0.2652 -0.3106 -0.2248
  312CLA    CLA22372   0.850   6.337   4.681 -0.0457 -0.4177 -0.2812
  313CLA    CLA22373   3.551   1.875   5.002 -0.1731 -0.0648  0.1786
  314CLA    CLA22374   2.467   2.834  12.015 -0.3750 -0.3333 -0.2560
  315CLA    CLA22375   3.831   5.511   3.074 -0.1853  0.2400 -0.0376
  316CLA    CLA22376   4.747   1.079  16.467 -0.3794  0.3363 -0.1749
  317CLA    CLA22377   4.626   0.435  16.670  0.2059  0.1912 -0.2692
  318CLA    CLA22378   5.530   4.411  13.698  0.1391 -0.0793 -0.2081
  319CLA    CLA22379   2.244   1.929  12.347  0.0612 -0.0486 -0.1701
  320CLA    CLA22380   4.711   6.684   2.280 -0.1317  0.2008 -0.0245
  321CLA    CLA22381   5.879   1.989   0.522  0.4532  0.1055 -0.0326
  322CLA    CLA22382   2.296   3.282   3.034 -0.1410  0.0373 -0.0194
  323TIP3   OH222383   5.233   6.337  12.757  0.0092 -0.1940 -0.3061
  323TIP3    H122384   5.314   6.340  12.707 -0.2567 -0.4191 -0.7600
  323TIP3    H222385   5.217   6.243  12.770  0.3446 -0.1294  0.6531
  324TIP3   OH222386   4.697   2.734   3.554 -0.1351 -0.2107 -0.0647
  324TIP3    H122387   4.644   2.800   3.599  0.1841 -0.0012 -0.0006
  324TIP3    H222388   4.786   2.750   3.582  0.3482  1.0736 -2.1299
  325TIP3   OH222389   6.463   5.665   2.021  0.9377 -0.5347 -0.4506
  325TIP3    H122390   6.528   5.595   2.013 -0.4802 -1.7383 -2.1763
  325TIP3    H222391   6.381   5.620   2.042  0.0485  0.5987 -1.3350
  326TIP3   OH222392   5.637   3.638  13.518 -0.0848 -0.2280  0.3800
  326TIP3    H122393   5.556   3.672  13.556  0.1991  0.8252  0.0702
  326TIP3    H222394   5.703   3.650  13.586  0.5341  2.1195 -0.5128
  327TIP3   OH222395   3.351   4.509  16.877  0.3848  0.1511 -0.0446
  327TIP3    H122396   3.432   4.529  16.830  0.4191 -0.0705 -0.0803
  327TIP3    H222397   3.323   4.424  16.842  0.9152 -0.4813  1.0042
  328TIP3   OH222398   0.114   2.141  15.725  0.0637  0.2140 -0.5833
  328TIP3    H122399   0.119   2.136  15.629  0.7833 -0.9153 -0.5091
  328TIP3    H222400   0.039   2.085  15.748 -0.0357  0.3889 -0.4858
  329TIP3   OH222401   0.480   3.310  11.544  0.5200  0.2552  0.6936
  329TIP3    H122402   0.418   3.381  11.563  0.3705  0.1046  0.7753
  329TIP3    H222403   0.452   3.238  11.601  1.2175  0.4274  1.2778
  330TIP3   OH222404   2.672   3.461   2.554  0.4405 -0.4578 -0.4697
  330TIP3    H122405   2.729   3.386   2.536  0.4982 -0.0244 -2.3576
  330TIP3    H222406   2.656   3.499   2.468 -0.7513  0.8635  0.2993
  331TIP3   OH222407   4.859   2.893   3.823  0.0107 -0.4105 -0.1107
  331TIP3    H122408   4.864   2.804   3.857  0.9202 -0.4463 -0.3122
  331TIP3    H222409   4.824   2.945   3.895 -1.5507 -1.1076 -0.3448
  332TIP3   OH222410   2.409   5.092   0.864 -0.4780 -1.3944 -0.3983
  332TIP3    H122411   2.357   5.172   0.854  0.2354 -0.7692  0.7050
  332TIP3    H222412   2.453   5.082   0.779  2.0305  1.2985  0.3981
  333TIP3   OH222413   1.093   6.382   6.784  0.4032  0.2258  0.0279
  333TIP3    H122414   1.062   6.470   6.764  1.9406  0.4506 -1.6246
  333TIP3    H222415   1.091   6.336   6.700  0.8806 -0.9050  0.6140
  334TIP3   OH222416   5.563   6.414  14.960  0.4482  0.1089  0.5155
  334TIP3    H122417   5.518   6.481  14.908  0.5238  0.1585  0.5137
  334TIP3    H222418   5.522   6.331  14.933 -2.7777  0.4327  3.6335
  335TIP3   OH222419   4.911   4.412  16.191  0.3532  0.3654  0.0898
  335TIP3    H122420   4.949   4.473  16.128  0.7488 -0.8222 -0.8781
  335TIP3    H222421   4.816   4.427  16.184  0.5023  2.4962  1.6385
  336TIP3   OH222422   4.186   1.650   3.692  0.2383  0.3275  0.1238
  336TIP3    H122423   4.260   1.645   3.630  1.5028 -0.1375  1.6038
  336TIP3    H222424   4.185   1.741   3.720 -0.7824  0.7034 -1.0678
  337TIP3   OH222425   1.071   6.523   4.196 -0.0306 -0.0940 -0.6579
  337TIP3    H122426   1.040   6.555   4.111  0.9209 -0.4154 -1.1423
  337TIP3    H222427   0.993   6.522   4.252 -0.4418  1.2866 -1.1708
  338TIP3   OH222428   3.354   0.864  16.193  0.6928  0.5318  0.1975
  338TIP3    H122429   3.422   0.796  16.189  0.6060  0.4490  0.1281
  338TIP3    H222430   3.353   0.892  16.284  0.8208  0.5325  0.1983
  339TIP3   OH222431   0.931   4.801  16.446  0.5129 -0.0863 -0.5359
  339TIP3    H122432   0.950   4.755  16.528  0.1465 -1.0917 -0.9975
  339TIP3    H222433   0.913   4.891  16.473  0.1321 -0.4608  0.5177
  340TIP3   OH222434   2.024   0.993  12.517 -0.0583 -0.0248  0.0129
  340TIP3    H122435   1.940   0.948  12.503  0.0667  0.1042 -1.1828
  340TIP3    H222436   2.070   0.937  12.579 -1.1810  0.1054  1.0158
  341TIP3   OH222437   5.326   4.054   1.009 -0.5755  0.4629  0.4636
  341TIP3    H122438   5.348   3.975   1.057 -1.0821 -0.4330 -0.7273
  341TIP3    H222439   5.235   4.042   0.982 -0.5564  1.2914 -0.0201
  342TIP3   OH222440   3.704   2.262  12.822 -0.3185  0.3409  0.2647
  342TIP3    H122441   3.725   2.274  12.730 -0.4488 -1.1578  0.0146
  342TIP3    H222442   3.760   2.189  12.850  0.3805  1.3428  1.6239
  343TIP3   OH222443   6.754   2.131   2.839  0.2334 -0.5649 -0.0035
  343TIP3    H122444   6.703   2.207   2.867 -0.1524 -1.0849  0.7520
  343TIP3    H222445   6.814   2.165   2.773 -1.0299  0.0776 -0.8516
  344TIP3   OH222446   0.785   2.810   4.621 -0.0932 -0.1412  0.2954
  344TIP3    H122447   0.854   2.876   4.612  2.2371 -2.4942 -0.2003
  344TIP3    H222448   0.722   2.832   4.552  3.4953 -1.5596 -3.9388
  345TIP3   OH222449   0.560   0.797  13.422  0.8291 -0.1565  0.3311
  345TIP3    H122450   0.553   0.831  13.511 -1.0169  1.7459 -0.4464
  345TIP3    H222451   0.474   0.761  13.403  0.5928  1.0819 -1.2352
  346TIP3   OH222452   2.453   3.040   0.293  0.1113 -0.1627 -0.1864
  346TIP3    H122453   2.423   2.949   0.302 -0.8556  0.2739  1.3599
  346TIP3    H222454   2.434   3.062   0.201 -2.9139 -0.4541  0.2468
  347TIP3   OH222455   1.695   2.830   5.336  0.1910 -0.0583 -0.1232
  347TIP3    H122456   1.703   2.922   5.358  1.0603 -0.0470 -0.4400
  347TIP3    H222457   1.701   2.785   5.421 -0.9176  0.1923  0.1080
  348TIP3   OH222458   6.711   1.576   2.547  0.3955 -0.6037 -0.2984
  348TIP3    H122459   6.675   1.593   2.634 -0.6346  0.3117 -0.8753
  348TIP3    H222460   6.765   1.498   2.558 -0.3644 -0.9792  0.9903
  349TIP3   OH222461   3.925   3.760  11.781 -0.2555 -0.1341 -0.0469
  349TIP3    H122462   3.892   3.700  11.714 -0.6851 -0.7604  0.7178
  349TIP3    H222463   3.941   3.842  11.733  2.7544 -1.5099 -1.6440
  350TIP3   OH222464   4.172   2.642  11.483 -0.1273 -0.0341  0.2978
  350TIP3    H122465   4.179   2.676  11.572 -3.7648 -1.2401  1.2194
  350TIP3    H222466   4.213   2.556  11.486  0.0045  0.0427  0.7206
  351TIP3   OH222467   0.861   2.400  11.560 -0.1933  0.1323 -0.1002
  351TIP3    H122468   0.920   2.436  11.494 -0.7786  0.0720 -0.6649
  351TIP3    H222469   0.913   2.398  11.640 -0.4723  3.3784  0.2976
  352TIP3   OH222470   4.984   1.342   1.328 -0.1651  0.2890 -0.5978
  352TIP3    H122471   4.962   1.311   1.240 -0.4525 -0.6646 -0.1946
  352TIP3    H222472   4.929   1.420   1.340  0.3057  0.7787 -1.4757
  353TIP3   OH222473   5.138   2.743   4.823  0.2226 -0.1348 -0.3502
  353TIP3    H122474   5.218   2.696   4.845 -0.2097 -0.4774  0.5666
  353TIP3    H222475   5.083   2.733   4.901 -0.2519  1.0912 -0.5119
  354TIP3   OH222476   2.374   3.302   5.647 -0.0786  0.0380  0.6365
  354TIP3    H122477   2.356   3.392   5.621  0.4830 -0.6579 -2.5579
  354TIP3    H222478   2.288   3.261   5.651 -0.1664 -0.1353 -1.7172
  355TIP3   OH222479   0.373   1.337  13.861 -0.1692 -0.3809  0.3548
  355TIP3    H122480   0.415   1.416  13.827 -0.2087 -0.9664 -1.1373
  355TIP3    H222481   0.282   1.343  13.832 -0.6917 -0.0473  1.9359
  356TIP3   OH222482   4.732   2.698  12.175  0.0999 -0.2876 -0.5701
  356TIP3    H122483   4.789   2.663  12.243 -0.1608 -0.8721 -0.6478
  356TIP3    H222484   4.791   2.733  12.109  0.3818  1.4624  0.5206
  357TIP3   OH222485   4.953   4.675  12.886 -0.4589  0.1499  0.0701
  357TIP3    H122486   5.041   4.674  12.924  0.4893 -0.2538 -2.0125
  357TIP3    H222487   4.896   4.705  12.958  1.3051  0.0977  1.5585
  358TIP3   OH222488   2.124   1.596   1.982 -0.2330 -0.1820 -0.0909
  358TIP3    H122489   2.120   1.543   2.062 -3.4672  1.1018  0.7989
  358TIP3    H222490   2.174   1.673   2.007 -1.4329  0.3273  0.8706
  359TIP3   OH222491   5.555   4.777   2.965  0.7130 -0.0546  0.0784
  359TIP3    H122492   5.586   4.866   2.948 -1.9697  0.4971 -2.7315
  359TIP3    H222493   5.505   4.784   3.046 -1.5788  1.7162 -1.3579
  360TIP3   OH222494   4.776   5.891  10.596  0.0765 -0.0901  0.0598
  360TIP3    H122495   4.689   5.931  10.596  0.7282  1.4141 -0.8377
  360TIP3    H222496   4.797   5.879  10.503  1.0984  0.1935  0.2476
  361TIP3   OH222497   2.166   6.677  11.866  0.7352 -0.2061 -0.1450
  361TIP3    H122498   2.217   6.628  11.930 -0.0006  1.3679  1.7345
  361TIP3    H222499   2.076   6.648  11.879  0.5330  0.3650 -0.2264
  362TIP3   OH222500   0.191   4.760   3.645 -0.0002 -0.5279  0.4433
  362TIP3    H122501   0.209   4.720   3.560 -0.6247 -1.2371  0.6407
  362TIP3    H222502   0.124   4.826   3.626 -0.0898 -0.6377  0.3766
  363TIP3   OH222503   4.140   4.111   1.890  0.7163  0.4061  0.0534
  363TIP3    H122504   4.065   4.116   1.950  1.0747  1.2449  0.4586
  363TIP3    H222505   4.183   4.029   1.912 -0.1699 -0.1691 -0.2992
  364TIP3   OH222506   5.232   1.733  15.756  0.4568 -0.0686 -0.2630
  364TIP3    H122507   5.149   1.712  15.798  0.2072  0.3990 -0.5111
  364TIP3    H222508   5.287   1.657  15.773  0.4995  0.2730  1.2437
  365TIP3   OH222509   2.419   0.086  13.173 -0.0278 -0.4078 -0.0868
  365TIP3    H122510   2.324   0.095  13.180 -0.1615 -1.0123 -0.9989
  365TIP3    H222511   2.433   0.040  13.090  1.2385  2.8971 -1.8968
  366TIP3   OH222512   0.547   0.946   1.205  0.1254 -0.1051  0.3080
  366TIP3    H122513   0.598   1.005   1.150  3.8309 -2.3362  0.9926
  366TIP3    H222514   0.496   1.004   1.262 -1.4768  2.2551 -3.1799
  367TIP3   OH222515   6.546   2.642   1.462  0.0368 -0.0977 -0.1011
  367TIP3    H122516   6.526   2.645   1.369  0.0534 -0.5930 -0.1235
  367TIP3    H222517   6.543   2.733   1.490 -2.8571 -0.1390  0.0333
  368TIP3   OH222518   2.710   2.098   2.938 -0.6122 -0.0965 -0.6230
  368TIP3    H122519   2.793   2.059   2.911 -1.2983 -2.0859 -0.0370
  368TIP3    H222520   2.688   2.159   2.867  2.1137  1.7667 -0.0084
  369TIP3   OH222521   6.166   5.558   2.064 -0.0405 -0.1870 -0.5952
  369TIP3    H122522   6.073   5.564   2.044  0.1918 -1.0129 -2.0577
  369TIP3    H222523   6.177   5.473   2.106 -0.1708  0.6097  1.1436
  370TIP3   OH222524   5.384   0.685  13.399 -0.2027  0.0458 -0.1855
  370TIP3    H122525   5.430   0.717  13.321  1.5842 -0.8843  0.4137
  370TIP3    H222526   5.411   0.745  13.469  0.4008 -0.7093  0.2434
  371TIP3   OH222527   3.731   0.393   0.496 -0.3168  0.3164 -0.2580
  371TIP3    H122528   3.719   0.333   0.423 -1.7897 -0.7549  0.8059
  371TIP3    H222529   3.688   0.474   0.467  0.0955  0.2850 -0.9934
  372TIP3   OH222530   3.931   0.612  13.553  0.3941  0.0390  0.5970
  372TIP3    H122531   3.856   0.621  13.612 -0.3763 -0.5553 -0.2904
  372TIP3    H222532   3.987   0.547  13.595  0.3410  0.3554  1.1702
  373TIP3   OH222533   3.972   3.401   2.791 -0.0576  0.1106  0.4445
  373TIP3    H122534   3.926   3.485   2.793 -1.0699 -0.4304  0.8057
  373TIP3    H222535   3.988   3.380   2.883 -3.1522 -1.8081  0.7037
  374TIP3   OH222536   3.184   4.330  15.534  0.5141  0.4733 -0.3336
  374TIP3    H122537   3.096   4.307  15.505  1.0515 -1.0009 -0.9079
  374TIP3    H222538   3.218   4.250  15.575  0.6436  1.7966  2.3414
  375TIP3   OH222539   5.031   2.344  14.078  0.1670 -0.1006 -0.1065
  375TIP3    H122540   4.986   2.402  14.140  0.9839 -0.2927  0.6926
  375TIP3    H222541   4.986   2.358  13.995 -1.8473 -0.8286  0.7945
  376TIP3   OH222542   5.126   4.721  11.664 -0.0436 -0.2915 -0.2614
  376TIP3    H122543   5.203   4.740  11.611  1.7251 -0.3469  2.1620
  376TIP3    H222544   5.127   4.786  11.733 -2.3964 -0.0971 -0.3208
  377TIP3   OH222545   2.064   4.756   4.845  0.0496  0.1544 -0.4859
  377TIP3    H122546   2.127   4.743   4.774 -1.0088  3.6468 -2.3054
  377TIP3    H222547   2.105   4.820   4.903 -0.3920 -0.3187  0.3862
  378TIP3   OH222548   4.557   4.354   2.529  0.5301 -0.3082 -0.4011
  378TIP3    H122549   4.623   4.285   2.534  0.7047 -0.1916 -1.0386
  378TIP3    H222550   4.607   4.435   2.542  0.6821 -0.1463 -1.8356
  379TIP3   OH222551   1.499   6.586  14.752 -0.1256 -0.1460 -0.2266
  379TIP3    H122552   1.482   6.639  14.829  0.3289  0.2503 -0.3922
  379TIP3    H222553   1.470   6.640  14.678 -1.4507 -0.9055 -0.2895
  380TIP3   OH222554   0.425   4.443  16.290  0.0545  0.1343  0.1024
  380TIP3    H122555   0.433   4.531  16.328  0.8658  0.3291 -0.4729
  380TIP3    H222556   0.377   4.457  16.208  1.7104  0.3649 -0.8971
  381TIP3   OH222557   1.034   4.393   4.775 -0.5654 -0.6254  0.2392
  381TIP3    H122558   0.947   4.410   4.812 -0.6775 -1.7440  0.5200
  381TIP3    H222559   1.030   4.301   4.747  0.4961 -0.6505  0.1588
  382TIP3   OH222560   1.704   6.266   1.519  0.5923  0.3660  0.2903
  382TIP3    H122561   1.798   6.279   1.536  1.1335 -0.5953 -1.6468
  382TIP3    H222562   1.693   6.293   1.428 -1.0980  0.7311  0.5803
  383TIP3   OH222563   4.446   1.052   3.160  0.5321 -0.4746  0.2860
  383TIP3    H122564   4.418   0.961   3.153 -1.7315  0.2391 -1.1423
  383TIP3    H222565   4.366   1.100   3.179  1.5099  1.3218  0.1115
  384TIP3   OH222566   6.388   3.611  11.213  0.4761 -0.7081  0.4506
  384TIP3    H122567   6.393   3.700  11.180 -0.8567  0.4555  3.1323
  384TIP3    H222568   6.296   3.587  11.204  0.8494 -1.9463 -0.4254
  385TIP3   OH222569   6.536   5.035   1.376 -0.5249  0.0929 -0.6799
  385TIP3    H122570   6.585   5.109   1.413 -0.6828 -0.3947  0.5717
  385TIP3    H222571   6.581   5.016   1.294  2.8302 -1.6391  1.3093
  386TIP3   OH222572   6.184   1.809   5.767 -0.1399  0.1418 -0.5205
  386TIP3    H122573   6.163   1.890   5.720 -0.2868  0.1453 -0.4515
  386TIP3    H222574   6.127   1.812   5.844  0.4011  0.3416 -0.1213
  387TIP3   OH222575   0.459   2.425   5.532 -0.0372 -0.6055  0.2121
  387TIP3    H122576   0.457   2.338   5.492 -2.4233 -0.6670  0.3390
  387TIP3    H222577   0.415   2.414   5.616 -0.4217  0.7254  0.2142
  388TIP3   OH222578   0.481   6.337   2.133 -0.1588 -0.1273 -0.2889
  388TIP3    H122579   0.503   6.411   2.078 -0.1800 -0.8444 -1.2870
  388TIP3    H222580   0.563   6.313   2.176  0.3108 -0.7825 -1.5244
  389TIP3   OH222581   3.280   5.811   1.052 -0.3721 -0.3420  0.0429
  389TIP3    H122582   3.213   5.827   0.985 -0.4416 -0.3123  0.1185
  389TIP3    H222583   3.303   5.898   1.085 -0.5444 -0.3739  0.2549
  390TIP3   OH222584   4.482   2.188   2.291  0.4943  0.1689  0.1898
  390TIP3    H122585   4.421   2.232   2.349 -2.8780 -2.5392 -0.9476
  390TIP3    H222586   4.445   2.200   2.203  1.9872 -0.9627 -0.6525
  391TIP3   OH222587   5.266   5.227   2.181 -0.6547 -0.0625  0.4747
  391TIP3    H122588   5.296   5.310   2.218  1.7037  0.2520 -1.7861
  391TIP3    H222589   5.185   5.249   2.134  0.5216  1.3136 -1.0336
  392TIP3   OH222590   4.727   6.669  16.356  0.3058 -0.0946 -0.5694
  392TIP3    H122591   4.816   6.698  16.372  0.7240 -1.8847  0.5824
  392TIP3    H222592   4.698   6.632  16.439 -1.8324  1.2041 -0.6708
  393TIP3   OH222593   2.358   0.918   5.172 -0.0029  0.7317  0.1100
  393TIP3    H122594   2.408   0.837   5.168 -1.0656  0.1273 -2.0371
  393TIP3    H222595   2.382   0.956   5.257  1.4948 -1.1582  0.6103
  394TIP3   OH222596   0.001   4.921  15.715  0.2591  0.3145  0.0830
  394TIP3    H122597   0.095   4.906  15.720 -0.0592 -2.2651 -0.0080
  394TIP3    H222598  -0.024   4.944  15.805  1.0299  1.7127 -0.0334
  395TIP3   OH222599   4.596   5.780  14.739  0.5533 -0.1253 -0.4186
  395TIP3    H122600   4.678   5.821  14.767  0.7121 -0.9051  0.3121
  395TIP3    H222601   4.611   5.756  14.648  1.0864 -0.1115 -0.3384
  396TIP3   OH222602   1.869   5.687  16.908 -0.6567  0.6369  0.6227
  396TIP3    H122603   1.796   5.748  16.905 -0.7371  0.5212  0.0544
  396TIP3    H222604   1.828   5.601  16.917 -0.6508  0.4818 -0.6284
  397TIP3   OH222605   1.499   1.739   5.176 -0.3632 -0.7115 -0.0116
  397TIP3    H122606   1.417   1.735   5.126  0.9326 -1.5991 -2.2447
  397TIP3    H222607   1.501   1.658   5.227 -1.7094  0.2071  1.5881
  398TIP3   OH222608   0.522   6.794   1.425 -0.4269  0.4217 -0.0809
  398TIP3    H122609   0.510   6.753   1.511 -1.5064 -0.3650 -0.5831
  398TIP3    H222610   0.497   6.886   1.438 -0.8007  0.2544  0.3896
  399TIP3   OH222611   1.243   6.014   2.204 -0.3625  0.4570  0.3520
  399TIP3    H122612   1.305   5.950   2.237  0.2033  1.1301  0.6356
  399TIP3    H222613   1.218   5.982   2.117 -0.4223 -0.3547  0.6619
  400TIP3   OH222614   0.317   0.744  13.273 -0.7790 -0.0267  0.3062
  400TIP3    H122615   0.311   0.832  13.234  0.7117  0.2989  0.7423
  400TIP3    H222616   0.322   0.685  13.198  1.2730  0.5283 -0.0481
  401TIP3   OH222617   4.341   5.351  15.504 -0.2095 -0.5195 -0.0030
  401TIP3    H122618   4.264   5.296  15.518  0.1810 -0.6033  1.9986
  401TIP3    H222619   4.318   5.435  15.543  1.4490 -1.1931  2.6185
  402TIP3   OH222620   2.129   0.222   1.266 -0.0385 -0.6881 -0.2203
  402TIP3    H122621   2.192   0.290   1.239  0.2638 -1.2043 -0.8610
  402TIP3    H222622   2.146   0.209   1.359  0.4666 -0.4657 -0.2770
  403TIP3   OH222623   1.600   2.797   1.697 -0.5513  0.6243  0.0456
  403TIP3    H122624   1.640   2.811   1.782  0.2038  0.4498 -0.2736
  403TIP3    H222625   1.651   2.852   1.637 -0.8062  0.4201 -0.3662
  404TIP3   OH222626   1.321   1.262   2.280 -0.5900  0.4685 -0.5161
  404TIP3    H122627   1.296   1.349   2.312 -0.6581  0.2917 -0.0806
  404TIP3    H222628   1.239   1.215   2.268 -0.5243  0.2250 -0.0520
  405TIP3   OH222629   6.089   1.596  16.195  0.1181  0.6020  0.4196
  405TIP3    H122630   6.138   1.559  16.121 -2.9256  0.2096 -1.5787
  405TIP3    H222631   6.148   1.586  16.270  2.1567 -1.9084 -1.3333
  406TIP3   OH222632   3.136   2.055   0.123 -0.0512 -0.0305 -0.7790
  406TIP3    H122633   3.042   2.064   0.105  0.1617  1.6603 -1.2329
  406TIP3    H222634   3.178   2.103   0.052  1.0596  1.4473  0.8107
  407TIP3   OH222635   1.310   0.146   5.951 -0.5226  0.0096  0.1288
  407TIP3    H122636   1.289   0.193   6.032 -0.9051  2.2781 -1.2162
  407TIP3    H222637   1.244   0.175   5.888  1.0822  0.0796 -1.6166
  408TIP3   OH222638   2.008   3.723   1.007 -0.4280  0.1026 -0.7006
  408TIP3    H122639   2.043   3.805   0.971  0.0761 -0.1804 -0.8632
  408TIP3    H222640   2.014   3.661   0.934  1.9955 -0.8924  0.2515
  409TIP3   OH222641   2.534   0.205  10.834  0.1655  0.1811 -0.3117
  409TIP3    H122642   2.447   0.173  10.859  0.2505 -0.2937 -0.6045
  409TIP3    H222643   2.517   0.265  10.761  0.0722  0.1961 -0.2773
  410TIP3   OH222644   4.498   6.428   0.297 -0.3850 -0.1644  0.7189
  410TIP3    H122645   4.475   6.504   0.350  0.3994  0.5530  0.0626
  410TIP3    H222646   4.463   6.447   0.210  1.0436  0.1332  0.1715
  411TIP3   OH222647   3.986   1.901  14.948 -0.1436  0.3768  0.5826
  411TIP3    H122648   3.916   1.966  14.943 -0.3573  0.0551 -1.3825
  411TIP3    H222649   3.952   1.825  14.901  1.5205  0.2352 -0.4846
  412TIP3   OH222650   6.701   5.358  15.423  0.4098 -0.5168 -0.1746
  412TIP3    H122651   6.737   5.398  15.502  1.0474  0.1352 -0.7699
  412TIP3    H222652   6.701   5.264  15.440 -0.9444 -0.3013  1.1936
  413TIP3   OH222653   1.799   5.318  12.001  0.1383 -0.0377  0.1924
  413TIP3    H122654   1.890   5.291  11.985  0.9209  0.3147  3.3292
  413TIP3    H222655   1.807   5.400  12.050 -1.9350  0.4631 -0.2140
  414TIP3   OH222656   1.395   4.527   1.943  0.1935  0.3367  0.1339
  414TIP3    H122657   1.321   4.466   1.946 -0.9633  1.3966 -2.9583
  414TIP3    H222658   1.471   4.472   1.927 -0.4379 -0.4947 -0.0555
  415TIP3   OH222659   0.953   3.371  12.598 -0.3840  0.3098  0.3168
  415TIP3    H122660   1.023   3.426  12.634  1.3198 -1.0182 -0.7401
  415TIP3    H222661   0.946   3.298  12.660  0.8585 -0.7294 -0.6739
  416TIP3   OH222662   3.958   4.558   0.290  0.4912 -0.3352 -0.1525
  416TIP3    H122663   3.940   4.511   0.209 -2.2070  1.4436 -0.6903
  416TIP3    H222664   3.986   4.489   0.351 -0.2642 -2.1556 -1.7343
  417TIP3   OH222665   1.817   5.570   2.186  0.5830  0.3265 -0.1314
  417TIP3    H122666   1.747   5.506   2.178 -2.0550  2.7919  1.0983
  417TIP3    H222667   1.857   5.552   2.271 -0.3319  0.4225  0.3339
  418TIP3   OH222668   4.864   1.810   5.679 -0.7427 -0.0271 -0.1052
  418TIP3    H122669   4.933   1.863   5.640 -0.3261 -0.4975 -0.0245
  418TIP3    H222670   4.805   1.791   5.606 -1.0080  0.7111 -0.0887
  419TIP3   OH222671   5.968   6.384  14.966  0.2967  0.1735 -0.1865
  419TIP3    H122672   5.923   6.301  14.977 -1.6466  1.1406 -0.3464
  419TIP3    H222673   6.008   6.379  14.879  1.5755 -1.1690  0.4489
  420TIP3   OH222674   5.292   2.325   1.195 -0.3560  0.1671 -0.7667
  420TIP3    H122675   5.318   2.267   1.124  0.1121  0.3404 -0.7394
  420TIP3    H222676   5.368   2.328   1.252 -0.1137  1.3744 -1.1325
  421TIP3   OH222677   6.512   1.770   2.709  0.0553 -0.3248 -0.4208
  421TIP3    H122678   6.477   1.853   2.743  1.5607  0.8501 -1.6149
  421TIP3    H222679   6.499   1.776   2.614  0.6534 -1.2380 -0.5686
  422TIP3   OH222680   3.159   5.017   5.721 -0.4396  0.4556  0.8512
  422TIP3    H122681   3.132   5.042   5.633 -0.7236 -0.3186  0.7117
  422TIP3    H222682   3.085   4.967   5.756  0.3812 -0.8258  0.8371
  423TIP3   OH222683   0.976   4.739  10.603 -0.0391  0.7958 -0.5732
  423TIP3    H122684   0.997   4.826  10.569 -0.1666  0.0030 -2.8551
  423TIP3    H222685   1.061   4.695  10.611  0.0129  1.0504  0.4459
  424TIP3   OH222686   1.170   2.704  12.016  0.6045  0.3690  0.7362
  424TIP3    H122687   1.186   2.728  11.925 -0.3867 -0.6355  0.2845
  424TIP3    H222688   1.219   2.770  12.066  0.4285  1.4814 -0.4935
  425TIP3   OH222689   0.104   6.603   5.774  0.1947 -0.5746  0.0844
  425TIP3    H122690   0.027   6.600   5.717  2.0906 -0.7370 -2.6908
  425TIP3    H222691   0.079   6.554   5.852 -1.9571 -2.1534 -1.4890
  426TIP3   OH222692   4.794   3.120   1.125 -0.0108  0.1817 -0.0130
  426TIP3    H122693   4.767   3.200   1.170  0.9173 -0.0617  1.0060
  426TIP3    H222694   4.837   3.068   1.192 -1.5767 -1.7008 -0.3811
  427TIP3   OH222695   3.390   3.184   4.113  0.5181 -0.0009 -0.3546
  427TIP3    H122696   3.459   3.126   4.145  0.7238  0.5788  0.2813
  427TIP3    H222697   3.406   3.192   4.019  1.5935  0.4860 -0.1449
  428TIP3   OH222698   3.852   4.669  14.309 -0.1325  0.0746 -0.7608
  428TIP3    H122699   3.846   4.721  14.229 -0.4914  1.0077 -0.1479
  428TIP3    H222700   3.787   4.708  14.368 -1.4753 -2.0269 -0.7830
  429TIP3   OH222701   0.972   4.911   0.666 -0.4904 -0.6249  0.3500
  429TIP3    H122702   0.957   4.853   0.592 -0.8023  0.3848 -0.4001
  429TIP3    H222703   0.993   4.853   0.739  3.3016 -1.5705 -1.2534
  430TIP3   OH222704   2.307   4.212  16.106  0.0065 -0.0556  0.1636
  430TIP3    H122705   2.387   4.255  16.134  1.4665 -1.7661 -1.0892
  430TIP3    H222706   2.294   4.242  16.016  0.1449 -0.9296 -0.1639
  431TIP3   OH222707   6.651   0.699  12.935  0.5398 -0.0640 -0.5570
  431TIP3    H122708   6.640   0.717  12.841  0.0741 -0.0333 -0.5013
  431TIP3    H222709   6.745   0.688  12.947  0.5117 -1.2728 -1.2556
  432TIP3   OH222710   0.395   4.370   0.390  0.1011 -0.3660  0.5959
  432TIP3    H122711   0.311   4.376   0.436 -1.4560 -2.3141 -1.7293
  432TIP3    H222712   0.443   4.447   0.418 -2.3954  0.7541  2.1691
  433TIP3   OH222713   5.419   2.121  12.608  0.5379  0.3885  0.0202
  433TIP3    H122714   5.460   2.134  12.694  0.8482  0.7984 -0.1855
  433TIP3    H222715   5.492   2.124  12.546  0.2880  0.3352 -0.2766
  434TIP3   OH222716   2.935   4.582   3.755  0.0052  0.0176  0.5098
  434TIP3    H122717   2.980   4.605   3.674 -0.1824 -1.3480 -0.0159
  434TIP3    H222718   2.882   4.659   3.776 -0.5902  0.1021 -1.1312
  435TIP3   OH222719   0.116   1.804  14.717  0.0801  0.2064 -0.3318
  435TIP3    H122720   0.085   1.891  14.693  0.4232  0.0687 -1.3040
  435TIP3    H222721   0.203   1.797  14.677  0.1597 -0.4969 -0.0621
  436TIP3   OH222722   5.586   6.704  13.564  0.2545  0.2826 -0.2733
  436TIP3    H122723   5.552   6.793  13.564  1.2707  0.6820 -0.1213
  436TIP3    H222724   5.561   6.668  13.479 -2.1317 -0.0853  0.5244
  437TIP3   OH222725   0.757   5.464   0.645  1.0137  0.2571 -0.7178
  437TIP3    H122726   0.739   5.557   0.632 -0.1408  0.0823 -0.4816
  437TIP3    H222727   0.733   5.448   0.736  1.4491 -0.2274 -0.6823
  438TIP3   OH222728   0.139   1.376   1.344 -0.7492 -1.0254  0.3427
  438TIP3    H122729   0.054   1.402   1.380 -0.7160 -0.7468  0.2275
  438TIP3    H222730   0.179   1.459   1.316 -0.3669 -1.1372  0.5541
  439TIP3   OH222731   5.786   3.742  13.745 -0.1598  0.2431 -0.0979
  439TIP3    H122732   5.778   3.824  13.793  0.3949  0.1809  0.1053
  439TIP3    H222733   5.745   3.677  13.802  0.1782  0.2325  0.1374
  440TIP3   OH222734   1.508   4.330   3.102  0.6946 -0.1194 -0.6978
  440TIP3    H122735   1.587   4.275   3.097  1.4384  0.9666 -1.3903
  440TIP3    H222736   1.518   4.379   3.184  0.2393 -0.6891 -0.2924
  441TIP3   OH222737   3.010   2.180   5.676 -0.2487 -0.2453  0.4333
  441TIP3    H122738   3.022   2.142   5.763 -1.3164 -1.1875  0.2016
  441TIP3    H222739   3.098   2.209   5.650 -0.2470  2.1649  2.7211
  442TIP3   OH222740   6.151   5.219  16.126 -0.5290 -0.2066  0.2640
  442TIP3    H122741   6.220   5.221  16.192  0.6165  1.2109 -0.9207
  442TIP3    H222742   6.071   5.242  16.174  0.4226  1.7253  1.0292
  443TIP3   OH222743   4.163   1.511   2.380  0.4414  0.3853 -0.9100
  443TIP3    H122744   4.159   1.454   2.457  0.0878  0.3684 -0.9356
  443TIP3    H222745   4.074   1.546   2.372  0.9030  1.7736 -0.2793
  444TIP3   OH222746   0.044   2.828   1.752  0.0171 -0.2933  0.6139
  444TIP3    H122747  -0.022   2.884   1.792  0.5413  0.1018  0.9392
  444TIP3    H222748   0.012   2.739   1.766  0.4380 -0.2046  2.3865
  445TIP3   OH222749   1.731   2.068  16.829 -0.4362 -0.4666  0.4635
  445TIP3    H122750   1.768   2.064  16.741  1.5299  0.1769  1.2025
  445TIP3    H222751   1.643   2.031  16.820 -0.0846 -0.9102 -1.6474
  446TIP3   OH222752   5.006   1.264  12.171 -0.2512 -0.0744  0.1513
  446TIP3    H122753   5.101   1.274  12.172 -0.1204 -0.3173 -2.4645
  446TIP3    H222754   4.983   1.263  12.078 -2.5810 -2.2843  0.6297
  447TIP3   OH222755   5.091   2.097  15.017 -0.0463  0.0537  0.0385
  447TIP3    H122756   5.185   2.088  15.035 -0.0654  0.1716  0.2122
  447TIP3    H222757   5.072   2.188  15.042 -0.2494 -0.0348  0.2040
  448TIP3   OH222758   3.251   0.705   4.767 -0.1689  0.8058 -0.1445
  448TIP3    H122759   3.245   0.800   4.780 -2.5576  0.6915 -0.0896
  448TIP3    H222760   3.170   0.670   4.803  0.1000 -1.1420 -1.2747
  449TIP3   OH222761   0.448   1.063  13.879 -0.9646 -0.2873 -0.5632
  449TIP3    H122762   0.373   1.025  13.926 -2.4757 -0.2241 -2.7544
  449TIP3    H222763   0.417   1.150  13.852 -0.0699 -0.2259 -1.4250
  450TIP3   OH222764   5.053   1.821  13.184  0.2551 -0.1940  0.6113
  450TIP3    H122765   4.996   1.828  13.261 -1.2079  0.6583 -0.5079
  450TIP3    H222766   5.036   1.900  13.134  0.0737 -1.3977 -1.3269
  451TIP3   OH222767   3.799   1.416   2.639 -0.2104  0.0952  0.2434
  451TIP3    H122768   3.838   1.467   2.568 -1.2204 -0.6044 -0.8644
  451TIP3    H222769   3.819   1.466   2.719  2.2833  0.1016 -0.3161
  452TIP3   OH222770   0.769   4.447   4.844  0.2791  0.3786  0.4427
  452TIP3    H122771   0.712   4.484   4.911 -0.7439  1.3655 -0.9102
  452TIP3    H222772   0.736   4.483   4.761  0.2960 -2.2724 -0.8220
  453TIP3   OH222773   3.527   1.390   5.001  0.2782  0.1268 -0.6271
  453TIP3    H122774   3.593   1.381   5.070 -0.7585 -0.0183  0.3544
  453TIP3    H222775   3.455   1.334   5.028 -0.1116 -0.0044 -1.8834
  454TIP3   OH222776   3.887   4.114  12.987  0.0638  0.2542  0.3227
  454TIP3    H122777   3.905   4.191  12.933 -3.0478  0.9100  0.0731
  454TIP3    H222778   3.898   4.145  13.077 -0.9516  0.9532  0.2160
  455TIP3   OH222779   2.253   0.679   1.462  0.0653  0.5956  0.1086
  455TIP3    H122780   2.253   0.614   1.532 -0.7408  0.8358  0.3348
  455TIP3    H222781   2.279   0.630   1.384 -1.1289 -0.1409  0.1532
  456TIP3   OH222782   3.328   6.382  11.766 -0.0054  0.1213  0.3629
  456TIP3    H122783   3.276   6.375  11.686 -1.0946  0.6189  1.0063
  456TIP3    H222784   3.275   6.437  11.824  0.1628 -1.2634  1.8911
  457TIP3   OH222785   5.208   6.691   2.678  0.1122  0.0002  0.0669
  457TIP3    H122786   5.128   6.742   2.671  0.6759  1.3012  2.0991
  457TIP3    H222787   5.227   6.663   2.588 -2.2389  0.1698 -0.5450
  458TIP3   OH222788   1.766   0.874  12.488  0.4069 -0.6363  0.0787
  458TIP3    H122789   1.711   0.875  12.410 -0.2626 -0.3142  0.5439
  458TIP3    H222790   1.705   0.884  12.561  1.2090  1.7340  0.5237
  459TIP3   OH222791   2.233   5.687   0.796  0.3634 -0.1870  0.1034
  459TIP3    H122792   2.211   5.717   0.708  2.0173  0.8245 -0.0036
  459TIP3    H222793   2.154   5.703   0.847 -0.3207  0.0454 -0.9868
  460TIP3   OH222794   0.973   5.100   5.614 -0.6823 -0.5312  0.1928
  460TIP3    H122795   0.951   5.023   5.666  0.0497 -0.8733  0.0050
  460TIP3    H222796   0.986   5.170   5.678 -0.7815 -0.7037  0.3994
  461TIP3   OH222797   2.778   4.626   1.861  0.1319 -0.3374 -0.6458
  461TIP3    H122798   2.753   4.698   1.918 -1.1136 -1.0950 -0.1990
  461TIP3    H222799   2.745   4.651   1.774 -0.7923 -0.6101 -0.3791
  462TIP3   OH222800   3.126   5.628   4.218  0.1219 -0.2165 -0.3558
  462TIP3    H122801   3.052   5.576   4.187  0.9818 -0.7499 -1.6200
  462TIP3    H222802   3.087   5.707   4.256 -1.1113 -0.8812 -0.2117
  463TIP3   OH222803   6.815   6.259   2.636  0.2905 -0.1302  0.5107
  463TIP3    H122804   6.793   6.300   2.552  0.9621  1.9130  1.2732
  463TIP3    H222805   6.753   6.186   2.644 -0.2035  0.0115 -1.4547
  464TIP3   OH222806   6.038   0.783  11.034 -0.7390  0.0144  0.3058
  464TIP3    H122807   6.095   0.709  11.017 -0.2915  0.2712  0.6743
  464TIP3    H222808   5.972   0.748  11.095 -0.5597 -0.0991  0.4379
  465TIP3   OH222809   6.219   1.175   1.171  0.3345 -0.3528  0.1606
  465TIP3    H122810   6.184   1.253   1.214  1.0451 -0.7584  1.5247
  465TIP3    H222811   6.280   1.210   1.105  0.0822  0.2615  0.2493
  466TIP3   OH222812   5.068   1.521   1.041 -0.4569 -0.8105  0.2284
  466TIP3    H122813   5.162   1.514   1.059 -0.6148  0.7854  2.0813
  466TIP3    H222814   5.045   1.609   1.071 -2.8130 -1.6965  1.2702
  467TIP3   OH222815   2.020   3.648  14.629 -0.5787  0.0998 -0.0219
  467TIP3    H122816   1.959   3.575  14.616 -0.3693 -0.4710  1.8387
  467TIP3    H222817   1.974   3.708  14.687 -0.0714  0.5695 -0.0974
  468TIP3   OH222818   0.873   1.821  10.839  0.0932 -0.2752  0.0830
  468TIP3    H122819   0.786   1.856  10.857 -1.0406 -2.1303 -1.3977
  468TIP3    H222820   0.903   1.868  10.761  0.5244  0.4928  0.6994
  469TIP3   OH222821   5.596   1.104  14.425 -0.5338  0.5045 -0.0509
  469TIP3    H122822   5.578   1.010  14.424  1.1863  0.1165  1.2608
  469TIP3    H222823   5.523   1.142  14.473 -2.3044  0.1513 -2.2900
  470TIP3   OH222824   6.053   0.276  12.625  0.0901 -0.2259  0.6438
  470TIP3    H122825   6.034   0.320  12.707  1.1994 -0.9080  1.2894
  470TIP3    H222826   6.022   0.187  12.637  1.7060 -0.7811  0.9563
  471TIP3   OH222827   5.224   4.871   5.577  0.2704 -0.3073  0.3363
  471TIP3    H122828   5.156   4.909   5.633 -0.9182 -2.0549  0.1445
  471TIP3    H222829   5.215   4.916   5.493 -0.6602 -0.5100  0.3182
  472TIP3   OH222830   0.304   3.177   2.036  0.2615 -0.3370  0.2560
  472TIP3    H122831   0.227   3.231   2.057  0.6305 -0.9879  4.0714
  472TIP3    H222832   0.376   3.240   2.030 -0.1118  0.0254 -0.6359
  473TIP3   OH222833   4.604   5.037  13.514  0.3988 -0.3009 -0.0575
  473TIP3    H122834   4.627   5.043  13.607  0.6315 -0.2581 -0.1167
  473TIP3    H222835   4.510   5.021  13.513  0.5666 -1.3755  0.2150
  474TIP3   OH222836   4.748   3.585  13.060 -0.6840 -0.1936 -0.6589
  474TIP3    H122837   4.766   3.498  13.096  1.2493  0.1274 -0.7946
  474TIP3    H222838   4.735   3.570  12.967  1.9792 -0.1215 -1.1180
  475TIP3   OH222839   3.507   4.604  12.969  0.0696  0.4068 -0.2420
  475TIP3    H122840   3.506   4.699  12.978  0.2197  0.3234  0.7734
  475TIP3    H222841   3.593   4.578  13.002  0.0961 -0.0665 -0.6753
  476TIP3   OH222842   4.049   3.614  14.168 -0.2142  0.0602 -0.0106
  476TIP3    H122843   3.984   3.546  14.183  0.6558 -1.0147 -0.8417
  476TIP3    H222844   4.064   3.653  14.254 -1.4442 -0.1320  0.3034
  477TIP3   OH222845   5.430   0.957  13.449 -0.0295 -0.2462 -0.1756
  477TIP3    H122846   5.400   0.966  13.358  1.0336 -1.8201 -0.7292
  477TIP3    H222847   5.384   1.027  13.496 -0.3603  0.8285 -1.9708
  478TIP3   OH222848   1.895   1.525   0.666 -0.1876  0.4752  0.0889
  478TIP3    H122849   1.903   1.590   0.736  1.8512  0.5191 -0.1185
  478TIP3    H222850   1.955   1.555   0.598  0.7351 -1.5368 -0.0674
  479TIP3   OH222851   4.094   3.754  14.390 -0.2432 -0.3651 -0.1958
  479TIP3    H122852   4.183   3.786  14.408 -0.6869  1.2982 -0.7347
  479TIP3    H222853   4.051   3.755  14.475 -0.0026 -0.2839 -0.0720
  480TIP3   OH222854   5.090   2.121  14.724  0.1325  0.0989  0.1365
  480TIP3    H122855   5.012   2.083  14.684  0.5063 -1.4933  0.8539
  480TIP3    H222856   5.073   2.116  14.819  0.5974  0.8850  0.2717
  481TIP3   OH222857   3.718   6.211  10.886  0.2367  0.0159 -0.3541
  481TIP3    H122858   3.713   6.137  10.825  0.5755  0.4439 -0.9153
  481TIP3    H222859   3.657   6.276  10.851  0.1900  0.1335 -0.0565
  482TIP3   OH222860   1.357   2.620   1.065 -0.4807  0.2859  0.1583
  482TIP3    H122861   1.337   2.588   0.977 -0.0665 -1.4352  0.6450
  482TIP3    H222862   1.297   2.570   1.122  1.0064 -0.5265  1.0677
  483TIP3   OH222863   2.843   1.966  16.880 -0.4458  0.2073  0.3951
  483TIP3    H122864   2.861   1.950  16.973 -1.7443 -0.7766  0.5062
  483TIP3    H222865   2.792   2.047  16.879  0.4959  0.8288  0.4107
  484TIP3   OH222866   5.303   5.722   5.535  0.0353 -0.7902  0.3029
  484TIP3    H122867   5.359   5.675   5.596 -0.0339 -0.8192  0.3441
  484TIP3    H222868   5.214   5.691   5.555 -0.0575 -0.3323  0.6131
  485TIP3   OH222869   0.427   5.959   5.450 -0.4914  0.4572  0.3170
  485TIP3    H122870   0.391   6.020   5.386  0.5879  0.9761  0.1808
  485TIP3    H222871   0.454   6.015   5.523 -2.0290 -0.1572  1.4124
  486TIP3   OH222872   5.984   3.433  11.361 -0.5741  0.6750  0.0855
  486TIP3    H122873   6.074   3.461  11.374 -0.7205  2.8341 -2.5482
  486TIP3    H222874   5.986   3.382  11.279 -1.5110 -0.8089  0.9320
  487TIP3   OH222875   4.920   3.127  15.582 -0.2858 -0.4163  0.1872
  487TIP3    H122876   4.897   3.175  15.662 -0.2892  0.4321 -0.3058
  487TIP3    H222877   4.849   3.064  15.570 -0.7199  0.0302  0.3894
  488TIP3   OH222878   4.330   1.495   4.096 -0.6973 -0.1159  0.0052
  488TIP3    H122879   4.368   1.517   4.011  0.8443 -1.1981  0.3483
  488TIP3    H222880   4.281   1.572   4.122  1.0992  1.3209 -0.6291
  489TIP3   OH222881   2.230   3.553  15.192 -0.3179 -0.2133 -0.7011
  489TIP3    H122882   2.278   3.501  15.128  2.3381 -1.7856  2.2656
  489TIP3    H222883   2.163   3.494  15.226  0.0652 -0.3549 -0.1702
  490TIP3   OH222884   2.910   4.971  12.164 -0.0263 -0.1207  0.5521
  490TIP3    H122885   2.917   4.985  12.070  0.1931  1.2730  0.7623
  490TIP3    H222886   2.984   5.019  12.201 -0.4372 -0.1838  1.4848
  491TIP3   OH222887   3.545   3.325  14.901  0.1517  0.3346  0.0288
  491TIP3    H122888   3.517   3.406  14.943 -0.3979  0.5743 -0.7891
  491TIP3    H222889   3.495   3.321  14.819  0.8398 -0.3732 -0.3719
  492TIP3   OH222890   4.981   0.364   1.665 -0.4857  0.2307  0.4343
  492TIP3    H122891   4.895   0.354   1.625 -0.0363 -0.5716 -0.3790
  492TIP3    H222892   4.982   0.301   1.736 -0.7621  0.6369  0.8054
  493TIP3   OH222893   3.326   5.142  13.113 -0.6136 -0.1111 -0.0801
  493TIP3    H122894   3.346   5.103  13.198  0.7578 -0.0210 -0.3394
  493TIP3    H222895   3.262   5.211  13.132 -0.2164  0.0033  0.8896
  494TIP3   OH222896   1.404   2.201  13.810  0.1302 -0.5942 -0.3766
  494TIP3    H122897   1.372   2.130  13.865  1.5995 -0.5424  0.6114
  494TIP3    H222898   1.343   2.273  13.827  0.4992 -0.6029  1.1707
  495TIP3   OH222899   4.689   0.050   0.422 -0.8919  0.0495  0.3094
  495TIP3    H122900   4.783   0.063   0.406 -0.4151  0.0703  2.7656
  495TIP3    H222901   4.669   0.107   0.496 -2.9561  0.2876 -0.3713
  496TIP3   OH222902   6.329   4.771  14.857 -0.0973  0.3212 -0.3028
  496TIP3    H122903   6.389   4.809  14.921 -0.8915  1.7041 -0.3404
  496TIP3    H222904   6.243   4.775  14.898 -0.3462 -0.6526 -0.6726
  497TIP3   OH222905   3.577   6.495  11.536  0.2663 -0.2364  0.1164
  497TIP3    H122906   3.491   6.471  11.571  1.0783 -1.9716  1.0331
  497TIP3    H222907   3.569   6.479  11.442 -0.6449  0.4172  0.0647
  498TIP3   OH222908   1.227   6.227  11.712  0.1329 -0.0722 -0.0887
  498TIP3    H122909   1.309   6.194  11.676 -1.6750 -0.7863 -4.2075
  498TIP3    H222910   1.225   6.319  11.687 -1.6346 -0.8261 -3.3718
  499TIP3   OH222911   0.859   4.356   5.680 -0.1495  0.1074  0.1550
  499TIP3    H122912   0.951   4.328   5.679 -0.3842 -0.6538 -0.6782
  499TIP3    H222913   0.862   4.447   5.651  0.2271 -0.3052 -1.1785
  500TIP3   OH222914   4.885   5.804   2.934  0.7297 -0.0703 -0.0686
  500TIP3    H122915   4.826   5.791   3.009  0.7904 -0.2781 -0.0572
  500TIP3    H222916   4.872   5.727   2.879 -1.6907  1.4803 -1.8941
  501TIP3   OH222917   0.169   4.001   5.785 -0.1518 -0.1441  0.2474
  501TIP3    H122918   0.225   4.074   5.757  0.3787 -0.2227  1.0581
  501TIP3    H222919   0.095   4.044   5.829  0.2622 -0.0804  0.9069
  502TIP3   OH222920   4.188   3.618   2.280  0.0720  0.4516  0.0427
  502TIP3    H122921   4.193   3.670   2.360  1.7569  1.1354 -0.4720
  502TIP3    H222922   4.279   3.602   2.255 -0.3669 -2.4306 -0.0542
  503TIP3   OH222923   4.665   4.558  16.571  0.1258 -0.7244 -0.1488
  503TIP3    H122924   4.610   4.624  16.613  0.0804 -1.4493  0.9654
  503TIP3    H222925   4.743   4.607  16.543  0.2927 -0.2585  1.0654
  504TIP3   OH222926   6.665   2.384   2.970 -0.3986 -0.4553 -0.7666
  504TIP3    H122927   6.569   2.382   2.975 -0.5281  1.8961 -0.8877
  504TIP3    H222928   6.684   2.457   2.910  1.4829 -2.0620 -2.2440
  505TIP3   OH222929   3.166   0.280  16.689  0.0308 -0.1241  0.8448
  505TIP3    H122930   3.083   0.319  16.662 -0.6141 -0.6580  1.9728
  505TIP3    H222931   3.209   0.349  16.740  0.0167 -0.0318  0.7303
  506TIP3   OH222932   3.100   1.270  13.623 -0.6537 -0.4059 -0.2395
  506TIP3    H122933   3.171   1.329  13.648 -0.8337  0.4023 -1.4963
  506TIP3    H222934   3.029   1.329  13.596 -0.6497 -1.1589 -2.0345
  507TIP3   OH222935   4.608   3.869   3.416 -0.1920  0.3369 -0.5347
  507TIP3    H122936   4.623   3.954   3.375  1.0339 -0.6347 -2.2331
  507TIP3    H222937   4.573   3.814   3.346  0.4655 -0.9595  0.0992
  508TIP3   OH222938   2.217   3.894  13.241 -0.0254 -0.7256 -0.1676
  508TIP3    H122939   2.255   3.879  13.155 -1.4709 -1.5676 -0.6846
  508TIP3    H222940   2.291   3.884  13.302  1.1845  0.6360 -1.3153
  509TIP3   OH222941   3.574   6.819  13.343 -0.1892 -0.3657 -0.3099
  509TIP3    H122942   3.656   6.800  13.389 -1.2252 -0.0387  1.8321
  509TIP3    H222943   3.596   6.887  13.280  1.6006 -1.8504 -1.3698
  510TIP3   OH222944   5.949   4.891   3.404 -0.1310 -0.4815 -0.8419
  510TIP3    H122945   5.877   4.864   3.460 -1.4648  1.7233 -1.3590
  510TIP3    H222946   6.027   4.886   3.460 -0.8999 -1.5277  0.1708
  511TIP3   OH222947   0.390   1.609   1.537 -0.3774 -0.1169  0.5754
  511TIP3    H122948   0.470   1.661   1.543 -1.2950  1.3341  0.9190
  511TIP3    H222949   0.408   1.545   1.468  0.6019  1.0924 -0.3522
  512TIP3   OH222950   2.554   6.355  13.234  0.1766  0.7844  0.0967
  512TIP3    H122951   2.462   6.335  13.215  0.4353 -3.4119  2.0141
  512TIP3    H222952   2.600   6.337  13.153 -0.3797 -0.4809  0.0393
  513TIP3   OH222953   4.415   3.358   1.103 -0.2433  0.3471 -0.0770
  513TIP3    H122954   4.410   3.275   1.151  2.8003  0.6695  1.0119
  513TIP3    H222955   4.455   3.335   1.019  0.6470  0.6684  0.2436
  514TIP3   OH222956   2.997   3.933   4.105 -0.7965  0.8218 -0.1933
  514TIP3    H122957   2.938   3.937   4.180 -1.7710 -0.5098 -0.8631
  514TIP3    H222958   2.999   3.841   4.080  0.5041  1.0505 -1.0347
  515TIP3   OH222959   0.425   1.958  12.738  0.5076 -0.0130 -0.6290
  515TIP3    H122960   0.418   2.017  12.813  0.5372 -1.0235  0.1891
  515TIP3    H222961   0.335   1.940  12.713  0.4864 -0.0183 -0.5511
  516TIP3   OH222962   0.608   4.260   3.038  0.5535 -0.0463  0.6417
  516TIP3    H122963   0.606   4.181   3.092  0.8148  0.8541  2.0035
  516TIP3    H222964   0.622   4.332   3.100 -0.5698  1.1786 -0.4668
  517TIP3   OH222965   0.628   6.011  15.181 -0.2764  0.2597  0.4847
  517TIP3    H122966   0.599   6.063  15.256  1.5911  2.3216 -0.1105
  517TIP3    H222967   0.615   6.068  15.106 -1.7370 -1.6263 -0.7964
  518TIP3   OH222968   5.551   3.407  15.890  0.1038  0.2008  0.0798
  518TIP3    H122969   5.636   3.363  15.879  0.2130  0.1672  0.9677
  518TIP3    H222970   5.531   3.395  15.983 -1.2826 -0.5257 -0.2891
  519TIP3   OH222971   3.063   6.186   6.555  0.4662 -0.0227  0.0363
  519TIP3    H122972   3.020   6.122   6.612  1.3995 -0.9393 -0.2561
  519TIP3    H222973   3.022   6.269   6.577 -0.1630 -0.5828  1.0539
  520TIP3   OH222974   6.097   5.436   1.152  0.4973 -0.1830 -0.3096
  520TIP3    H122975   6.125   5.366   1.094  1.1574 -0.2290  0.0532
  520TIP3    H222976   6.010   5.410   1.182 -0.2089  0.2399 -1.9041
  521TIP3   OH222977   0.815   3.073  14.713  0.0880 -0.5177 -0.0646
  521TIP3    H122978   0.748   3.056  14.779 -0.9098 -0.5342 -1.0361
  521TIP3    H222979   0.826   2.988  14.669  1.3541 -0.7180  0.6073
  522TIP3   OH222980   5.544   1.612   4.597 -0.0525  0.1229  0.6476
  522TIP3    H122981   5.548   1.707   4.589  0.6965  0.0816  0.5318
  522TIP3    H222982   5.525   1.596   4.690  2.5061  0.3405  1.2838
  523TIP3   OH222983   1.841   6.112  13.405 -0.0076 -0.1365 -0.4397
  523TIP3    H122984   1.788   6.182  13.442 -0.5780 -0.5724 -0.4274
  523TIP3    H222985   1.854   6.051  13.477 -0.1071 -0.3915 -0.6349
  524TIP3   OH222986   0.186   3.407   0.505 -0.2962 -0.6245 -0.6554
  524TIP3    H122987   0.106   3.457   0.493 -0.3815 -1.0018 -1.7577
  524TIP3    H222988   0.162   3.336   0.565 -0.3197  0.2830  0.4388
  525TIP3   OH222989   5.827   4.608  11.320 -0.1119 -0.3638 -0.2323
  525TIP3    H122990   5.798   4.674  11.383  0.7908  0.0750 -0.2710
  525TIP3    H222991   5.747   4.581  11.276 -0.6910 -0.3147  0.7531
  526TIP3   OH222992   0.884   6.239  12.888  0.1259 -0.3270  0.0807
  526TIP3    H122993   0.798   6.208  12.917  0.4938 -0.4496  1.0746
  526TIP3    H222994   0.888   6.213  12.796 -0.0485 -2.2509  0.5698
  527TIP3   OH222995   6.774   3.745   0.247 -0.0704  0.5448 -0.0946
  527TIP3    H122996   6.777   3.806   0.320 -0.2420  1.1046 -0.5406
  527TIP3    H222997   6.682   3.723   0.238  0.2259 -1.7079  1.5903
  528TIP3   OH222998   4.917   4.759   4.228  0.4022 -0.0791 -0.2446
  528TIP3    H122999   4.861   4.701   4.176  0.3858  0.8655 -1.3119
  528TIP3    H223000   4.973   4.699   4.278 -1.0760 -1.0418  0.3451
  529TIP3   OH223001   5.364   3.670   3.018  0.0264 -0.2836 -0.7408
  529TIP3    H123002   5.310   3.711   3.085  0.3029  0.9959 -1.2594
  529TIP3    H223003   5.306   3.665   2.941  0.0104 -0.8514 -0.6973
  530TIP3   OH223004   3.055   2.878   4.592  0.1158  0.3624  0.0648
  530TIP3    H123005   3.121   2.825   4.636 -0.9786 -0.3663  0.8862
  530TIP3    H223006   3.008   2.922   4.663 -0.1361  1.0642 -0.5160
  531TIP3   OH223007   4.940   1.612   5.128  0.4487  0.0422 -0.0886
  531TIP3    H123008   4.847   1.607   5.151  0.5212 -0.7173  0.0836
  531TIP3    H223009   4.967   1.700   5.152  0.2314 -0.3481  1.7135
  532TIP3   OH223010   3.369   6.788  14.316  0.0127 -0.3166  0.1128
  532TIP3    H123011   3.418   6.819  14.239 -2.6410  0.6072 -1.3411
  532TIP3    H223012   3.279   6.819  14.301 -1.0680 -1.9631  2.5793
  533TIP3   OH223013   0.460   6.437  14.873  0.7654  0.0710 -0.4195
  533TIP3    H123014   0.443   6.343  14.879 -0.8397  0.3869  0.1899
  533TIP3    H223015   0.493   6.461  14.959  2.3525 -0.1257 -0.9370
  534TIP3   OH223016   4.088   2.624   4.254 -0.4871  0.1264  0.1831
  534TIP3    H123017   4.009   2.654   4.298  1.1824  1.9336  2.2204
  534TIP3    H223018   4.143   2.589   4.324  1.6486  1.6180 -0.6228
  535TIP3   OH223019   0.486   6.382   0.945  0.1328  0.2726  0.4962
  535TIP3    H123020   0.550   6.411   0.880  0.0963 -0.2675  0.2206
  535TIP3    H223021   0.414   6.346   0.894 -0.7748  1.6313  0.7752
  536TIP3   OH223022   0.991   1.592  15.026  0.6535 -0.3735  0.0040
  536TIP3    H123023   0.941   1.630  14.955  0.5257 -0.9100 -0.1968
  536TIP3    H223024   1.063   1.654  15.041 -0.6652  1.0088  1.0610
  537TIP3   OH223025   1.357   0.158  11.508 -0.5592  0.2292 -0.4762
  537TIP3    H123026   1.448   0.139  11.531 -0.8630 -0.1763  0.4081
  537TIP3    H223027   1.356   0.252  11.491  0.1799  0.1132 -1.2583
  538TIP3   OH223028   4.703   0.248  13.754  0.2868 -0.4334  0.0757
  538TIP3    H123029   4.707   0.182  13.822  2.6568  0.5306  1.0091
  538TIP3    H223030   4.777   0.307  13.773 -0.7708  1.5977 -1.5810
  539TIP3   OH223031   5.039   4.175   4.517  0.1239  0.4916  0.2378
  539TIP3    H123032   5.115   4.197   4.571 -0.6855  2.3967  0.6714
  539TIP3    H223033   4.963   4.194   4.572 -0.6934  0.6312 -0.8945
  540TIP3   OH223034   6.599   6.481  15.361  0.0769  0.1465  0.0860
  540TIP3    H123035   6.559   6.567  15.360 -0.6876 -0.1788 -2.2173
  540TIP3    H223036   6.664   6.486  15.431 -1.5675  1.7903  1.6096
  541TIP3   OH223037   5.134   4.760   4.040  0.3072  0.1595 -0.1820
  541TIP3    H123038   5.046   4.791   4.062  0.4303  0.1995  0.2461
  541TIP3    H223039   5.193   4.820   4.085  0.5792 -2.0616  2.6954
  542TIP3   OH223040   2.878   2.174   3.288 -0.0688 -0.1427  0.2966
  542TIP3    H123041   2.792   2.134   3.293  0.0729 -0.2842  2.0206
  542TIP3    H223042   2.878   2.241   3.356  0.3257  1.6063 -1.3437
  543TIP3   OH223043   6.346   6.236  16.137 -0.2227  0.1241  0.0174
  543TIP3    H123044   6.319   6.159  16.087  1.8815  0.4536 -1.8300
  543TIP3    H223045   6.433   6.213  16.171 -0.5795  0.8424  1.4820
  544TIP3   OH223046   3.733   1.875  15.807  0.3073  0.3327  0.4028
  544TIP3    H123047   3.821   1.837  15.812  0.7601  1.4039  0.9353
  544TIP3    H223048   3.682   1.823  15.869  0.3292 -0.8551 -0.5408
  545TIP3   OH223049   4.910   2.625   3.857 -0.7874 -0.4102 -0.1795
  545TIP3    H123050   4.962   2.615   3.936  0.7358  0.5624 -1.0115
  545TIP3    H223051   4.921   2.542   3.810  0.6205  0.0286 -0.6689
  546TIP3   OH223052   0.844   1.645   0.645  0.6703 -0.5806 -0.1709
  546TIP3    H123053   0.768   1.624   0.699  0.9145  0.2931  0.5403
  546TIP3    H223054   0.817   1.622   0.556 -0.7192  0.4017 -0.0453
  547TIP3   OH223055   2.126   4.934   1.001 -0.0532  0.0635  0.0154
  547TIP3    H123056   2.133   4.851   1.048  0.7060 -0.4194 -0.9132
  547TIP3    H223057   2.184   4.993   1.048  0.0771 -0.1845  0.1678
  548TIP3   OH223058   1.543   4.732   2.763 -0.1892  0.2825 -0.7873
  548TIP3    H123059   1.584   4.729   2.850  0.6071  2.1137 -1.0483
  548TIP3    H223060   1.505   4.645   2.752  0.3830 -0.2638  1.0554
  549TIP3   OH223061   0.251   2.767  11.471 -0.2211  0.1155 -0.1384
  549TIP3    H123062   0.208   2.836  11.421 -0.8691  1.2756  1.9204
  549TIP3    H223063   0.201   2.688  11.450 -1.2767  0.8216 -0.3490
  550TIP3   OH223064   2.730   3.154  13.254 -0.4538  0.2452  0.2376
  550TIP3    H123065   2.814   3.139  13.211 -1.1300 -2.8909 -0.2204
  550TIP3    H223066   2.752   3.203  13.334  1.6937  0.0711 -0.1919
  551TIP3   OH223067   0.895   6.487   3.027  0.2909 -0.0923 -0.4134
  551TIP3    H123068   0.818   6.544   3.032  0.9286  0.8312 -0.7360
  551TIP3    H223069   0.867   6.416   2.969 -0.9235 -0.8039  0.9761
  552TIP3   OH223070   4.426   2.469  11.889 -0.7909  0.4585  0.1980
  552TIP3    H123071   4.472   2.415  11.824  0.3394 -1.2053  2.2482
  552TIP3    H223072   4.352   2.416  11.916 -1.2234  1.1120  0.3163
  553TIP3   OH223073   0.364   6.472   4.936  0.0815  0.2766  0.2480
  553TIP3    H123074   0.419   6.439   4.864 -0.3701 -1.3458  0.6099
  553TIP3    H223075   0.304   6.534   4.893 -1.4572 -2.0609 -1.2086
  554TIP3   OH223076   2.965   1.131   4.620 -0.6427  0.5895  0.1464
  554TIP3    H123077   3.013   1.079   4.555 -1.4122  0.1350 -0.0631
  554TIP3    H223078   3.025   1.203   4.641  0.8526 -0.8709  1.1726
  555TIP3   OH223079   2.977   4.290  13.888 -0.2750  0.3956  0.0567
  555TIP3    H123080   3.009   4.239  13.963 -2.4812 -0.0211  0.8055
  555TIP3    H223081   2.929   4.227  13.835  3.7198 -0.0662 -3.5611
  556TIP3   OH223082   5.340   5.761  12.528  0.4582  0.5979 -0.5144
  556TIP3    H123083   5.305   5.746  12.440 -0.4974  2.1457 -0.4439
  556TIP3    H223084   5.294   5.697  12.583 -0.6710  1.1352 -0.7969
  557TIP3   OH223085   2.438   5.382  10.748  0.0264  0.2005  0.0543
  557TIP3    H123086   2.355   5.348  10.781 -0.0176  0.8495  0.6307
  557TIP3    H223087   2.503   5.318  10.777 -0.2102 -0.0560  0.0232
  558TIP3   OH223088   1.030   2.110   1.086  0.7020  0.0420 -0.2152
  558TIP3    H123089   0.994   2.039   1.033 -0.4422  0.5486 -0.1318
  558TIP3    H223090   0.983   2.188   1.058  0.6598  0.4637  0.9556
  559TIP3   OH223091   1.918   2.184   6.269  0.5705 -0.5574 -0.2815
  559TIP3    H123092   1.892   2.214   6.182  1.4029  2.6020  0.4183
  559TIP3    H223093   1.851   2.221   6.327  1.0358 -1.0689  0.6012
  560TIP3   OH223094   1.795   0.172  16.302 -0.2224 -0.2481  0.1933
  560TIP3    H123095   1.706   0.176  16.267  0.1330  1.3988 -0.6561
  560TIP3    H223096   1.813   0.261  16.331  2.2528  0.3716 -2.6814
  561TIP3   OH223097   1.777   1.614  13.433 -0.3276  0.4563 -0.5112
  561TIP3    H123098   1.778   1.688  13.372  1.5301 -0.8369 -2.1871
  561TIP3    H223099   1.854   1.563  13.409 -0.2277 -0.7965  2.1555
  562TIP3   OH223100   5.178   2.624   5.094  0.0896 -0.3870  0.1359
  562TIP3    H123101   5.221   2.538   5.088  1.0861  0.0684  0.5803
  562TIP3    H223102   5.085   2.605   5.081  0.3995 -1.4144 -0.7628
  563TIP3   OH223103   0.198   3.671   6.386  0.2590 -0.0268  0.2542
  563TIP3    H123104   0.136   3.695   6.316  1.5234 -0.2426 -0.9904
  563TIP3    H223105   0.187   3.739   6.452 -2.5887 -1.0204  0.9661
  564TIP3   OH223106   5.219   3.055  10.680 -0.2831 -0.2135 -0.5570
  564TIP3    H123107   5.300   3.041  10.728 -1.1314  0.6430  1.2195
  564TIP3    H223108   5.244   3.048  10.588  1.8464  0.2626 -0.0709
  565TIP3   OH223109   3.009   2.628  12.942  0.1141 -0.1453 -0.4218
  565TIP3    H123110   2.962   2.691  12.888  0.1332  1.2540  1.1298
  565TIP3    H223111   2.956   2.548  12.936 -1.8688  1.0291  0.3220
  566TIP3   OH223112   0.218   6.144  10.834 -0.1372  0.2872  0.7341
  566TIP3    H123113   0.263   6.228  10.823 -1.8264  1.2410  0.8559
  566TIP3    H223114   0.245   6.093  10.758 -0.1248  1.4238 -0.0495
  567TIP3   OH223115   4.285   5.989  12.893 -0.2961 -0.0248  0.3052
  567TIP3    H123116   4.205   6.041  12.885  0.0652  0.3980 -0.8302
  567TIP3    H223117   4.262   5.917  12.952 -1.7779 -0.4164 -0.7058
  568TIP3   OH223118   4.130   6.497  14.188 -0.1004  0.1381  0.6762
  568TIP3    H123119   4.164   6.573  14.140  0.2747  1.2683  2.6394
  568TIP3    H223120   4.207   6.441  14.201 -0.1746 -0.1005  0.1468
  569TIP3   OH223121   5.294   0.016   5.626  0.4544 -0.6439  0.3454
  569TIP3    H123122   5.310   0.017   5.531  0.1791 -0.9005  0.2936
  569TIP3    H223123   5.238   0.092   5.641  1.3544  0.0178  0.4674
  570TIP3   OH223124   0.810   2.054   6.213  0.4439 -0.4212 -0.0838
  570TIP3    H123125   0.903   2.034   6.228  0.3078 -0.2034  1.1161
  570TIP3    H223126   0.775   2.074   6.299 -1.2369 -2.5218 -0.2008
  571TIP3   OH223127   4.173   2.934  11.911  0.0997 -0.3004  0.0163
  571TIP3    H123128   4.116   3.004  11.881 -0.5599 -0.2868  1.2524
  571TIP3    H223129   4.259   2.955  11.874 -0.5580 -0.0294 -1.4055
  572TIP3   OH223130   0.232   1.231  16.028 -0.5963  0.4244 -0.0432
  572TIP3    H123131   0.300   1.281  16.073 -1.0808 -0.1227  1.3760
  572TIP3    H223132   0.171   1.205  16.098  0.3389 -3.3291 -0.3800
  573TIP3   OH223133   2.835   2.625   0.911 -0.3956  0.4221  0.0142
  573TIP3    H123134   2.871   2.565   0.976  1.3633  2.7653  1.3443
  573TIP3    H223135   2.912   2.658   0.863 -1.4907  0.1422 -2.0593
  574TIP3   OH223136   4.171   6.804  15.539  0.0594 -0.4586 -0.2199
  574TIP3    H123137   4.264   6.781  15.537 -0.2533 -1.7559 -1.5784
  574TIP3    H223138   4.131   6.746  15.475 -1.8995 -0.8237  1.2636
  575TIP3   OH223139   4.875   0.605   2.431  0.0191 -0.1963 -0.2360
  575TIP3    H123140   4.966   0.606   2.460 -0.2551  0.3086  0.6639
  575TIP3    H223141   4.879   0.578   2.340  1.0937  0.1268 -0.2992
  576TIP3   OH223142   4.717   2.464  12.932 -0.5838 -0.4345  0.0380
  576TIP3    H123143   4.742   2.493  12.844 -0.4746 -0.0589  0.1909
  576TIP3    H223144   4.637   2.414  12.919  0.2528 -1.7139 -0.4792
  577TIP3   OH223145   0.201   6.546   4.497  0.0673 -0.0161  0.0320
  577TIP3    H123146   0.233   6.636   4.508 -1.7956  0.8242 -0.9957
  577TIP3    H223147   0.266   6.504   4.441  0.6493  0.8724  0.0157
  578TIP3   OH223148   4.167   1.903   0.907  0.6535  0.1400  0.2455
  578TIP3    H123149   4.258   1.930   0.892  0.9225  0.5388  2.3159
  578TIP3    H223150   4.172   1.842   0.981 -0.7832  0.3236  0.5203
  579TIP3   OH223151   1.877   3.071  16.065 -0.3196  0.2431 -0.5742
  579TIP3    H123152   1.845   3.158  16.090  1.7137  0.7687  0.3785
  579TIP3    H223153   1.911   3.082  15.977  1.9355  1.0383  0.3265
  580TIP3   OH223154   3.905   1.588  11.743 -0.3544 -0.5408  0.2709
  580TIP3    H123155   3.880   1.509  11.791  0.2252 -2.4625 -2.3640
  580TIP3    H223156   4.000   1.585  11.738 -0.1590  1.3819  1.6896
  581TIP3   OH223157   1.082   0.449   4.516 -0.0207  0.0969 -0.0930
  581TIP3    H123158   1.050   0.372   4.468  2.4138 -0.3276 -1.1910
  581TIP3    H223159   1.171   0.460   4.485  0.7264  1.5281  2.3596
  582TIP3   OH223160   1.454   5.856   5.541  0.5623 -0.5011  0.2537
  582TIP3    H123161   1.436   5.949   5.529  0.7515 -0.4149  0.6139
  582TIP3    H223162   1.406   5.812   5.470 -0.5431 -0.2343  0.8178
  583TIP3   OH223163   1.045   2.070   3.530  0.5331  0.2192  0.5106
  583TIP3    H123164   0.965   2.043   3.485  0.2058  2.1514 -0.1701
  583TIP3    H223165   1.015   2.101   3.615  0.2857  2.3374 -0.2831
  584TIP3   OH223166   0.148   4.855  13.448  0.7139 -0.3095  0.2361
  584TIP3    H123167   0.183   4.830  13.533  0.3464  0.2668  0.5596
  584TIP3    H223168   0.082   4.921  13.467  0.4911 -0.3144 -0.4817
  585TIP3   OH223169   2.615   1.941   1.013  0.0782  0.5070  0.7340
  585TIP3    H123170   2.647   1.851   1.016 -1.3864 -0.0759 -0.0366
  585TIP3    H223171   2.599   1.963   1.105  1.4610  0.3736  1.0162
  586TIP3   OH223172   3.500   3.159  12.033  0.0316 -0.1894  0.4573
  586TIP3    H123173   3.428   3.130  11.978  0.2782  0.0695 -0.0039
  586TIP3    H223174   3.480   3.250  12.053 -0.4418 -0.4942  1.4197
  587TIP3   OH223175   1.903   1.802   2.265  0.5527 -0.3072  0.1359
  587TIP3    H123176   1.962   1.737   2.302  0.4394 -0.8804 -0.6806
  587TIP3    H223177   1.838   1.817   2.333 -0.6102 -2.5593 -0.3914
  588TIP3   OH223178   4.830   4.799  13.080 -0.0611  0.5797  0.1831
  588TIP3    H123179   4.752   4.781  13.132 -0.5471  0.1334 -0.6861
  588TIP3    H223180   4.890   4.843  13.141 -0.4798 -0.2443  1.2043
  589TIP3   OH223181   5.648   0.494  10.995 -0.4027  0.3097  0.4642
  589TIP3    H123182   5.717   0.489  11.062  0.3928 -2.0014 -0.4447
  589TIP3    H223183   5.569   0.465  11.039 -0.0586 -0.3800  0.6383
  590TIP3   OH223184   5.429   2.070  11.697  0.2348  0.3608 -0.3639
  590TIP3    H123185   5.444   2.042  11.787 -0.3263  1.0338 -0.0588
  590TIP3    H223186   5.441   2.165  11.698  0.9226  0.2954 -1.1494
  591TIP3   OH223187   1.746   3.923  14.944  0.0704  0.0067  0.0298
  591TIP3    H123188   1.703   3.979  15.009 -0.6801  2.1043 -2.1108
  591TIP3    H223189   1.831   3.902  14.983  0.1144  2.1298  1.2382
  592TIP3   OH223190   5.518   4.320   1.692  0.6731  0.1520 -0.1721
  592TIP3    H123191   5.468   4.294   1.768  1.0693  1.5531  0.6126
  592TIP3    H223192   5.462   4.383   1.646  1.0695  0.5330 -0.1446
  593TIP3   OH223193   2.823   1.411  16.013 -0.4147  0.1045 -0.3973
  593TIP3    H123194   2.834   1.505  15.998  0.0174  0.0262 -0.5847
  593TIP3    H223195   2.911   1.378  16.027 -0.7189  0.0149  1.5369
  594TIP3   OH223196   2.572   2.982  13.450  0.1031 -0.1511 -0.5135
  594TIP3    H123197   2.593   3.012  13.361 -0.8068  3.5628  0.3433
  594TIP3    H223198   2.480   2.957  13.445 -0.2118  0.9291 -0.4927
  595TIP3   OH223199   6.481   5.864  12.547 -0.2826 -0.3425 -0.1773
  595TIP3    H123200   6.484   5.902  12.635  1.8421 -1.2615  0.2084
  595TIP3    H223201   6.561   5.813  12.540 -0.9987 -1.3026 -2.2252
  596TIP3   OH223202   2.922   6.254  15.319 -0.2792  0.1416 -0.5639
  596TIP3    H123203   2.990   6.209  15.369 -0.9924 -0.9537 -0.5286
  596TIP3    H223204   2.892   6.325  15.376  0.8924  0.7031 -0.6294
  597TIP3   OH223205   1.279   4.028   5.328 -0.1295 -0.3002 -0.0700
  597TIP3    H123206   1.363   4.021   5.282 -1.0666 -0.8382 -1.8041
  597TIP3    H223207   1.222   4.074   5.267 -1.1966 -0.2332  0.9354
  598TIP3   OH223208   3.204   1.578   0.578  0.3199  0.6304 -0.7784
  598TIP3    H123209   3.262   1.511   0.543  0.3988  0.6126 -0.6128
  598TIP3    H223210   3.262   1.636   0.627  0.0122 -0.1227  0.4995
  599TIP3   OH223211   0.708   2.493  13.199 -0.0682 -0.0446  0.2957
  599TIP3    H123212   0.650   2.542  13.141  0.4035  1.5287  1.1040
  599TIP3    H223213   0.789   2.484  13.148  0.1030  0.7040  0.4259
  600TIP3   OH223214   4.176   0.158   5.097  0.2524 -0.0964 -0.0093
  600TIP3    H123215   4.092   0.129   5.131  0.1639  0.6943  0.4504
  600TIP3    H223216   4.216   0.207   5.169  1.2298 -0.6910 -0.1213
  601TIP3   OH223217   5.582   2.159   1.856  0.3252 -0.2293  0.2091
  601TIP3    H123218   5.565   2.109   1.776  0.8502 -1.4376  0.8092
  601TIP3    H223219   5.514   2.225   1.859  1.1363  0.7810 -1.9679
  602TIP3   OH223220   3.505   0.144  16.517 -0.4269  0.7603 -0.1248
  602TIP3    H123221   3.437   0.188  16.466 -0.7226  1.0802  0.5209
  602TIP3    H223222   3.554   0.216  16.557 -1.1236  0.5250  1.2207
  603TIP3   OH223223   6.429   1.779  14.266 -0.6075  0.0147 -0.1971
  603TIP3    H123224   6.500   1.726  14.303 -1.3117 -0.2257  0.8689
  603TIP3    H223225   6.422   1.854  14.325 -0.9657  0.2495 -0.5332
  604TIP3   OH223226   4.518   5.913  14.153 -0.3874  0.0051  0.4211
  604TIP3    H123227   4.564   5.836  14.120  1.9266  1.7761 -0.7781
  604TIP3    H223228   4.562   5.935  14.235 -0.2600  0.6877  0.1815
  605TIP3   OH223229   1.265   0.169   5.326 -0.0756  0.4772  0.1132
  605TIP3    H123230   1.215   0.180   5.245 -0.3801  0.1155  0.2486
  605TIP3    H223231   1.208   0.116   5.382  0.4651  0.0441  0.2593
  606TIP3   OH223232   5.512   1.932  10.919 -0.6093  0.3061  0.4432
  606TIP3    H123233   5.523   1.976  10.834 -1.5303 -0.1900  0.0516
  606TIP3    H223234   5.515   2.003  10.983  3.7251  0.4217  0.4101
  607TIP3   OH223235   0.651   5.091  13.895 -0.0494 -0.1668 -0.1068
  607TIP3    H123236   0.605   5.164  13.937  1.1932 -0.4183  1.8444
  607TIP3    H223237   0.722   5.132  13.846  0.1202  0.0014  0.2741
  608TIP3   OH223238   4.053   5.317  10.381  0.3313  0.3947  0.3126
  608TIP3    H123239   3.958   5.334  10.384  0.1588 -0.7057  2.0568
  608TIP3    H223240   4.093   5.400  10.407 -0.1677  0.6659  0.2373
  609TIP3   OH223241   1.459   4.867   4.433  0.2865 -0.8647 -0.4589
  609TIP3    H123242   1.416   4.949   4.459 -0.8099 -1.9372  1.2752
  609TIP3    H223243   1.548   4.875   4.469  0.0080 -0.6678  0.1914
  610TIP3   OH223244   2.588   3.715   5.179 -0.2322  0.4735 -0.2448
  610TIP3    H123245   2.549   3.633   5.151 -0.2564  0.7387 -1.0035
  610TIP3    H223246   2.626   3.753   5.100  2.4802 -0.2485  0.6140
  611TIP3   OH223247   6.681   0.379   1.633 -0.2276 -0.0973  0.8850
  611TIP3    H123248   6.740   0.346   1.701  1.5010  0.2106 -0.4032
  611TIP3    H223249   6.705   0.331   1.554 -0.6874  1.0836 -0.0028
  612TIP3   OH223250   1.417   3.235  16.738 -0.1745 -0.2296  0.0729
  612TIP3    H123251   1.457   3.259  16.822  1.4313 -1.1965 -0.3710
  612TIP3    H223252   1.426   3.314  16.685  1.0710 -0.3586  0.0427
  613TIP3   OH223253   0.766   0.380  12.785 -0.1450  0.1167  0.3583
  613TIP3    H123254   0.791   0.397  12.694 -1.1224  0.1104  0.0836
  613TIP3    H223255   0.736   0.289  12.785  1.4706 -0.4676  1.0583
  614TIP3   OH223256   6.610   5.138  13.973  0.1961  0.2279 -0.0830
  614TIP3    H123257   6.624   5.163  14.064  1.2352 -0.7797  0.0506
  614TIP3    H223258   6.619   5.220  13.924  0.2103  0.6767  0.6582
  615TIP3   OH223259   1.351   4.952  16.051  0.0510 -0.2759 -0.3555
  615TIP3    H123260   1.311   5.003  16.122 -1.5966 -0.8230 -0.8293
  615TIP3    H223261   1.413   4.895  16.095  1.2538  1.4486  0.2920
  616TIP3   OH223262   3.503   1.963  13.562  0.5200 -0.6221 -0.5455
  616TIP3    H123263   3.552   1.944  13.642 -0.6670 -2.7645 -0.2549
  616TIP3    H223264   3.416   1.987  13.593  0.0441 -1.4933 -1.1627
  617TIP3   OH223265   4.664   5.195   0.342 -0.1248 -0.0303 -0.3838
  617TIP3    H123266   4.659   5.137   0.267 -2.5652  0.7982 -0.9507
  617TIP3    H223267   4.702   5.276   0.307  0.0682 -0.1231 -0.3895
  618TIP3   OH223268   1.447   5.562   4.820 -0.0063 -0.4195  0.0439
  618TIP3    H123269   1.480   5.478   4.788 -1.6195 -1.4827  0.9798
  618TIP3    H223270   1.522   5.621   4.816  1.2816 -2.0034 -0.2915
  619TIP3   OH223271   6.248   5.869  11.596 -0.0618 -0.3941  0.1655
  619TIP3    H123272   6.231   5.788  11.549 -1.4127  0.5958 -1.1557
  619TIP3    H223273   6.214   5.854  11.684 -1.4807 -0.8514 -0.4302
  620TIP3   OH223274   0.003   2.598  10.548  0.2861  0.2193 -0.8220
  620TIP3    H123275  -0.070   2.540  10.527 -0.2738  1.1628 -1.5223
  620TIP3    H223276  -0.021   2.683  10.512  1.2263  0.8376 -0.0711
  621TIP3   OH223277   1.871   2.978  12.010 -0.7730 -0.1609  0.0177
  621TIP3    H123278   1.817   2.996  12.087 -0.2406  0.1453  0.3247
  621TIP3    H223279   1.809   2.946  11.944 -1.3238  0.1457  0.3772
  622TIP3   OH223280   1.286   3.713   5.218  0.2969  0.1685 -0.6562
  622TIP3    H123281   1.191   3.714   5.201  0.3481  0.6344 -0.9345
  622TIP3    H223282   1.295   3.754   5.303  0.3599  1.4932 -1.2759
  623TIP3   OH223283   5.856   4.591  16.594 -0.3243 -0.5411 -0.3753
  623TIP3    H123284   5.814   4.507  16.579 -0.4353 -0.8475  1.4137
  623TIP3    H223285   5.828   4.617  16.681  1.3102  0.3764 -0.0719
  624TIP3   OH223286   0.631   5.774  15.358  0.1876 -0.4249 -0.0320
  624TIP3    H123287   0.572   5.701  15.343  0.6265 -0.5002 -1.4905
  624TIP3    H223288   0.631   5.786  15.453 -2.5788 -0.0806  0.0103
  625TIP3   OH223289   6.794   1.183   0.620  0.1251  0.3663 -0.1155
  625TIP3    H123290   6.769   1.177   0.713  0.0450  2.6587  0.0592
  625TIP3    H223291   6.888   1.204   0.622  0.4880 -1.0891 -0.6231
  626TIP3   OH223292   0.907   5.582  14.195  0.3465 -0.6990  0.4719
  626TIP3    H123293   0.845   5.645  14.158 -0.4349 -0.6183  1.8734
  626TIP3    H223294   0.854   5.504  14.214  0.7293 -0.7527  1.3871
  627TIP3   OH223295   2.294   0.000   4.938  0.0201 -0.2590  0.2481
  627TIP3    H123296   2.372   0.021   4.990  1.1702 -1.0893 -1.0887
  627TIP3    H223297   2.223   0.048   4.982  1.1935  0.2192  1.7196
  628TIP3   OH223298   6.542   5.717   2.769  0.2934  0.5641 -0.3802
  628TIP3    H123299   6.610   5.655   2.795 -1.5677 -1.1796  0.5358
  628TIP3    H223300   6.529   5.773   2.846  0.9750  1.2184 -0.7214
  629TIP3   OH223301   3.646   5.853  11.339 -0.6325  0.9568 -0.0431
  629TIP3    H123302   3.670   5.908  11.413  1.4283 -0.2590  0.2497
  629TIP3    H223303   3.551   5.865  11.331 -0.8145  1.6536  2.3251
  630TIP3   OH223304   0.300   5.351  14.828  0.4143  0.0835  0.1547
  630TIP3    H123305   0.385   5.311  14.846  0.4724  0.1354 -0.0025
  630TIP3    H223306   0.246   5.278  14.797  0.1817 -0.0923  0.9552
  631TIP3   OH223307   5.069   3.284  13.929  0.4028  0.3094  0.2870
  631TIP3    H123308   5.125   3.334  13.870 -0.2417  0.7892  0.0668
  631TIP3    H223309   5.025   3.220  13.873  1.4191 -0.7138  0.6061
  632TIP3   OH223310   1.293   0.552  11.696 -0.8825  0.3065 -0.0061
  632TIP3    H123311   1.211   0.584  11.734 -1.0389  0.3428 -0.3676
  632TIP3    H223312   1.361   0.605  11.737 -0.8883 -0.7994  1.4864
  633TIP3   OH223313   6.087   6.092  11.316  0.2389  0.2299 -0.4730
  633TIP3    H123314   6.082   6.146  11.395 -2.9239  0.4948 -0.7223
  633TIP3    H223315   6.112   6.153  11.246 -1.3533  1.0103 -0.4019
  634TIP3   OH223316   4.708   5.684  14.175  0.7021  1.0072  0.3864
  634TIP3    H123317   4.689   5.597  14.139 -0.6911  1.0501  0.9248
  634TIP3    H223318   4.782   5.670  14.234  2.3329  0.7472 -1.6379
  635TIP3   OH223319   0.310   3.472   0.263 -0.2066 -1.3236 -0.0608
  635TIP3    H123320   0.394   3.505   0.294  0.2040 -0.5749 -1.8076
  635TIP3    H223321   0.253   3.474   0.339  0.2173  2.0949  0.3219
  636TIP3   OH223322   2.137   0.282   5.251  0.0680  0.4698 -0.0232
  636TIP3    H123323   2.106   0.215   5.311 -0.3805  0.6672 -0.0348
  636TIP3    H223324   2.068   0.290   5.185  0.3094  0.6422 -0.2578
  637TIP3   OH223325   4.582   6.621   4.939  0.1022  0.2320 -0.1251
  637TIP3    H123326   4.606   6.555   5.004  1.3081 -0.3671 -1.1139
  637TIP3    H223327   4.560   6.698   4.990  1.7376  0.0161  1.0028
  638TIP3   OH223328   2.699   2.259   0.932 -0.0382 -0.0095  0.2679
  638TIP3    H123329   2.640   2.273   0.858  0.6650  2.9189  0.1374
  638TIP3    H223330   2.642   2.249   1.008 -0.7583  1.8399  0.0075
  639TIP3   OH223331   2.698   2.460   2.612 -0.1142 -0.4351  0.3581
  639TIP3    H123332   2.780   2.446   2.564  1.3069 -0.7030  2.6852
  639TIP3    H223333   2.635   2.401   2.570  0.5282  0.5351 -2.1586
  640TIP3   OH223334   5.350   4.227  11.641 -0.3740 -0.2456  0.3815
  640TIP3    H123335   5.312   4.297  11.588 -0.0491  0.8395  1.5495
  640TIP3    H223336   5.333   4.147  11.590 -4.6134  0.0445  0.9724
  641TIP3   OH223337   1.142   4.186  14.749 -0.4433 -0.3940 -0.2786
  641TIP3    H123338   1.184   4.100  14.746 -1.1088 -0.7298  0.0264
  641TIP3    H223339   1.053   4.171  14.720 -0.9308 -0.0398  0.9640
  642TIP3   OH223340   5.174   1.879   3.076  0.1699  0.1045  0.2764
  642TIP3    H123341   5.214   1.866   2.990  1.3310  0.2911  0.7640
  642TIP3    H223342   5.225   1.950   3.115 -1.9175  1.7495  0.1777
  643TIP3   OH223343   0.360   6.061  13.291  0.8414 -0.2233  0.2540
  643TIP3    H123344   0.321   6.122  13.353  1.1087  0.4385 -0.2154
  643TIP3    H223345   0.408   6.117  13.230  1.1515 -0.9108 -0.1411
  644TIP3   OH223346   3.891   0.757   2.398  0.1407  0.8395 -0.2861
  644TIP3    H123347   3.975   0.748   2.353 -0.2150 -1.0240 -0.6641
  644TIP3    H223348   3.834   0.798   2.333  0.0683 -0.3535 -1.0193
  645TIP3   OH223349   4.634   6.032   0.561 -0.1665  0.1227 -0.0730
  645TIP3    H123350   4.686   5.994   0.490 -2.2168  1.2268 -2.3242
  645TIP3    H223351   4.689   6.023   0.638  2.7976  0.0727 -2.0093
  646TIP3   OH223352   3.578   5.021   3.124  0.4571 -0.4698  0.1303
  646TIP3    H123353   3.502   4.997   3.177 -1.0039  1.0744 -1.1505
  646TIP3    H223354   3.644   4.954   3.143 -1.3786 -2.1091  0.9485
  647TIP3   OH223355   4.844   1.297   0.660  0.3779 -0.5616  0.2437
  647TIP3    H123356   4.757   1.312   0.625  0.6384 -0.8466 -0.5410
  647TIP3    H223357   4.856   1.367   0.724 -0.2226 -0.2082 -0.0213
  648TIP3   OH223358   1.056   0.143  13.843  0.4342  0.4099 -0.5323
  648TIP3    H123359   1.083   0.164  13.932 -1.1431  1.3024 -0.2397
  648TIP3    H223360   1.118   0.076  13.814 -0.3622 -1.5675  2.0301
  649TIP3   OH223361   0.692   2.928  16.759 -0.4810  0.5375  0.3837
  649TIP3    H123362   0.739   2.997  16.712 -0.8931  0.1273 -0.6683
  649TIP3    H223363   0.750   2.851  16.752 -0.7459  0.3580  0.1588
  650TIP3   OH223364   5.974   1.806  11.829 -0.1756 -0.4632 -0.1058
  650TIP3    H123365   5.988   1.712  11.813  1.0110  0.0788 -2.6750
  650TIP3    H223366   6.022   1.824  11.909  2.7558 -1.3889 -1.5201
  651TIP3   OH223367   6.162   5.319   3.938 -0.0874  0.9927 -0.7469
  651TIP3    H123368   6.121   5.313   3.852  0.6409 -0.0524 -1.0330
  651TIP3    H223369   6.218   5.241   3.944  0.3593  1.3810  0.4125
  652TIP3   OH223370   2.391   6.321  11.608 -0.0277 -0.4485  0.1407
  652TIP3    H123371   2.440   6.364  11.538 -1.5722  2.5167  0.7230
  652TIP3    H223372   2.301   6.317  11.575 -0.9994  1.9704  2.2348
  653TIP3   OH223373   6.444   4.959   0.640  0.2165  0.0666 -0.5045
  653TIP3    H123374   6.421   5.038   0.592 -1.1764 -1.4296 -2.4344
  653TIP3    H223375   6.376   4.952   0.707 -0.7454 -0.4373 -1.5068
  654TIP3   OH223376   5.486   4.613  12.017 -0.2725 -0.1937  0.0961
  654TIP3    H123377   5.514   4.572  12.099 -0.4215  0.0473  0.2648
  654TIP3    H223378   5.472   4.539  11.958 -0.4567 -0.3878  0.3766
  655TIP3   OH223379   2.722   6.787  12.993  0.0481  0.0051  0.2338
  655TIP3    H123380   2.746   6.722  13.060  0.0680 -1.3436 -1.0169
  655TIP3    H223381   2.633   6.764  12.969 -0.1854  0.8848  0.2441
  656TIP3   OH223382   0.271   5.288  10.974 -0.0585  0.6658 -0.2737
  656TIP3    H123383   0.300   5.379  10.979 -2.3970  1.4050  2.2925
  656TIP3    H223384   0.177   5.293  10.954 -0.2534 -1.1802 -0.0414
  657TIP3   OH223385   3.968   3.554  12.889 -0.4714  0.0472  0.1714
  657TIP3    H123386   3.995   3.478  12.838 -0.7057  0.2549 -0.2625
  657TIP3    H223387   3.948   3.621  12.824 -4.1237 -0.7480  0.2708
  658TIP3   OH223388   4.926   2.532   5.011  0.4251  0.2656  0.4169
  658TIP3    H123389   4.884   2.615   5.033  0.8923  0.1572  1.7940
  658TIP3    H223390   4.854   2.468   5.012  0.5014  0.1701  2.2496
  659TIP3   OH223391   2.710   1.284   0.080  0.5442  0.1346 -0.4127
  659TIP3    H123392   2.734   1.300   0.172 -3.0465  1.2906  0.4652
  659TIP3    H223393   2.694   1.190   0.077  2.4429 -0.2360 -0.4091
  660TIP3   OH223394   6.127   1.519  15.784 -0.3436  0.6764  0.1775
  660TIP3    H123395   6.049   1.564  15.818 -0.3339  0.7749  0.0688
  660TIP3    H223396   6.118   1.523  15.689  0.1696  1.3535  0.1534
  661TIP3   OH223397   4.860   1.707   2.039 -0.0614 -0.6670 -0.0642
  661TIP3    H123398   4.804   1.678   2.112 -2.0040 -0.1818 -1.2783
  661TIP3    H223399   4.873   1.628   1.986 -0.8744 -0.4951 -0.5474
  662TIP3   OH223400   2.494   2.155   0.442 -0.2860 -0.5000  0.5016
  662TIP3    H123401   2.507   2.249   0.430 -0.0833 -0.3443  1.8281
  662TIP3    H223402   2.442   2.128   0.366 -1.1046  0.8466  0.5606
  663TIP3   OH223403   3.559   0.950  14.495 -0.1490 -0.3959  0.0822
  663TIP3    H123404   3.586   1.020  14.553  1.2953  0.4673 -1.5378
  663TIP3    H223405   3.472   0.924  14.527  0.7279 -0.2753  2.8127
  664TIP3   OH223406   2.335   0.388  10.395  0.3909 -0.4116 -0.1526
  664TIP3    H123407   2.253   0.426  10.364  0.3488 -0.2111  0.1963
  664TIP3    H223408   2.333   0.298  10.364 -0.4570 -0.7280  0.7372
  665TIP3   OH223409   5.337   0.449  13.711  0.1472 -0.1592 -0.0491
  665TIP3    H123410   5.405   0.460  13.645 -0.3820 -2.2882 -1.0442
  665TIP3    H223411   5.382   0.413  13.787  0.5551  1.1156  0.3354
  666TIP3   OH223412   4.728   2.993  16.228  0.4650  0.1097 -0.0883
  666TIP3    H123413   4.718   2.952  16.314  1.7484 -0.3154 -0.1322
  666TIP3    H223414   4.732   3.087  16.246  0.0543  0.0679  0.2399
  667TIP3   OH223415   0.223   6.679  13.029 -0.8421 -0.0975  0.2683
  667TIP3    H123416   0.264   6.665  13.114 -0.7207  2.7613  0.7787
  667TIP3    H223417   0.130   6.691  13.048 -0.7122  1.2540  0.1119
  668TIP3   OH223418   1.843   3.213   2.383 -0.0994 -0.2261 -0.4475
  668TIP3    H123419   1.784   3.177   2.317  2.1474 -1.2108 -2.0403
  668TIP3    H223420   1.852   3.144   2.448 -0.0560 -0.4209 -0.6578
  669TIP3   OH223421   6.066   4.443  11.221  0.0321  0.0846 -0.7776
  669TIP3    H123422   6.086   4.353  11.248 -0.2724  0.1825 -0.2061
  669TIP3    H223423   5.984   4.464  11.266  1.0662  1.2921  0.6524
  670TIP3   OH223424   1.067   5.164  12.802 -0.3889 -0.0357  0.0327
  670TIP3    H123425   1.159   5.139  12.803 -0.3033  0.2831 -0.0046
  670TIP3    H223426   1.022   5.086  12.767 -0.1616 -0.2722  0.2605
  671TIP3   OH223427   1.218   5.479   1.207  0.3777  0.3571 -0.4652
  671TIP3    H123428   1.273   5.420   1.156  1.2135  0.4057  0.3502
  671TIP3    H223429   1.274   5.507   1.280 -1.0234 -0.3135  0.9218
  672TIP3   OH223430   6.296   3.064  11.440  0.3204  0.5986 -0.1903
  672TIP3    H123431   6.328   3.133  11.498  0.1845  1.2420 -0.8736
  672TIP3    H223432   6.201   3.073  11.440  0.1074 -1.0788  1.5404
  673TIP3   OH223433   5.515   5.920  12.240 -0.3638 -0.2464 -0.7520
  673TIP3    H123434   5.565   5.969  12.305  0.1809 -1.4964 -0.2012
  673TIP3    H223435   5.435   5.972  12.227 -0.4070  0.1191  0.7873
  674TIP3   OH223436   1.714   5.651  13.983  0.3214  0.6142  0.2129
  674TIP3    H123437   1.697   5.705  14.061  0.0879  0.4831  0.2550
  674TIP3    H223438   1.646   5.584  13.986  1.8936 -1.0545  1.3901
  675TIP3   OH223439   1.119   3.363  14.971 -0.1875  0.2011 -0.5641
  675TIP3    H123440   1.127   3.451  15.007 -1.0740 -0.3126  1.0160
  675TIP3    H223441   1.026   3.355  14.946 -0.2418 -0.4323 -0.2039
  676TIP3   OH223442   0.781   4.548   2.869  0.1312  0.3438  0.0812
  676TIP3    H123443   0.737   4.628   2.840 -0.4740  0.3216  0.8908
  676TIP3    H223444   0.840   4.525   2.797  2.0905  2.8102  0.7580
  677TIP3   OH223445   3.888   2.719   3.692  0.0308  0.7129  0.1813
  677TIP3    H123446   3.978   2.738   3.667 -0.1168  0.6298 -0.4182
  677TIP3    H223447   3.883   2.745   3.784  0.6490  0.7682  0.2045
  678TIP3   OH223448   6.774   1.444  15.297  0.3185  0.0607  0.3562
  678TIP3    H123449   6.754   1.472  15.207  1.2857 -0.7326 -0.1348
  678TIP3    H223450   6.870   1.438  15.298  0.3308  0.3309  1.5369
  679TIP3   OH223451   6.586   5.669  15.760 -0.0238  0.3371 -1.0926
  679TIP3    H123452   6.515   5.707  15.812  0.1533 -0.1396 -0.4861
  679TIP3    H223453   6.648   5.635  15.825  2.0775  3.0481 -1.5244
  680TIP3   OH223454   5.553   4.443   0.228  0.4405 -0.1000 -0.1690
  680TIP3    H123455   5.603   4.387   0.168  1.7447  0.1850  0.6045
  680TIP3    H223456   5.478   4.390   0.252  0.1743 -0.4234 -1.6194
  681TIP3   OH223457   4.767   5.299  12.250 -0.5526  0.0888 -0.1996
  681TIP3    H123458   4.771   5.260  12.338 -1.6230 -0.6650 -0.4560
  681TIP3    H223459   4.678   5.279  12.220  0.2590 -0.9799 -2.0471
  682TIP3   OH223460   1.091   3.654   2.848  0.3703 -0.2368 -0.2994
  682TIP3    H123461   1.045   3.628   2.927 -0.4506 -0.8457 -0.9578
  682TIP3    H223462   1.022   3.680   2.787  1.0432  1.1547 -0.4947
  683TIP3   OH223463   6.520   3.486  10.982  0.1314  0.1823  0.2387
  683TIP3    H123464   6.507   3.549  10.912  1.5459  0.2468  0.0023
  683TIP3    H223465   6.459   3.512  11.051 -0.9307  0.4062 -0.7610
  684TIP3   OH223466   2.991   3.446   4.178 -0.2159 -0.4971  0.5460
  684TIP3    H123467   3.066   3.386   4.181  0.4081  0.3063  1.2685
  684TIP3    H223468   3.028   3.532   4.197 -1.0637  0.1772 -0.6768
  685TIP3   OH223469   5.586   4.830  15.574 -0.5783  0.0484  0.7952
  685TIP3    H123470   5.645   4.868  15.508  0.5683 -0.2697  1.6165
  685TIP3    H223471   5.521   4.783  15.522 -0.0983  0.3780 -0.1439
  686TIP3   OH223472   1.317   4.130  10.813  0.3419  0.5377 -0.0767
  686TIP3    H123473   1.298   4.063  10.747  0.2783 -0.3098  0.7893
  686TIP3    H223474   1.407   4.112  10.840  0.5971  1.2960 -0.3889
  687TIP3   OH223475   2.917   6.370   6.726  0.5187 -0.5145  0.1067
  687TIP3    H123476   2.844   6.424   6.757  0.0762 -1.2262  0.3336
  687TIP3    H223477   2.995   6.424   6.740  0.0337  0.2792 -0.1878
  688TIP3   OH223478   3.885   6.403  14.781  0.4281 -0.3986 -0.1682
  688TIP3    H123479   3.904   6.325  14.833  0.2974 -0.1844  0.2079
  688TIP3    H223480   3.954   6.465  14.804  0.4836 -0.3719 -0.4013
  689TIP3   OH223481   1.603   4.671  13.917 -0.0998  0.3729 -0.7357
  689TIP3    H123482   1.661   4.605  13.879 -0.0845 -0.8510  1.2717
  689TIP3    H223483   1.517   4.630  13.917 -0.1774  0.5261  0.0959
  690TIP3   OH223484   3.881   0.563   0.640  0.5998 -0.0745 -0.1077
  690TIP3    H123485   3.842   0.482   0.606  0.8169  0.1658 -0.9343
  690TIP3    H223486   3.806   0.613   0.672  0.6387 -1.6786  2.8646
  691TIP3   OH223487   4.479   2.396   3.518  0.0196 -0.0464  0.3837
  691TIP3    H123488   4.523   2.368   3.598  1.4243  0.8487 -0.0391
  691TIP3    H223489   4.547   2.390   3.450 -1.2708 -1.3234 -0.8846
  692TIP3   OH223490   4.812   3.076   4.959 -0.6621  0.4665 -0.0941
  692TIP3    H123491   4.789   3.117   4.876  0.0408  1.0509 -0.0105
  692TIP3    H223492   4.744   3.104   5.020 -0.3382  1.3046 -0.1045
  693TIP3   OH223493   2.188   5.123  16.483 -0.1306  0.1008  0.6117
  693TIP3    H123494   2.239   5.108  16.563 -0.6487  1.4748  1.2423
  693TIP3    H223495   2.117   5.180  16.511 -0.5044  0.3611 -0.7846
  694TIP3   OH223496   0.969   3.736  13.298 -0.6031  0.2326 -0.4826
  694TIP3    H123497   0.912   3.699  13.365  0.2693 -1.1641 -0.4795
  694TIP3    H223498   0.936   3.701  13.215  0.8701 -1.4939 -0.3895
  695TIP3   OH223499   3.628   2.870   2.779  0.1720 -0.2480 -0.3382
  695TIP3    H123500   3.541   2.869   2.740  0.8571 -0.5297 -1.9355
  695TIP3    H223501   3.617   2.918   2.861 -1.6254 -0.9276 -0.1345
  696TIP3   OH223502   2.102   4.027  14.507 -0.2333 -0.0074  0.1441
  696TIP3    H123503   2.024   4.010  14.455 -0.6836 -1.3170  1.1978
  696TIP3    H223504   2.174   3.996  14.452 -0.5522  0.1895 -0.3910
  697TIP3   OH223505   1.970   2.211  11.441  0.7981  0.2004 -0.0264
  697TIP3    H123506   1.923   2.268  11.380 -1.1511 -0.6764  0.5738
  697TIP3    H223507   1.924   2.128  11.437  2.6249 -0.8908  0.2702
  698TIP3   OH223508   6.451   0.487  15.636  0.2176  0.1240  0.6031
  698TIP3    H123509   6.444   0.535  15.553 -0.6970 -0.0065  0.6035
  698TIP3    H223510   6.489   0.403  15.611 -0.1171  0.0592  0.3016
  699TIP3   OH223511   1.049   3.919  12.532 -0.0246 -0.1228  0.5472
  699TIP3    H123512   0.965   3.893  12.496 -1.0001 -0.3951  2.8497
  699TIP3    H223513   1.052   4.014  12.522  0.1221 -0.2658 -0.9413
  700TIP3   OH223514   3.423   3.197  14.152  0.0079 -0.7752  0.3264
  700TIP3    H123515   3.391   3.135  14.087 -1.1932  0.2291 -0.0730
  700TIP3    H223516   3.480   3.256  14.103 -0.6002 -0.2459  0.2391
  701TIP3   OH223517   3.594   5.181  11.448 -0.7507  0.0511  0.5192
  701TIP3    H123518   3.641   5.228  11.518  1.2500 -1.0894  0.0308
  701TIP3    H223519   3.548   5.249  11.400  1.7381  1.5480  0.0690
  702TIP3   OH223520   6.595   0.854   6.088 -0.1523 -0.2220 -1.0263
  702TIP3    H123521   6.665   0.914   6.113  0.0074 -0.9266  0.2782
  702TIP3    H223522   6.628   0.767   6.109 -1.5412 -0.5400 -0.0427
  703TIP3   OH223523   1.258   2.878   2.795  0.4776 -0.6968 -0.0215
  703TIP3    H123524   1.276   2.846   2.706  1.2782 -3.1340  0.9138
  703TIP3    H223525   1.221   2.802   2.840 -1.5013  0.9750  1.3104
  704TIP3   OH223526   5.589   3.324  12.513 -0.5058 -0.0862 -0.0362
  704TIP3    H123527   5.586   3.418  12.532 -0.1377  0.4035 -2.0708
  704TIP3    H223528   5.681   3.307  12.492 -0.1842 -1.3573  2.1304
  705TIP3   OH223529   5.230   1.170  13.046  0.0660  0.4827 -0.0674
  705TIP3    H123530   5.282   1.246  13.068  0.3811  1.0827 -2.5438
  705TIP3    H223531   5.152   1.206  13.003 -1.1229 -0.5101  1.1767
  706TIP3   OH223532   2.711   5.491   4.643  0.2434 -0.0964 -0.1917
  706TIP3    H123533   2.727   5.527   4.555  1.2037 -0.8419 -0.3347
  706TIP3    H223534   2.797   5.464   4.674 -0.1720 -0.3549  0.7648
  707TIP3   OH223535   0.706   2.400  11.976 -0.3130 -0.3474 -0.1864
  707TIP3    H123536   0.692   2.440  11.890 -0.7319 -0.5701 -0.2257
  707TIP3    H223537   0.799   2.413  11.994 -0.1853 -0.4456 -0.7513
  708TIP3   OH223538   2.628   4.187  12.983 -0.8791  0.0563  0.0977
  708TIP3    H123539   2.650   4.277  12.958  0.6379 -0.7015 -1.5575
  708TIP3    H223540   2.542   4.172  12.945 -1.0789  0.7515  0.2588
  709TIP3   OH223541   6.095   2.245  11.729  0.0639  0.1109  0.8132
  709TIP3    H123542   6.045   2.281  11.802 -0.2306  0.2926  0.5236
  709TIP3    H223543   6.176   2.295  11.728 -0.0771  0.3379  0.8034
  710TIP3   OH223544   3.578   0.477   2.426  0.1514 -0.5273 -0.3212
  710TIP3    H123545   3.619   0.489   2.341  0.9893 -0.6775  0.0470
  710TIP3    H223546   3.646   0.500   2.489 -1.3627  2.5710  0.3456
  711TIP3   OH223547   4.152   0.607   5.390  0.4538 -0.3487  0.0516
  711TIP3    H123548   4.167   0.658   5.311 -0.2799  0.1847  0.2429
  711TIP3    H223549   4.102   0.531   5.361 -1.3320  0.7056  0.2210
  712TIP3   OH223550   1.219   6.491   2.432  0.4201 -0.0276 -0.6166
  712TIP3    H123551   1.252   6.405   2.457 -0.1933  0.4006  1.8915
  712TIP3    H223552   1.146   6.472   2.374 -0.8773 -1.3160  1.3243
  713TIP3   OH223553   1.927   2.032  13.352  0.0685  0.1482 -0.4104
  713TIP3    H123554   1.931   2.081  13.434  1.1285 -0.2318 -0.2214
  713TIP3    H223555   1.902   2.097  13.286 -0.6526  0.4817  0.1890
  714TIP3   OH223556   4.935   5.292   4.807 -0.2257 -0.3226  0.1778
  714TIP3    H123557   4.861   5.252   4.762  1.2457 -2.4568 -0.4714
  714TIP3    H223558   4.980   5.343   4.740 -0.6776  0.3958  0.4069
  715TIP3   OH223559   2.407   3.785  13.412  0.4302  0.0464 -0.0906
  715TIP3    H123560   2.467   3.858  13.429  0.8277 -0.4421  0.6396
  715TIP3    H223561   2.417   3.727  13.487  0.4017 -0.9650 -0.8476
  716TIP3   OH223562   5.488   1.345  11.450  0.7769  0.1834  0.2456
  716TIP3    H123563   5.410   1.397  11.433  0.9228  0.2482 -0.2464
  716TIP3    H223564   5.481   1.270  11.391  1.9550  1.1026 -1.1493
  717TIP3   OH223565   2.328   2.934   0.832  0.2648  0.1026 -0.0009
  717TIP3    H123566   2.358   2.861   0.886  0.0969  1.9939  2.8192
  717TIP3    H223567   2.234   2.939   0.848  0.1863  0.6422 -0.5821
  718TIP3   OH223568   4.671   1.315   4.150 -0.4910  0.1129  0.1691
  718TIP3    H123569   4.721   1.396   4.163  0.4537 -0.5886  1.0088
  718TIP3    H223570   4.709   1.253   4.211 -1.5232 -0.8464 -0.1312
  719TIP3   OH223571   2.901   6.583   3.046  0.2681  0.1670 -0.3473
  719TIP3    H123572   2.833   6.644   3.075 -1.6959 -2.5347  1.1399
  719TIP3    H223573   2.981   6.636   3.045 -1.0504  2.4663  2.1267
  720TIP3   OH223574   4.391   3.564  13.310 -0.0630  0.7383  0.0185
  720TIP3    H123575   4.418   3.541  13.399 -0.5816 -1.8428 -0.4264
  720TIP3    H223576   4.411   3.487  13.258 -1.0005  1.7035 -1.8637
  721TIP3   OH223577   3.530   0.442  16.985  0.5992  0.3321  0.7463
  721TIP3    H123578   3.584   0.511  17.022  0.1927  0.8038  0.4671
  721TIP3    H223579   3.530   0.373  17.052  1.8502  0.1598  0.5874
  722TIP3   OH223580   1.028   1.817  13.570 -0.1789 -0.1674  0.2296
  722TIP3    H123581   0.937   1.837  13.594 -0.8567  0.0847 -2.3138
  722TIP3    H223582   1.075   1.899  13.583 -0.7290  0.2265 -0.2524
  723TIP3   OH223583   0.907   0.507   5.714  0.1800  0.3470 -0.1280
  723TIP3    H123584   0.930   0.573   5.779  0.8840 -0.3727  0.3625
  723TIP3    H223585   0.835   0.458   5.754  0.3407  0.1641 -0.0630
  724TIP3   OH223586   4.068   5.652  12.705  0.5423  0.1918 -0.3418
  724TIP3    H123587   4.141   5.694  12.659  1.1330 -0.7789 -0.3273
  724TIP3    H223588   4.081   5.677  12.797 -0.0979  1.3593 -0.5502
  725TIP3   OH223589   1.335   5.784   2.554 -0.5958  0.2022 -0.3547
  725TIP3    H123590   1.322   5.863   2.606 -3.9185 -1.9700  2.5549
  725TIP3    H223591   1.405   5.737   2.600 -1.0394 -0.0940  0.0244
  726TIP3   OH223592   5.404   5.598   5.282 -0.0827 -0.1260 -0.5635
  726TIP3    H123593   5.373   5.650   5.356  2.0840  2.2384 -1.1778
  726TIP3    H223594   5.455   5.527   5.322 -1.8953 -1.0395  0.2470
  727TIP3   OH223595   4.208   0.901   4.185 -1.0053 -0.4999 -0.1354
  727TIP3    H123596   4.253   0.911   4.101 -1.1821 -0.1989 -0.1977
  727TIP3    H223597   4.195   0.991   4.216  0.6793 -0.6165  1.0836
  728TIP3   OH223598   3.483   1.570   0.967 -0.3550 -0.4166 -0.6294
  728TIP3    H123599   3.492   1.542   0.877 -0.6813 -1.4467 -0.3540
  728TIP3    H223600   3.471   1.665   0.962 -0.6764 -0.5095 -1.6824
  729TIP3   OH223601   5.959   6.468  15.747  0.1785  0.2667  0.1908
  729TIP3    H123602   6.009   6.453  15.827  1.9951 -1.0346 -1.1186
  729TIP3    H223603   5.984   6.557  15.720 -3.0370  2.1919  2.7093
  730TIP3   OH223604   5.452   1.520  11.678 -0.0021  0.2581  0.1999
  730TIP3    H123605   5.465   1.470  11.597 -2.8135  1.2455 -1.0084
  730TIP3    H223606   5.520   1.586  11.676  0.1653  0.0835 -1.2322
  731TIP3   OH223607   6.315   6.292   4.235  0.4608  0.3122  0.5674
  731TIP3    H123608   6.254   6.246   4.293  1.4843  0.0786  1.4956
  731TIP3    H223609   6.304   6.384   4.259 -0.6682  0.4516 -0.4009
  732TIP3   OH223610   5.374   5.367   0.169 -0.2174 -0.1274 -0.1025
  732TIP3    H123611   5.363   5.290   0.225 -0.6547  0.5909  0.8297
  732TIP3    H223612   5.298   5.421   0.189  0.3474  0.7779 -0.3830
  733TIP3   OH223613   3.972   0.898   2.830 -0.0677 -0.0395 -0.2195
  733TIP3    H123614   4.013   0.821   2.790  1.2222 -0.1559  1.2455
  733TIP3    H223615   3.979   0.965   2.762  1.1157 -0.5167 -0.6107
  734TIP3   OH223616   5.608   5.474  15.434  0.1636  0.3073 -0.0153
  734TIP3    H123617   5.605   5.382  15.410 -0.5303  0.1404  0.6827
  734TIP3    H223618   5.517   5.504  15.427  0.3250  0.8511  0.1063
  735TIP3   OH223619   4.353   5.625   1.712 -0.4402 -0.1558 -0.1641
  735TIP3    H123620   4.387   5.572   1.784 -0.5617 -0.0494 -0.0248
  735TIP3    H223621   4.317   5.703   1.756 -1.8686 -0.7733 -0.1973
  736TIP3   OH223622   2.914   4.496   5.165 -0.4146 -0.2459 -0.1564
  736TIP3    H123623   3.002   4.458   5.169 -0.5723 -0.7783 -1.2462
  736TIP3    H223624   2.909   4.553   5.241  1.2896  0.6654 -0.6695
  737TIP3   OH223625   6.080   0.646  13.027 -0.0842  0.3509  0.0545
  737TIP3    H123626   5.985   0.659  13.036  0.0001  0.6250  0.5722
  737TIP3    H223627   6.111   0.726  12.985 -0.3499 -0.5558 -1.9952
  738TIP3   OH223628   4.968   6.585   0.349 -0.4166 -0.3113 -0.1475
  738TIP3    H123629   4.944   6.497   0.322 -0.8900 -0.3943  0.5122
  738TIP3    H223630   5.061   6.592   0.328  0.1974 -1.7542  1.7432
  739TIP3   OH223631   3.769   2.083   3.209 -0.6096  0.0135  0.2172
  739TIP3    H123632   3.742   2.057   3.121 -2.5327  1.1898  0.4105
  739TIP3    H223633   3.698   2.056   3.266  0.8470 -1.2210  1.5565
  740TIP3   OH223634   0.242   4.747   0.272  0.0880  0.0994 -0.0358
  740TIP3    H123635   0.318   4.737   0.329 -0.8895 -0.7485  1.1743
  740TIP3    H223636   0.167   4.729   0.328 -0.9223 -0.8198 -1.6005
  741TIP3   OH223637   2.587   6.049  13.043 -0.4501  0.1227  0.3013
  741TIP3    H123638   2.630   6.134  13.032  3.2764 -1.4835  1.0355
  741TIP3    H223639   2.557   6.026  12.955  0.0860  1.4078 -0.2441
  742TIP3   OH223640   6.016   3.362   1.124  0.1410 -0.0042  0.0879
  742TIP3    H123641   6.089   3.318   1.080  0.7911  1.0446  0.1058
  742TIP3    H223642   5.940   3.307   1.104  0.9347 -1.1564  0.1357
  743TIP3   OH223643   4.746   3.087   5.721  0.0647  0.4602  0.1303
  743TIP3    H123644   4.789   3.027   5.782  0.9071 -1.3125 -2.0635
  743TIP3    H223645   4.715   3.159   5.776 -0.2651 -1.5610  2.7926
  744TIP3   OH223646   4.789   4.388   3.155  0.2957 -0.1486 -0.3894
  744TIP3    H123647   4.725   4.457   3.172  0.6959 -0.1239  1.2765
  744TIP3    H223648   4.862   4.433   3.113  0.8169  0.6306  1.2364
  745TIP3   OH223649   3.973   1.147  15.252 -0.0496 -0.0772  0.5767
  745TIP3    H123650   3.925   1.065  15.245  1.7056 -1.1128  0.1184
  745TIP3    H223651   3.909   1.214  15.229 -1.3853 -1.3552  0.4409
  746TIP3   OH223652   1.338   3.664  11.192 -0.1519  0.2459  0.1988
  746TIP3    H123653   1.250   3.627  11.195 -0.0860  0.1605  1.3884
  746TIP3    H223654   1.332   3.734  11.126 -1.1618  0.3913  0.4307
  747TIP3   OH223655   3.767   5.293  12.883  0.1350  0.5811  0.2564
  747TIP3    H123656   3.787   5.366  12.825  1.0783 -1.0605 -1.6186
  747TIP3    H223657   3.672   5.288  12.883  0.0232  2.2000  0.9823
  748TIP3   OH223658   6.242   3.318  11.134  0.1081 -0.0506 -0.3719
  748TIP3    H123659   6.291   3.360  11.204  1.2536  0.1444 -1.2393
  748TIP3    H223660   6.154   3.355  11.139 -0.1219 -0.7605  1.5380
  749TIP3   OH223661   1.550   4.667   4.779  0.3284  1.1717 -0.5271
  749TIP3    H123662   1.621   4.731   4.783  0.7950  0.6091  0.5293
  749TIP3    H223663   1.482   4.702   4.836  1.4403 -0.2365  1.8201
  750TIP3   OH223664   4.291   4.229   6.007  0.2740  0.0795  0.3585
  750TIP3    H123665   4.362   4.208   6.068  0.9447  1.4337  0.0853
  750TIP3    H223666   4.303   4.322   5.988  0.1515 -0.3067 -1.9048
  751TIP3   OH223667   0.374   6.713   0.123 -0.0022  0.0285 -0.1796
  751TIP3    H123668   0.325   6.700   0.204 -1.0936  0.3701 -0.7661
  751TIP3    H223669   0.310   6.748   0.061  0.7407 -0.4880 -1.2805
  752TIP3   OH223670   2.498   3.192  10.843 -0.0095  0.6695 -1.1500
  752TIP3    H123671   2.578   3.194  10.791 -0.5112 -0.7052 -2.0141
  752TIP3    H223672   2.472   3.100  10.844 -0.7352  0.8562  0.4506
  753TIP3   OH223673   2.057   3.823   2.952  0.1008 -0.6657 -0.0137
  753TIP3    H123674   1.993   3.857   2.890  0.9533 -0.3972 -0.7592
  753TIP3    H223675   2.102   3.754   2.905  2.1420  0.8787 -0.4433
  754TIP3   OH223676   3.341   4.554  16.082  0.3042  0.1690 -0.0111
  754TIP3    H123677   3.307   4.510  16.005 -1.3177  1.8067 -0.2945
  754TIP3    H223678   3.266   4.563  16.141  1.1333  0.4390  1.0447
  755TIP3   OH223679   2.405   6.170  11.351  0.0225  0.0560  0.0685
  755TIP3    H123680   2.362   6.090  11.320  1.0913 -0.1225 -1.0083
  755TIP3    H223681   2.334   6.233  11.361 -0.5336 -0.2941 -1.4876
  756TIP3   OH223682   6.243   4.236  13.754 -0.4694 -0.1665  0.2240
  756TIP3    H123683   6.195   4.254  13.674 -1.3883  0.3858  0.8870
  756TIP3    H223684   6.255   4.321  13.796  2.3802 -0.0391 -0.5966
  757TIP3   OH223685   4.744   3.709   2.406 -0.1936 -0.1835 -0.1282
  757TIP3    H123686   4.714   3.777   2.346 -0.7411  2.3201  2.7061
  757TIP3    H223687   4.835   3.732   2.425  0.1376 -1.2495 -0.3856
  758TIP3   OH223688   1.599   5.539  16.157 -0.0416 -0.1999  0.4354
  758TIP3    H123689   1.679   5.501  16.120 -0.4384 -0.8722  0.2468
  758TIP3    H223690   1.623   5.562  16.247  0.2585 -0.7675  0.5100
  759TIP3   OH223691   4.031   4.983   3.026  0.0261  0.5207  0.5878
  759TIP3    H123692   4.034   5.078   3.043 -0.0412  0.3498  1.6075
  759TIP3    H223693   3.959   4.973   2.964 -0.0712  1.1203  0.5901
  760TIP3   OH223694   0.344   0.795  14.807  0.0328  0.1569 -0.1739
  760TIP3    H123695   0.339   0.778  14.901  1.3625  0.5758 -0.0066
  760TIP3    H223696   0.277   0.860  14.791 -1.7762 -1.5583  0.0501
  761TIP3   OH223697   1.226   4.262  15.412 -0.0939 -0.6411 -0.0785
  761TIP3    H123698   1.149   4.312  15.385 -0.1957  0.5654  2.2086
  761TIP3    H223699   1.257   4.221  15.332 -1.7024  0.7825 -1.5127
  762TIP3   OH223700   5.753   0.009  15.383 -0.8564 -0.5184  0.1060
  762TIP3    H123701   5.777   0.047  15.298 -1.8702 -1.0373 -0.4313
  762TIP3    H223702   5.759  -0.085  15.370 -0.3135 -0.5899  0.8366
  763TIP3   OH223703   0.444   0.524   1.369  0.1825 -0.0147 -0.2491
  763TIP3    H123704   0.352   0.531   1.344  0.0728  0.9328  0.3765
  763TIP3    H223705   0.490   0.580   1.306  0.2047  0.3515  0.0919
  764TIP3   OH223706   6.522   0.932   2.279  0.5602  0.7663 -0.7130
  764TIP3    H123707   6.551   1.002   2.338  0.5959  2.7216 -2.8815
  764TIP3    H223708   6.446   0.969   2.234 -0.6719 -1.4020 -0.5517
  765TIP3   OH223709   5.873   2.308  15.696 -0.4910 -0.0231  0.4293
  765TIP3    H123710   5.927   2.229  15.693 -1.2291 -0.5123 -0.9674
  765TIP3    H223711   5.934   2.379  15.674 -0.2293 -0.4689 -0.3489
  766TIP3   OH223712   0.205   2.548   5.969 -0.1822 -0.2427  0.2799
  766TIP3    H123713   0.201   2.634   6.010 -1.2986  0.0644 -0.4392
  766TIP3    H223714   0.115   2.517   5.969  0.2291 -1.4858  0.6538
  767TIP3   OH223715   0.583   5.189   3.257  0.4970 -0.1478 -0.1762
  767TIP3    H123716   0.556   5.122   3.195  0.8903 -0.0744 -0.4353
  767TIP3    H223717   0.605   5.265   3.203  0.0113  0.2060  0.1179
  768TIP3   OH223718   5.223   2.543   0.995  0.6567 -0.2010 -0.8153
  768TIP3    H123719   5.169   2.497   0.931 -1.2385  0.7680  0.0063
  768TIP3    H223720   5.312   2.531   0.964 -0.2321  2.0811 -4.9567
  769TIP3   OH223721   5.145   4.088   3.099 -0.6199  0.0916 -0.6909
  769TIP3    H123722   5.223   4.113   3.050 -0.7697 -0.2131 -1.0891
  769TIP3    H223723   5.076   4.079   3.033 -0.4604 -1.8497 -0.6371
  770TIP3   OH223724   2.517   1.542  15.839  0.2525  0.3091 -0.1693
  770TIP3    H123725   2.519   1.619  15.895  0.0170  1.9483 -2.2963
  770TIP3    H223726   2.450   1.485  15.878  0.3821  1.1908  1.3993
  771TIP3   OH223727   4.237   6.124  15.539  0.0968  0.2107  0.5498
  771TIP3    H123728   4.154   6.080  15.521 -1.1813  2.2413  1.2256
  771TIP3    H223729   4.229   6.209  15.497  1.0232  1.2219  2.3110
  772TIP3   OH223730   0.451   6.054  16.099  0.1396  0.3608  0.3001
  772TIP3    H123731   0.505   6.101  16.163 -0.4981  0.3406  0.8681
  772TIP3    H223732   0.474   5.962  16.111  0.8740  0.4570 -0.3213
  773TIP3   OH223733   6.105   4.410   0.676  0.2577  0.0336 -0.1974
  773TIP3    H123734   6.182   4.465   0.688  0.8647 -0.8103 -0.2342
  773TIP3    H223735   6.117   4.369   0.591  0.2924 -0.9376  0.2699
  774TIP3   OH223736   0.406   6.816   0.512 -0.2285  0.0223 -0.1338
  774TIP3    H123737   0.371   6.905   0.523  0.3765  0.1898  0.4438
  774TIP3    H223738   0.368   6.766   0.585 -0.0708 -0.0421 -0.0961
  775TIP3   OH223739   3.557   4.304  10.962 -0.3213  0.0559 -0.4537
  775TIP3    H123740   3.560   4.366  10.889  1.3702  0.6997  0.1057
  775TIP3    H223741   3.579   4.220  10.923 -1.9038 -0.0884 -1.0937
  776TIP3   OH223742   2.310   1.981  13.052 -0.3153  0.2965  0.6178
  776TIP3    H123743   2.272   1.903  13.091 -1.3601 -1.1090 -2.7875
  776TIP3    H223744   2.236   2.040  13.038  0.0921  0.9271  1.0515
  777TIP3   OH223745   6.199   0.720   5.865 -0.2826  0.0368 -0.4015
  777TIP3    H123746   6.277   0.669   5.886 -0.4984  0.7136  2.3903
  777TIP3    H223747   6.127   0.658   5.871 -0.4347  0.3509  2.0206
  778TIP3   OH223748   6.230   3.991  13.896  0.1806  0.3977 -0.2303
  778TIP3    H123749   6.237   4.058  13.828 -0.3394  0.8805  0.1979
  778TIP3    H223750   6.139   3.992  13.923  0.2556 -0.2023  0.0728
  779TIP3   OH223751   4.923   1.875  13.412 -0.3233 -0.1871 -0.1096
  779TIP3    H123752   4.933   1.803  13.475 -0.0484 -0.4096 -0.4036
  779TIP3    H223753   4.953   1.953  13.459  0.4567 -0.4473 -0.1586
  780TIP3   OH223754   4.679   6.680  15.115  0.5641 -0.0446  0.3122
  780TIP3    H123755   4.672   6.587  15.136  0.3108 -0.9959 -3.2873
  780TIP3    H223756   4.769   6.704  15.137  0.6158 -1.0840  1.3060
  781TIP3   OH223757   5.948   2.266  14.588 -0.2516 -0.0949 -0.3706
  781TIP3    H123758   5.914   2.203  14.524 -0.0053 -0.7566  0.1332
  781TIP3    H223759   5.953   2.216  14.670  0.0501  0.5546  0.0137
  782TIP3   OH223760   5.453   1.709   3.321 -0.5093 -0.0293 -0.1088
  782TIP3    H123761   5.373   1.673   3.282 -1.0097  0.8082  0.1149
  782TIP3    H223762   5.458   1.668   3.408 -1.2257  0.6378  0.2545
  783TIP3   OH223763   0.738   6.367  15.554 -0.4114 -0.1972  0.0462
  783TIP3    H123764   0.759   6.309  15.481 -1.1506  0.7541 -0.9601
  783TIP3    H223765   0.679   6.316  15.609 -2.4162  0.0795 -1.6954
  784TIP3   OH223766   1.533   6.689  15.444 -0.6916 -0.0304 -0.1095
  784TIP3    H123767   1.588   6.751  15.492 -1.6366  1.2193 -0.5948
  784TIP3    H223768   1.573   6.603  15.462  0.5410  0.6792  0.7177
  785TIP3   OH223769   0.507   5.022   5.611 -0.5319 -0.0460  0.4630
  785TIP3    H123770   0.500   5.101   5.664  0.8019  1.2934 -1.2741
  785TIP3    H223771   0.522   5.053   5.522  0.3277 -2.2475 -0.2350
  786TIP3   OH223772   1.830   3.292  10.185 -0.3551  0.1028 -0.5092
  786TIP3    H123773   1.900   3.314  10.246 -0.6982 -0.2342  0.0083
  786TIP3    H223774   1.825   3.368  10.126 -0.0834  0.4677 -0.0689
  787TIP3   OH223775   1.804   4.746  16.599 -0.2664 -0.5832 -0.4317
  787TIP3    H123776   1.874   4.810  16.615  0.6236 -1.9174  1.4996
  787TIP3    H223777   1.850   4.663  16.588 -1.4985 -1.3693  0.0852
  788TIP3   OH223778   1.147   5.099   2.292  0.3888  0.2861  0.3782
  788TIP3    H123779   1.158   5.004   2.293 -1.9942 -0.0576 -0.2728
  788TIP3    H223780   1.168   5.125   2.203 -0.8343  0.0694  0.0103
  789TIP3   OH223781   3.789   5.362   6.075 -0.3471 -0.3694 -0.0851
  789TIP3    H123782   3.744   5.282   6.104  0.4834 -1.4609 -1.6290
  789TIP3    H223783   3.720   5.429   6.074 -1.8860 -1.8525 -1.8950
  790TIP3   OH223784   1.241   2.674  16.896  0.3411  0.3004  0.1424
  790TIP3    H123785   1.156   2.643  16.928  0.0347  0.2292 -0.7079
  790TIP3    H223786   1.240   2.768  16.913 -0.5965  0.5862 -1.3229
  791TIP3   OH223787   3.016   4.033  14.710 -0.4850  0.2294  0.1831
  791TIP3    H123788   2.963   4.054  14.787 -0.3602 -1.1056  0.6620
  791TIP3    H223789   2.970   3.961  14.668  1.0584 -1.1821  0.7821
  792TIP3   OH223790   2.909   0.295   3.892 -0.4042  0.5348  0.1933
  792TIP3    H123791   2.878   0.266   3.806  1.6227  1.0591 -0.7626
  792TIP3    H223792   2.872   0.382   3.903 -2.0166 -0.1695  0.6271
  793TIP3   OH223793   4.810   4.674  12.530  0.7412  0.0155 -0.2436
  793TIP3    H123794   4.736   4.716  12.484  1.2115  1.7548  0.4994
  793TIP3    H223795   4.774   4.649  12.615  1.1488  1.6096  0.4434
  794TIP3   OH223796   2.549   2.384   5.216 -0.4010 -0.0019  0.8718
  794TIP3    H123797   2.529   2.463   5.166 -1.7154 -0.1184  1.1519
  794TIP3    H223798   2.542   2.411   5.308 -0.1356 -0.2716  0.9726
  795TIP3   OH223799   1.840   3.008   2.555 -0.8185  0.1950  0.5710
  795TIP3    H123800   1.921   2.963   2.577 -0.3686  1.0064  0.5954
  795TIP3    H223801   1.772   2.942   2.568  0.0988 -1.9675 -3.6424
  796TIP3   OH223802   3.669   6.014   1.173  0.1604  0.1608 -0.2212
  796TIP3    H123803   3.745   6.001   1.229  0.4196  0.9747 -0.3726
  796TIP3    H223804   3.705   6.020   1.085  0.0262  1.3785 -0.2119
  797TIP3   OH223805   3.783   6.769  13.520  0.0136 -0.7677  0.2282
  797TIP3    H123806   3.720   6.760  13.591 -0.6918 -0.1040 -0.2800
  797TIP3    H223807   3.823   6.855  13.534 -0.1327 -0.6308 -0.1675
  798TIP3   OH223808   4.361   0.402  11.237  0.1541  0.0201  0.2389
  798TIP3    H123809   4.399   0.334  11.181 -0.9967  0.5861 -1.3242
  798TIP3    H223810   4.433   0.462  11.254  0.4150  0.1340 -1.1567
  799TIP3   OH223811   4.868   4.484   0.016 -0.1682 -0.2701 -0.1885
  799TIP3    H123812   4.895   4.401  -0.023 -0.2530 -0.5884  0.4158
  799TIP3    H223813   4.773   4.476   0.026 -0.2560  0.1401 -0.6812
  800TIP3   OH223814   3.975   1.241  15.923 -0.1130  0.0523  0.2463
  800TIP3    H123815   4.059   1.287  15.922  0.8564 -1.5092 -2.3261
  800TIP3    H223816   3.978   1.187  16.003  0.2427  1.7570  1.4233
  801TIP3   OH223817   0.785   2.087   5.798  0.3510 -0.2503  0.2665
  801TIP3    H123818   0.853   2.109   5.861  0.1440  0.4592  0.2513
  801TIP3    H223819   0.708   2.066   5.851  0.6205 -1.2388  0.2899
  802TIP3   OH223820   1.493   2.653  11.895 -0.1415  0.2374  0.5045
  802TIP3    H123821   1.487   2.588  11.825 -3.0221  1.6401 -0.7095
  802TIP3    H223822   1.579   2.638  11.934 -0.1782 -3.4521 -0.4648
  803TIP3   OH223823   3.964   0.925   0.151 -0.1174  0.0820 -0.1780
  803TIP3    H123824   3.962   0.850   0.091  0.7584  0.3619 -0.5696
  803TIP3    H223825   3.959   1.002   0.094  2.4338  0.4096 -0.0873
  804TIP3   OH223826   4.820   0.198  16.693  0.5570  0.2786 -0.3193
  804TIP3    H123827   4.839   0.211  16.786  1.7982  1.0111 -0.6568
  804TIP3    H223828   4.767   0.274  16.668 -1.9660 -1.1299  0.3159
  805TIP3   OH223829   1.453   4.845  15.601 -0.3054  0.3070  0.3331
  805TIP3    H123830   1.365   4.806  15.601 -0.7528  1.2471  1.8383
  805TIP3    H223831   1.475   4.855  15.508 -0.9583 -1.7210 -0.1011
  806TIP3   OH223832   5.001   1.217  14.096  0.2795 -0.1892  0.4235
  806TIP3    H123833   5.022   1.217  14.189 -0.3897  1.5232  0.6235
  806TIP3    H223834   4.929   1.280  14.088  0.0734 -0.5871 -1.1960
  807TIP3   OH223835   1.347   6.274   2.951 -0.6284  0.4571  1.1263
  807TIP3    H123836   1.294   6.200   2.979 -0.7348  0.7096  1.6060
  807TIP3    H223837   1.437   6.240   2.950 -0.5748  0.5308  2.1347
  808TIP3   OH223838   4.625   4.624   3.200  0.8069 -0.2827  0.5722
  808TIP3    H123839   4.581   4.603   3.282 -1.7817 -0.2514 -0.6910
  808TIP3    H223840   4.554   4.632   3.136  2.5612  1.3233 -1.3432
  809TIP3   OH223841   3.757   6.287  11.631  0.4501 -0.2663  0.4246
  809TIP3    H123842   3.713   6.371  11.615  1.0846  0.1925  1.0595
  809TIP3    H223843   3.708   6.248  11.704 -1.3855 -1.5929 -1.4120
  810TIP3   OH223844   6.176   6.314  11.969  0.1885 -0.4326 -0.4749
  810TIP3    H123845   6.101   6.280  12.017  0.5588  1.0153  1.2240
  810TIP3    H223846   6.140   6.341  11.884 -1.6450  1.8284  0.9055
  811TIP3   OH223847   5.503   1.807   0.270  0.0787  0.3336 -0.0091
  811TIP3    H123848   5.527   1.714   0.276 -1.0906 -0.1115 -1.5941
  811TIP3    H223849   5.511   1.827   0.176 -0.1752  1.7112  0.2484
  812TIP3   OH223850   6.138   4.211   5.628 -0.6984 -0.9128 -0.3265
  812TIP3    H123851   6.056   4.163   5.613 -0.6233 -1.2262  0.2673
  812TIP3    H223852   6.140   4.277   5.558 -1.5486 -0.7807 -0.2305
  813TIP3   OH223853   0.231   4.027   1.684  0.1435  0.5091 -0.0427
  813TIP3    H123854   0.324   4.051   1.679  0.3426  0.5451  2.5324
  813TIP3    H223855   0.229   3.935   1.659  1.1910  0.0222  1.4958
  814TIP3   OH223856   3.770   5.712   1.569 -0.3817  0.4205  0.0184
  814TIP3    H123857   3.786   5.708   1.475 -1.4873  0.0954 -0.1758
  814TIP3    H223858   3.677   5.733   1.577  0.0094  1.9212  1.0550
  815TIP3   OH223859   4.172   1.906   2.950 -0.0906  0.1366  0.4260
  815TIP3    H123860   4.221   1.975   2.905 -0.1561 -0.0143  0.1213
  815TIP3    H223861   4.218   1.825   2.928 -1.0441 -0.1299 -0.6880
  816TIP3   OH223862   2.859   1.690  16.642 -0.0122  0.1137 -0.4196
  816TIP3    H123863   2.777   1.691  16.692 -0.0535  0.5602 -0.4955
  816TIP3    H223864   2.918   1.636  16.695 -0.5475 -0.7389 -0.6765
  817TIP3   OH223865   6.730   2.118  10.995  0.1422  0.3945 -0.1110
  817TIP3    H123866   6.741   2.110  10.900  1.7499  1.4624 -0.0631
  817TIP3    H223867   6.676   2.043  11.019  1.1961 -0.9388 -1.6322
  818TIP3   OH223868   1.385   1.610  12.982  0.8112 -0.5091  0.0200
  818TIP3    H123869   1.427   1.616  12.896  1.5645 -1.6614  0.2714
  818TIP3    H223870   1.442   1.551  13.032 -2.3011 -4.3091 -0.3903
  819TIP3   OH223871   2.596   3.231  14.055  0.2841  0.7525 -0.1013
  819TIP3    H123872   2.611   3.264  13.966  3.4614  1.2850  0.4766
  819TIP3    H223873   2.602   3.309  14.110  1.2192  0.1086  0.7535
  820TIP3   OH223874   2.853   5.899  16.915  0.2377 -0.4762  0.4117
  820TIP3    H123875   2.759   5.899  16.899  0.4916  0.0707 -1.2351
  820TIP3    H223876   2.861   5.918  17.009 -1.2782  0.1087  0.4536
  821TIP3   OH223877   4.405   3.308   5.764 -0.6147 -0.0945 -0.4089
  821TIP3    H123878   4.445   3.263   5.690  0.9933  0.7039 -0.0631
  821TIP3    H223879   4.401   3.400   5.738 -0.6434  0.0958  0.2317
  822TIP3   OH223880   6.660   0.224  15.174  0.5204  0.0987 -0.0697
  822TIP3    H123881   6.749   0.188  15.177  1.4879  2.2251 -1.5100
  822TIP3    H223882   6.658   0.280  15.097 -2.3674 -0.5189 -0.5738
  823TIP3   OH223883   6.381   3.081   0.400  0.0723  0.4434 -0.4278
  823TIP3    H123884   6.424   3.153   0.354  1.2953 -0.6535 -1.0967
  823TIP3    H223885   6.321   3.123   0.461  1.6025  2.0608  0.0484
  824TIP3   OH223886   2.039   0.538   3.699  0.7945  0.1019 -0.0178
  824TIP3    H123887   1.984   0.460   3.704  0.4767  0.3702  1.1178
  824TIP3    H223888   1.988   0.605   3.745  0.7307  1.1872 -1.6171
  825TIP3   OH223889   0.538   0.376   3.213 -0.2622 -0.2248  0.2434
  825TIP3    H123890   0.509   0.318   3.283  0.6813 -0.6240  0.3222
  825TIP3    H223891   0.596   0.323   3.160  0.7598  0.6742  0.4145
  826TIP3   OH223892   0.082   0.072  12.759 -0.1498  0.1219  0.6630
  826TIP3    H123893   0.032   0.135  12.708 -1.0771  0.6245  2.1495
  826TIP3    H223894   0.037  -0.012  12.745  0.2169  0.0533 -0.1476
  827TIP3   OH223895   0.656   2.562   6.020 -0.5159 -0.1518 -0.3189
  827TIP3    H123896   0.725   2.495   6.017 -0.6178 -0.2274 -1.0973
  827TIP3    H223897   0.579   2.518   5.984 -0.8061  0.1346 -0.0509
  828TIP3   OH223898   0.342   0.011   5.474  0.4473 -0.1609 -0.1168
  828TIP3    H123899   0.419  -0.046   5.484 -0.8572 -1.8991  0.5740
  828TIP3    H223900   0.317   0.001   5.382  0.9395  0.3013 -0.3090
  829TIP3   OH223901   0.928   0.997   4.907  0.9364 -0.2629  0.2298
  829TIP3    H123902   0.916   0.905   4.932 -0.4123  0.0341  0.7841
  829TIP3    H223903   0.981   1.034   4.977  1.8069 -0.6909 -0.1872
  830TIP3   OH223904   6.808   6.400   0.671 -0.0366  0.6747 -0.0547
  830TIP3    H123905   6.743   6.420   0.604 -0.1787 -1.4735 -0.6340
  830TIP3    H223906   6.768   6.332   0.724  1.6078 -0.5172 -0.2655
  831TIP3   OH223907   4.587   3.395   0.384  0.2059 -0.2458 -0.0773
  831TIP3    H123908   4.626   3.420   0.300  1.4975 -0.8690  0.3126
  831TIP3    H223909   4.619   3.307   0.400 -0.1791 -0.2058  0.9860
  832TIP3   OH223910   4.086   4.004  14.649 -0.3385 -0.4889 -0.0595
  832TIP3    H123911   4.065   4.028  14.739 -0.9609 -0.4101 -0.2205
  832TIP3    H223912   4.123   4.084  14.611 -0.5484 -0.3730 -0.0196
  833TIP3   OH223913   4.566   2.988   5.544  0.1521  0.1486 -0.2754
  833TIP3    H123914   4.496   2.932   5.576 -1.3327  2.6149  1.1269
  833TIP3    H223915   4.633   2.985   5.613  0.4534 -0.4555 -0.5794
  834TIP3   OH223916   0.493   0.927   6.436  0.1054 -0.0101  0.0838
  834TIP3    H123917   0.518   0.840   6.408  1.2827  1.4001 -3.8285
  834TIP3    H223918   0.576   0.974   6.448 -0.5047  1.1324  0.0368
  835TIP3   OH223919   2.204   5.103   6.714 -0.1543 -0.1335  0.3368
  835TIP3    H123920   2.159   5.019   6.727 -0.3971  0.1066  1.1265
  835TIP3    H223921   2.140   5.157   6.667 -0.0094 -0.3821 -0.1441
  836TIP3   OH223922   3.661   4.524  13.320  0.2227 -0.4566 -0.6417
  836TIP3    H123923   3.656   4.513  13.225  0.7316 -1.5178 -0.5586
  836TIP3    H223924   3.695   4.441  13.352 -0.0778 -0.1622  0.4919
  837TIP3   OH223925   2.467   0.471  14.178 -0.2716  0.0529  0.2275
  837TIP3    H123926   2.423   0.390  14.152 -0.5722  0.8117 -1.8024
  837TIP3    H223927   2.416   0.540  14.136  1.6583  1.0985 -0.5219
  838TIP3   OH223928   2.441   1.015   5.424  0.4039  0.1312 -0.0388
  838TIP3    H123929   2.440   0.950   5.495 -1.3413 -0.5159 -0.5982
  838TIP3    H223930   2.533   1.035   5.412  0.8087 -0.2825  1.9149
  839TIP3   OH223931   0.062   0.363  14.833  0.4474  0.1268 -0.0863
  839TIP3    H123932  -0.001   0.323  14.892  0.0951  0.6950 -0.0666
  839TIP3    H223933   0.092   0.292  14.777 -0.1273 -0.1684 -0.0219
  840TIP3   OH223934   4.451   3.871   4.040  0.3081 -0.1872  0.0099
  840TIP3    H123935   4.428   3.956   4.003  1.8171 -0.1674 -1.0006
  840TIP3    H223936   4.419   3.874   4.130  0.3831  1.4830  0.0142
  841TIP3   OH223937   6.482   5.950  16.785  0.7651 -0.0642  0.1762
  841TIP3    H123938   6.563   5.901  16.770  1.2524 -0.3951  3.2562
  841TIP3    H223939   6.428   5.891  16.837  0.1340  1.5269  1.4003
  842TIP3   OH223940   0.143   3.151  16.903  0.0171 -0.5103 -0.1505
  842TIP3    H123941   0.208   3.196  16.956 -1.3172  2.2421 -0.7123
  842TIP3    H223942   0.167   3.058  16.910  2.4636  0.1602  1.6462
  843TIP3   OH223943   3.303   2.456   4.638 -0.0815 -0.3931 -0.1290
  843TIP3    H123944   3.349   2.516   4.696  0.6453 -0.0162 -1.0685
  843TIP3    H223945   3.300   2.501   4.554  2.3650 -2.4529 -1.4558
  844TIP3   OH223946   2.824   1.017   4.891  0.2837  0.3984  0.3948
  844TIP3    H123947   2.899   0.959   4.902 -0.1425 -0.2096  0.1142
  844TIP3    H223948   2.757   0.981   4.949  0.5555  1.5680  1.4800
  845TIP3   OH223949   2.596   5.009   6.376  0.2532  0.0331  0.1178
  845TIP3    H123950   2.550   4.951   6.437  3.2022 -2.1461  0.4755
  845TIP3    H223951   2.625   4.951   6.306 -0.1074  1.8850 -1.6376
  846TIP3   OH223952   3.505   3.615   3.689 -0.0598  0.3876 -0.1378
  846TIP3    H123953   3.416   3.592   3.663 -0.0669 -0.2077  0.3960
  846TIP3    H223954   3.503   3.710   3.701 -1.0785  0.1750  1.5890
  847TIP3   OH223955   1.002   2.355   1.334 -0.0435 -0.3168 -0.7109
  847TIP3    H123956   0.934   2.312   1.282 -0.5987  0.5761 -0.7415
  847TIP3    H223957   0.987   2.325   1.423 -1.6697  1.2822 -0.3918
  848TIP3   OH223958   3.914   6.367   0.862 -0.0761  0.3016 -0.0665
  848TIP3    H123959   3.987   6.307   0.845  0.6852  1.1407  0.1213
  848TIP3    H223960   3.844   6.312   0.896  0.7919 -0.4029  0.6276
  849TIP3   OH223961   4.590   0.828   5.405  0.0911  0.3726 -0.2150
  849TIP3    H123962   4.657   0.888   5.438 -1.2517  0.4157  2.7341
  849TIP3    H223963   4.508   0.875   5.417 -0.6516 -0.1875 -2.5449
  850TIP3   OH223964   1.371   6.651   2.876 -0.0727 -0.3496 -0.0701
  850TIP3    H123965   1.407   6.566   2.898  2.5303  0.5154 -0.6614
  850TIP3    H223966   1.440   6.695   2.826 -1.5885  1.8434 -0.4084
  851TIP3   OH223967   4.369   2.523   6.474 -0.1601 -0.2551  0.4003
  851TIP3    H123968   4.346   2.598   6.529  0.1549 -1.2274  1.8885
  851TIP3    H223969   4.285   2.485   6.449 -0.3193  0.5190 -0.2837
  852TIP3   OH223970   0.414   6.000   2.569  0.8939  0.0314 -0.3712
  852TIP3    H123971   0.469   6.077   2.584 -0.7085  1.2932 -0.7353
  852TIP3    H223972   0.364   5.991   2.650 -0.2061  0.4905 -0.9772
  853TIP3   OH223973   0.499   1.891  14.248 -0.0182  0.0837  0.6637
  853TIP3    H123974   0.588   1.924  14.259 -0.1556  0.3661  0.9562
  853TIP3    H223975   0.444   1.969  14.247 -0.1275  0.0104 -1.0466
  854TIP3   OH223976   5.675   3.764  14.289  0.1286  0.9118  0.7000
  854TIP3    H123977   5.734   3.823  14.335  0.3167  0.1807  1.4266
  854TIP3    H223978   5.616   3.731  14.357  0.5588 -0.3763  0.4748
  855TIP3   OH223979   4.178   6.818  13.106 -0.3735  0.0527 -1.0146
  855TIP3    H123980   4.253   6.862  13.146 -1.8743  1.6618  0.1831
  855TIP3    H223981   4.157   6.871  13.030 -0.0883 -0.6331 -1.5886
  856TIP3   OH223982   0.933   0.497   0.722  0.2448 -0.1184  0.1049
  856TIP3    H123983   0.891   0.541   0.796 -1.8947  1.0031 -1.6499
  856TIP3    H223984   0.958   0.567   0.662  1.6471 -1.0150 -0.4180
  857TIP3   OH223985   4.537   6.818  11.496  0.5166 -0.7349 -0.2116
  857TIP3    H123986   4.482   6.897  11.498 -1.2944 -1.9279  0.2160
  857TIP3    H223987   4.537   6.792  11.404 -0.6297 -1.3436 -0.0612
  858TIP3   OH223988   6.633   5.755  12.839 -0.3126  0.5566  0.3624
  858TIP3    H123989   6.675   5.791  12.918 -0.7718 -0.6331  1.1679
  858TIP3    H223990   6.696   5.772  12.769  0.8520  0.1690  1.2791
  859TIP3   OH223991   3.521   3.282   1.935  0.5246 -0.0435 -0.1876
  859TIP3    H123992   3.560   3.217   1.993 -2.3364 -0.9885  0.8584
  859TIP3    H223993   3.474   3.231   1.869 -0.1434  0.9806 -0.5377
  860TIP3   OH223994   0.459   0.899   5.129  0.2623 -0.0145  0.0604
  860TIP3    H123995   0.391   0.838   5.100  0.6480  0.5066 -2.1744
  860TIP3    H223996   0.442   0.979   5.078  0.9924  1.0395  1.4072
  861TIP3   OH223997   0.390   3.780  16.460  0.4705 -0.2969 -0.5134
  861TIP3    H123998   0.333   3.712  16.497  0.6381 -1.1773 -1.8195
  861TIP3    H223999   0.447   3.733  16.400  2.2886  0.6478  0.4085
  862TIP3   OH224000   0.854   1.729   2.887  0.0887 -0.4926  0.5619
  862TIP3    H124001   0.873   1.762   2.799  3.1269  0.8389  1.5803
  862TIP3    H224002   0.764   1.758   2.904 -0.0571  0.5061 -1.5293
  863TIP3   OH224003   0.125   0.670   2.081 -0.5991 -0.2139  0.7674
  863TIP3    H124004   0.111   0.763   2.101  0.4297 -0.7107  4.5894
  863TIP3    H224005   0.038   0.631   2.086 -0.6720  0.0939  2.4199
  864TIP3   OH224006   1.978   2.168  15.990 -0.0985 -0.1912 -0.3379
  864TIP3    H124007   1.900   2.181  16.043  0.1674  0.5442 -0.1118
  864TIP3    H224008   1.997   2.255  15.955  0.6560 -0.3495 -0.3305
  865TIP3   OH224009   0.725   5.708  13.392  0.3330 -0.1246 -0.2186
  865TIP3    H124010   0.798   5.769  13.406 -0.9523  0.9599  2.4756
  865TIP3    H224011   0.731   5.647  13.465 -0.7083 -0.8169 -0.6983
  866TIP3   OH224012   5.830   6.782  16.138  0.1602 -0.1464 -0.1883
  866TIP3    H124013   5.916   6.751  16.110  0.8541 -1.2680  2.7925
  866TIP3    H224014   5.840   6.800  16.232 -1.8336  3.6042 -0.5156
  867TIP3   OH224015   6.565   0.750  14.467 -0.2763 -0.7487  0.1200
  867TIP3    H124016   6.625   0.724  14.537 -0.0861 -0.2681  0.1388
  867TIP3    H224017   6.581   0.844  14.455 -1.5519 -0.4468  0.6284
  868TIP3   OH224018   6.408   4.646   2.457 -0.1259  0.2051  0.0335
  868TIP3    H124019   6.388   4.553   2.447 -1.8462 -0.1683  4.5474
  868TIP3    H224020   6.499   4.649   2.484 -0.2388 -0.2838  0.4908
  869TIP3   OH224021   4.133   5.927   0.416  0.4178  0.3640  0.0255
  869TIP3    H124022   4.090   5.842   0.425  1.0010  0.0749  0.1488
  869TIP3    H224023   4.217   5.907   0.375  0.1927  0.9930 -0.7530
  870TIP3   OH224024   2.091   6.680   6.624  0.1444  0.0994 -0.3534
  870TIP3    H124025   2.170   6.636   6.593  2.4255  3.9713 -0.6940
  870TIP3    H224026   2.044   6.705   6.545 -1.5631 -2.1634 -0.1522
  871TIP3   OH224027   2.617   6.316   6.181  0.2759  0.1724 -0.2708
  871TIP3    H124028   2.646   6.306   6.271  2.7185 -0.1476 -1.0145
  871TIP3    H224029   2.523   6.296   6.183  0.5904 -1.3802  1.9315
  872TIP3   OH224030   3.196   5.771  14.099  0.2223  0.8409 -0.3171
  872TIP3    H124031   3.225   5.799  14.012  1.0640  2.4551  0.4387
  872TIP3    H224032   3.108   5.736  14.084 -0.9695  3.9452 -1.4281
  873TIP3   OH224033   4.996   3.359   4.194 -0.6028  0.5774 -0.1471
  873TIP3    H124034   4.927   3.371   4.129  0.5189 -1.5243 -1.8629
  873TIP3    H224035   5.075   3.392   4.152  0.2784 -1.4738 -0.2368
  874TIP3   OH224036   1.059   3.069  11.658 -0.7623  0.2916 -0.2106
  874TIP3    H124037   0.980   3.114  11.688  0.3575  2.0947  0.1596
  874TIP3    H224038   1.127   3.137  11.656  0.5018 -0.9189 -1.7224
  875TIP3   OH224039   5.016   3.923  16.841 -0.4393  0.1922 -0.4962
  875TIP3    H124040   5.082   3.945  16.775 -0.4383  1.9233  0.0309
  875TIP3    H224041   5.066   3.907  16.921 -0.6004  0.8601 -0.2558
  876TIP3   OH224042   2.832   6.764   1.126 -0.4390 -0.3018 -0.2240
  876TIP3    H124043   2.741   6.744   1.101 -0.9994  0.6854  0.8868
  876TIP3    H224044   2.880   6.683   1.110 -1.5854 -0.9423 -0.5519
  877TIP3   OH224045   3.678   6.596  15.650  0.2660  0.1881 -0.3297
  877TIP3    H124046   3.607   6.630  15.704 -1.2314  1.2643 -2.8299
  877TIP3    H224047   3.753   6.590  15.710 -1.2850  1.2516  1.8403
  878TIP3   OH224048   2.853   1.092   3.729 -0.6197 -0.2329  0.9478
  878TIP3    H124049   2.817   1.130   3.809 -1.7599  3.3040 -1.0090
  878TIP3    H224050   2.945   1.117   3.730 -0.7484  0.2644  0.9757
  879TIP3   OH224051   6.514   4.112   2.055 -0.3156  0.1319 -0.1132
  879TIP3    H124052   6.472   4.114   2.141 -0.3738 -2.9572  0.0085
  879TIP3    H224053   6.595   4.064   2.068  0.0575  0.2769 -1.6667
  880TIP3   OH224054   1.124   0.632  13.864 -0.5723 -0.3764 -0.0326
  880TIP3    H124055   1.116   0.540  13.887 -0.5440 -0.9044 -1.9385
  880TIP3    H224056   1.035   0.658  13.838 -0.2186 -0.4322 -1.3568
  881TIP3   OH224057   6.137   4.619   5.047 -0.2182  0.1395  0.7474
  881TIP3    H124058   6.073   4.552   5.022 -0.3985 -0.1870  2.0468
  881TIP3    H224059   6.198   4.622   4.973 -0.4569 -1.1372  0.4695
  882TIP3   OH224060   0.040   2.348   3.146  0.3766 -0.3217  0.6363
  882TIP3    H124061  -0.036   2.377   3.095  0.0431 -1.4295  0.4860
  882TIP3    H224062   0.003   2.304   3.223  0.8435 -1.1754  0.3895
  883TIP3   OH224063   6.024   1.533  11.848  0.1153  0.0761  0.0344
  883TIP3    H124064   6.032   1.462  11.784  1.8612  0.2398  0.0201
  883TIP3    H224065   5.939   1.518  11.889  1.1576 -3.2129  1.3661
  884TIP3   OH224066   6.127   6.394   6.006  0.1447  0.1113 -0.0263
  884TIP3    H124067   6.095   6.306   6.027  1.1372 -0.4578 -0.7797
  884TIP3    H224068   6.115   6.444   6.087  0.6534 -1.0559  0.8090
  885TIP3   OH224069   0.252   5.742   0.020 -0.1397  0.1156  0.4525
  885TIP3    H124070   0.244   5.693  -0.062  2.2601 -2.4642  1.5460
  885TIP3    H224071   0.170   5.725   0.066  0.7661 -3.7136  1.0313
  886TIP3   OH224072   0.874   4.259   5.210 -0.3548  0.0138  0.2178
  886TIP3    H124073   0.965   4.244   5.184 -0.5848 -0.8283 -0.1576
  886TIP3    H224074   0.825   4.193   5.161 -0.8911 -1.2493  2.3522
  887TIP3   OH224075   6.630   6.604   1.298  0.4953  0.3086 -0.3299
  887TIP3    H124076   6.536   6.604   1.311  0.6035  1.3260  0.5338
  887TIP3    H224077   6.651   6.513   1.277 -0.7233  0.1566 -1.0004
  888TIP3   OH224078   5.010   2.716   1.139  0.3381 -0.3420 -0.0573
  888TIP3    H124079   5.076   2.647   1.145  0.0248 -0.6394  0.0251
  888TIP3    H224080   5.047   2.779   1.078  0.1850 -1.0809 -0.9301
  889TIP3   OH224081   4.385   3.620  14.520 -0.0145  0.0135 -0.2610
  889TIP3    H124082   4.378   3.714  14.531 -2.1235 -0.2896  1.6484
  889TIP3    H224083   4.413   3.609  14.429 -1.2609  2.4389 -1.0187
  890TIP3   OH224084   5.030   4.070  14.439 -0.0632  0.3985  0.2072
  890TIP3    H124085   4.960   4.125  14.475 -0.4781 -0.8026  1.3364
  890TIP3    H224086   5.085   4.130  14.389 -0.5911  1.7859  1.2395
  891TIP3   OH224087   0.338   5.855   4.740 -0.4160 -0.0733 -0.0384
  891TIP3    H124088   0.330   5.768   4.779 -0.4070  0.7617  1.9690
  891TIP3    H224089   0.294   5.913   4.802 -0.9228  1.2991 -1.6127
  892TIP3   OH224090   1.945   6.643   2.059  0.4315 -0.1609 -0.7780
  892TIP3    H124091   1.909   6.729   2.079 -0.5798 -1.0246  1.4792
  892TIP3    H224092   1.998   6.621   2.136  0.8927 -1.4478 -1.4350
  893TIP3   OH224093   6.284   0.933  12.173 -0.2191 -0.0403  0.5800
  893TIP3    H124094   6.202   0.984  12.169 -0.0452  0.1599 -0.9411
  893TIP3    H224095   6.268   0.858  12.115  1.2473  0.9169 -1.1757
  894TIP3   OH224096   4.546   2.285  16.748 -0.1089 -0.0842  0.0089
  894TIP3    H124097   4.557   2.309  16.840 -0.7618 -0.5048  0.2052
  894TIP3    H224098   4.462   2.238  16.745  0.5134 -1.1917 -0.5779
  895TIP3   OH224099   5.707   2.735  16.984 -0.2574  0.2442 -0.2799
  895TIP3    H124100   5.758   2.812  16.958  1.8899 -0.2312  2.1207
  895TIP3    H224101   5.658   2.764  17.061 -0.2464 -0.5029  0.0106
  896TIP3   OH224102   0.452   6.810  14.795 -0.0293  0.1002 -0.0568
  896TIP3    H124103   0.430   6.799  14.703 -2.2025  1.9078  0.1661
  896TIP3    H224104   0.506   6.889  14.798  0.1794 -0.0485  0.2057
  897TIP3   OH224105   2.437   5.974   3.494  0.1974 -0.2249 -1.1748
  897TIP3    H124106   2.478   6.059   3.479 -0.3116 -0.0646 -1.6922
  897TIP3    H224107   2.362   5.994   3.551  1.7077 -0.7296  1.1170
  898TIP3   OH224108   5.900   5.217  14.598 -0.2845  0.1056  0.8008
  898TIP3    H124109   5.959   5.287  14.628 -1.7952  0.9732  1.8408
  898TIP3    H224110   5.814   5.244  14.628 -1.2083 -1.2451 -0.5200
  899TIP3   OH224111   1.291   4.712   2.705  0.0767  0.1332 -0.3682
  899TIP3    H124112   1.246   4.781   2.753  0.5430 -0.9503  1.7662
  899TIP3    H224113   1.382   4.740   2.702  0.0164  0.2879 -0.8050
  900TIP3   OH224114   4.079   5.210  13.730  0.3593 -0.5219 -0.1776
  900TIP3    H124115   4.062   5.175  13.642 -2.0388 -1.3077  0.5330
  900TIP3    H224116   4.174   5.203  13.740  0.7793  0.0641 -2.8802
  901TIP3   OH224117   6.289   0.931   0.529  0.0303  0.6711 -0.0984
  901TIP3    H124118   6.194   0.945   0.532 -0.2652 -1.1753  0.1189
  901TIP3    H224119   6.301   0.865   0.460  0.8403 -1.2666  1.8073
  902TIP3   OH224120   6.119   4.976   2.200  0.7225 -0.6079  0.2181
  902TIP3    H124121   6.193   4.929   2.162  0.5707 -0.0233 -0.8527
  902TIP3    H224122   6.045   4.951   2.145 -0.0171 -1.6002  1.5894
  903TIP3   OH224123   4.656   2.340   5.450 -0.0883  0.0118  0.1606
  903TIP3    H124124   4.643   2.256   5.495  1.0742 -0.5923 -0.5675
  903TIP3    H224125   4.743   2.333   5.412 -1.0558  0.4174 -2.3209
  904TIP3   OH224126   0.293   0.748  11.656 -0.2672  0.0612 -0.1828
  904TIP3    H124127   0.265   0.811  11.590 -2.6622  1.2192  1.7682
  904TIP3    H224128   0.232   0.675  11.645 -0.7131  0.2845  0.7264
  905TIP3   OH224129   4.957   4.579   2.631  0.6695 -0.2133 -0.1974
  905TIP3    H124130   4.933   4.514   2.698  0.0536 -1.0079 -1.1545
  905TIP3    H224131   5.032   4.625   2.668  1.0233 -1.3660  0.5811
  906TIP3   OH224132   5.716   5.751   3.799 -0.0812 -0.2026 -0.5081
  906TIP3    H124133   5.760   5.676   3.838 -0.7687 -1.3635 -1.8579
  906TIP3    H224134   5.752   5.757   3.710 -1.0561  0.1903 -0.8924
  907TIP3   OH224135   5.255   0.858  12.341 -0.2980 -0.5466 -0.7058
  907TIP3    H124136   5.343   0.876  12.307  0.2481 -0.8029  0.5107
  907TIP3    H224137   5.268   0.786  12.402 -1.3606 -0.5635 -0.4884
  908TIP3   OH224138   4.063   3.654  16.876 -0.1204 -0.4024  0.0341
  908TIP3    H124139   4.131   3.718  16.856  2.0036 -2.2487  0.9728
  908TIP3    H224140   4.058   3.598  16.798 -0.6956 -0.1721 -0.0972
  909TIP3   OH224141   0.273   4.976   2.997  0.2007 -0.6658  0.2211
  909TIP3    H124142   0.358   4.967   3.039  0.3983  2.3082  0.6378
  909TIP3    H224143   0.290   5.028   2.918 -1.0015 -1.5101 -0.6338
  910TIP3   OH224144   1.964   4.029  13.197 -0.0279  0.6466  0.3606
  910TIP3    H124145   2.045   4.025  13.247 -0.2891 -0.5287  0.7267
  910TIP3    H224146   1.935   4.120  13.204  1.2051  1.0624  0.2877
  911TIP3   OH224147   5.318   3.625   4.341 -0.6855 -0.0602 -0.0565
  911TIP3    H124148   5.225   3.623   4.320 -1.2831  2.1745  1.9570
  911TIP3    H224149   5.352   3.700   4.292 -0.0622 -0.5207 -0.3386
  912TIP3   OH224150   6.046   4.713  15.638 -0.1334  0.2812 -0.1625
  912TIP3    H124151   6.004   4.796  15.657 -0.8870  0.1834 -1.2905
  912TIP3    H224152   6.092   4.689  15.719 -0.9028  1.1920  0.5537
  913TIP3   OH224153   0.033   4.481   3.518 -0.0102 -0.3340 -0.3683
  913TIP3    H124154   0.113   4.508   3.473 -0.0843 -0.4242 -0.5540
  913TIP3    H224155  -0.015   4.430   3.453 -0.5157  0.2519 -0.4690
  914TIP3   OH224156   3.907   5.062  12.377  0.3273  0.0908  0.5666
  914TIP3    H124157   3.975   4.995  12.375  0.5406  0.2677  1.6758
  914TIP3    H224158   3.922   5.110  12.458 -0.1297  1.1727  0.0316
  915TIP3   OH224159   1.385   4.909   5.598 -0.1031 -0.1377 -0.2865
  915TIP3    H124160   1.459   4.945   5.647  0.7971  0.6320 -2.0996
  915TIP3    H224161   1.318   4.892   5.664  0.8734  1.2374  1.1318
  916TIP3   OH224162   3.281   5.632  12.271  0.3347 -1.1743 -0.5379
  916TIP3    H124163   3.332   5.640  12.352  0.2446  0.3141 -0.5951
  916TIP3    H224164   3.231   5.551  12.281  0.8410 -1.3592  0.5938
  917TIP3   OH224165   5.392   5.032  12.662 -0.0408 -0.2012 -0.3590
  917TIP3    H124166   5.344   5.107  12.629 -1.8056 -1.0395  0.1941
  917TIP3    H224167   5.418   4.984  12.583 -0.3670  0.1185 -0.6631
  918TIP3   OH224168   5.113   0.671  12.589 -0.0272  0.0307  0.3161
  918TIP3    H124169   5.047   0.667  12.519 -0.7142 -1.2663  0.9987
  918TIP3    H224170   5.127   0.580  12.613 -0.4791  0.4858  2.4615
  919TIP3   OH224171   2.162   0.659  11.471 -0.4434  0.1926  0.3690
  919TIP3    H124172   2.229   0.650  11.539 -0.5986 -0.3857  0.4538
  919TIP3    H224173   2.156   0.754  11.456 -0.1542  0.3050  0.9074
  920TIP3   OH224174   0.843   2.157   0.415  0.1982  0.5278  0.0901
  920TIP3    H124175   0.812   2.217   0.482  1.0989  1.6766 -0.4795
  920TIP3    H224176   0.938   2.154   0.427  0.2122 -0.4480 -0.1728
  921TIP3   OH224177   1.208   1.649  16.322 -0.1372 -0.1569  0.2124
  921TIP3    H124178   1.259   1.606  16.391  0.9699 -1.9710 -1.6056
  921TIP3    H224179   1.131   1.593  16.310 -0.6435  0.4933  0.3910
  922TIP3   OH224180   6.758   5.575   0.645 -0.0489 -0.2796  0.5858
  922TIP3    H124181   6.768   5.614   0.732 -1.3810  0.4841  0.4351
  922TIP3    H224182   6.802   5.491   0.651  3.3767  1.3441  0.7941
  923TIP3   OH224183   6.025   4.737  16.187  0.3945  0.5744 -0.3729
  923TIP3    H124184   6.035   4.708  16.278  0.9802  0.4054 -0.4841
  923TIP3    H224185   5.947   4.691  16.156  1.7334 -1.5908 -0.7861
  924TIP3   OH224186   2.790   1.071  13.557  0.0514  0.0023 -0.1240
  924TIP3    H124187   2.763   1.038  13.471 -0.6382 -0.5808  0.3061
  924TIP3    H224188   2.814   1.162  13.541 -0.9830  0.1808 -0.7756
  925TIP3   OH224189   5.465   3.551   3.918  0.6123  0.6221  0.7089
  925TIP3    H124190   5.544   3.511   3.953  1.3988  2.8238  1.6103
  925TIP3    H224191   5.483   3.565   3.825  0.4263 -0.7956  0.4441
  926TIP3   OH224192   2.159   4.683   1.132 -0.1613 -0.1909 -0.3299
  926TIP3    H124193   2.190   4.689   1.222 -1.4526 -0.2291  0.1425
  926TIP3    H224194   2.143   4.589   1.118 -3.6469  0.0710  0.7879
  927TIP3   OH224195   1.277   6.346   4.258 -0.4631 -0.5986  0.2828
  927TIP3    H124196   1.309   6.354   4.168 -1.8926 -2.4131 -0.4552
  927TIP3    H224197   1.192   6.390   4.256 -0.6126 -0.8734  0.6818
  928TIP3   OH224198   1.650   2.079   2.398  0.1360  0.0344 -0.3306
  928TIP3    H124199   1.701   2.067   2.479 -1.7889 -1.7562  0.6898
  928TIP3    H224200   1.614   2.168   2.406 -0.7989 -0.4488  1.2731
  929TIP3   OH224201   1.573   1.942   0.461  0.5174 -0.0372  0.1529
  929TIP3    H124202   1.504   1.999   0.494 -0.5823 -2.4065  2.2953
  929TIP3    H224203   1.545   1.920   0.372 -1.9233 -1.4082  1.1645
  930TIP3   OH224204   0.022   5.565   4.350 -0.1089  0.2224 -0.2669
  930TIP3    H124205  -0.067   5.530   4.340  0.9868 -3.2659  0.6933
  930TIP3    H224206   0.069   5.534   4.272  0.5522  1.0075 -0.1877
  931TIP3   OH224207   3.086   1.017   0.809 -0.2271 -0.1626  0.3764
  931TIP3    H124208   3.014   1.076   0.786 -0.6891 -0.6066  0.6776
  931TIP3    H224209   3.044   0.943   0.851  0.4439 -0.2798  0.8480
  932TIP3   OH224210   1.444   3.399   3.194  0.3250  0.1031  0.1622
  932TIP3    H124211   1.454   3.494   3.181  1.1687 -0.2105 -1.8841
  932TIP3    H224212   1.350   3.383   3.181  0.3478  0.5395 -0.6376
  933TIP3   OH224213   6.625   2.893   2.953 -0.1194  0.2495  0.4452
  933TIP3    H124214   6.539   2.859   2.975  0.4299 -1.0477  0.6758
  933TIP3    H224215   6.650   2.947   3.028 -0.1731 -0.4544  0.9780
  934TIP3   OH224216   5.021   4.333  14.030  0.3364 -0.0656  0.0762
  934TIP3    H124217   5.046   4.265  14.093 -0.5018  0.8988  1.5176
  934TIP3    H224218   5.103   4.371  14.000  0.7345 -0.1770  1.0145
  935TIP3   OH224219   4.054   0.856  11.652  0.1688  0.1379 -0.0562
  935TIP3    H124220   4.114   0.843  11.579  0.0046 -2.3067  0.1550
  935TIP3    H224221   4.019   0.944  11.640  0.2316 -0.1434 -2.8822
  936TIP3   OH224222   2.963   6.579  15.956  0.8106  0.1080 -0.2652
  936TIP3    H124223   3.032   6.643  15.976  0.1371  0.7346  0.0843
  936TIP3    H224224   2.951   6.586  15.861 -0.1797  1.4688 -0.0619
  937TIP3   OH224225   3.118   3.585   3.047 -0.2207  0.1201  0.3360
  937TIP3    H124226   3.028   3.616   3.053 -0.3422 -0.4090  1.4504
  937TIP3    H224227   3.111   3.498   3.008 -0.0462  0.6811 -0.9889
  938TIP3   OH224228   6.668   4.070  12.554 -0.1245  0.1864  0.0614
  938TIP3    H124229   6.609   4.109  12.490  1.1051 -0.2434 -1.4002
  938TIP3    H224230   6.692   3.985  12.516 -0.3800 -0.6838  1.7298
  939TIP3   OH224231   5.687   2.085  12.757 -0.7648  0.1048  0.6724
  939TIP3    H124232   5.622   2.033  12.804  1.0117 -0.1131  3.0832
  939TIP3    H224233   5.693   2.167  12.806  1.9447 -0.5626  1.6522
  940TIP3   OH224234   0.039   3.508  14.118  0.0536  0.0359  0.0039
  940TIP3    H124235   0.051   3.413  14.119  1.0334  0.1207 -1.0073
  940TIP3    H224236   0.067   3.536  14.205  0.4863 -0.5283  0.0563
  941TIP3   OH224237   4.203   3.860  12.426 -0.0458 -0.6581 -0.1858
  941TIP3    H124238   4.228   3.914  12.351  0.7321 -0.0932  0.4578
  941TIP3    H224239   4.285   3.842  12.472 -0.6324  0.1289  1.2557
  942TIP3   OH224240   0.881   3.093  14.230  0.2024  0.2154 -0.1742
  942TIP3    H124241   0.876   3.081  14.135  1.4001  1.3488 -0.4133
  942TIP3    H224242   0.975   3.091  14.249 -0.0591 -1.2387  1.1864
  943TIP3   OH224243   1.653   5.664  10.999  0.0476  0.5205  0.1635
  943TIP3    H124244   1.637   5.716  10.920  0.3837  0.3006 -0.0554
  943TIP3    H224245   1.650   5.574  10.969 -2.2718  0.3052  0.8498
  944TIP3   OH224246   2.225   5.301  11.729 -0.4755  0.6062  0.1550
  944TIP3    H124247   2.318   5.279  11.736 -0.4949 -0.0462 -1.2855
  944TIP3    H224248   2.202   5.280  11.638 -1.9430  1.1137  0.3802
  945TIP3   OH224249   0.415   1.043   1.453 -0.6607  0.3461 -0.1365
  945TIP3    H124250   0.351   1.065   1.521  0.8867  0.5048  1.3295
  945TIP3    H224251   0.475   0.981   1.495  0.6637  0.8739 -1.1702
  946TIP3   OH224252   0.656   0.943  13.165 -0.1125  0.3112 -0.0103
  946TIP3    H124253   0.628   0.917  13.253  1.6808  1.5495  0.9802
  946TIP3    H224254   0.688   0.862  13.126  0.6075  0.0322  1.1005
  947TIP3   OH224255   5.795   3.953  12.926  0.0453  0.2501 -0.1947
  947TIP3    H124256   5.760   3.864  12.937 -1.0609  0.7752  0.6952
  947TIP3    H224257   5.790   3.968  12.832 -4.1982  1.0322 -0.0404
  948TIP3   OH224258   4.391   0.767   3.483 -0.2537  0.3800  0.3467
  948TIP3    H124259   4.308   0.758   3.436 -0.0345  0.7212 -0.1083
  948TIP3    H224260   4.398   0.686   3.534 -1.4126  0.8271  1.2794
  949TIP3   OH224261   4.338   0.312   2.609 -0.2415 -0.2046  0.2562
  949TIP3    H124262   4.257   0.262   2.596 -0.9729  0.4945  1.8782
  949TIP3    H224263   4.405   0.245   2.623 -0.4535 -0.7956 -1.2883
  950TIP3   OH224264   0.302   5.753   3.797 -0.0506  0.6057 -0.0719
  950TIP3    H124265   0.357   5.830   3.782 -0.0663  0.5134 -0.6263
  950TIP3    H224266   0.221   5.771   3.749 -0.0608  0.2496 -0.1917
  951TIP3   OH224267   1.339   6.411   2.716  0.3712  0.1381  0.5807
  951TIP3    H124268   1.319   6.364   2.798 -4.3471  1.1907  0.3437
  951TIP3    H224269   1.332   6.344   2.648  2.4079 -0.3605  0.7977
  952TIP3   OH224270   1.540   5.681  12.738 -0.4745 -0.2478  0.4032
  952TIP3    H124271   1.610   5.731  12.780  0.2293 -0.8972  0.0093
  952TIP3    H224272   1.580   5.598  12.714 -1.8142 -1.3485  1.7516
  953TIP3   OH224273   6.123   0.482  12.804  0.4341 -0.4061  0.5219
  953TIP3    H124274   6.153   0.540  12.734 -0.6711 -0.6390 -0.1736
  953TIP3    H224275   6.111   0.540  12.879 -3.1778  0.9127 -0.8405
  954TIP3   OH224276   4.696   1.792  14.828 -0.6195 -0.8966  0.4449
  954TIP3    H124277   4.716   1.844  14.906 -1.5317  2.3675 -1.2854
  954TIP3    H224278   4.600   1.785  14.828 -0.9399  1.7197 -1.6940
  955TIP3   OH224279   3.163   6.749   1.059 -0.3746 -0.6651  0.1284
  955TIP3    H124280   3.145   6.815   1.126 -0.4822  2.3646 -2.6335
  955TIP3    H224281   3.225   6.689   1.101  1.6546  2.5363  2.2144
  956TIP3   OH224282   1.150   4.478   0.926  1.4504 -0.4530  0.1323
  956TIP3    H124283   1.210   4.410   0.956  0.2669 -2.4280 -1.7531
  956TIP3    H224284   1.068   4.433   0.909  0.1047  1.7478  0.3006
  957TIP3   OH224285   0.978   3.821  11.370 -0.3416 -0.3185  0.1926
  957TIP3    H124286   0.995   3.730  11.347 -1.4637 -0.2180 -1.1745
  957TIP3    H224287   0.883   3.831  11.361  0.0032  1.7064 -2.8406
  958TIP3   OH224288   6.621   4.251  14.964 -0.5345 -0.4389 -0.0561
  958TIP3    H124289   6.687   4.311  14.929 -0.0157 -0.6913  0.4827
  958TIP3    H224290   6.645   4.240  15.056 -1.4569 -0.3570  0.2054
  959TIP3   OH224291   1.263   5.112   4.725  0.2230  0.7062  0.3100
  959TIP3    H124292   1.226   5.125   4.812  1.7309  1.6408  0.8458
  959TIP3    H224293   1.315   5.190   4.709  1.3256 -0.2023 -0.7217
  960TIP3   OH224294   3.562   5.748   5.826 -0.0027  0.3230  0.2546
  960TIP3    H124295   3.547   5.657   5.851 -2.3388  0.3703 -0.7388
  960TIP3    H224296   3.604   5.788   5.902  0.7923 -1.4852  0.8123
  961TIP3   OH224297   2.992   3.259   5.168 -0.7956 -0.3873  0.9340
  961TIP3    H124298   3.004   3.328   5.103 -2.0975  0.3665  1.4540
  961TIP3    H224299   2.917   3.208   5.136  0.1486 -1.5928  0.5586
  962TIP3   OH224300   4.004   5.064   0.506 -0.2147 -0.3400 -0.3363
  962TIP3    H124301   4.072   5.125   0.479 -0.4308  0.4292  0.8195
  962TIP3    H224302   4.042   5.016   0.580 -1.2851  0.8756  1.0639
  963TIP3   OH224303   6.797   2.111   0.041 -0.8433 -0.1505  0.6362
  963TIP3    H124304   6.877   2.077   0.080  0.5004  1.2789 -0.7196
  963TIP3    H224305   6.771   2.044  -0.022 -0.0262 -0.1082  0.2422
  964TIP3   OH224306   6.644   0.380   6.702 -0.4221 -0.4031 -0.2122
  964TIP3    H124307   6.709   0.442   6.736  0.1897 -0.6130 -0.9509
  964TIP3    H224308   6.565   0.432   6.689  0.2105  0.3415 -1.2285
  965TIP3   OH224309   5.722   3.329  11.126  0.2877  0.9588  1.1123
  965TIP3    H124310   5.751   3.252  11.176  0.1051 -0.8521 -1.3888
  965TIP3    H224311   5.762   3.318  11.040  0.4392  3.8534  0.7334
  966TIP3   OH224312   5.012   2.372  14.621 -0.0864 -0.0152 -0.2959
  966TIP3    H124313   5.040   2.285  14.650 -0.6224 -0.5366 -1.2970
  966TIP3    H224314   4.916   2.368  14.622 -0.1267  0.0811 -1.6877
  967TIP3   OH224315   4.056   4.984   5.897  0.8004  0.1457  0.5687
  967TIP3    H124316   4.097   5.062   5.859  0.1880  0.7277  1.0582
  967TIP3    H224317   4.104   4.969   5.978  1.2304 -0.2787  0.2357
  968TIP3   OH224318   5.074   5.510   2.896  1.0182  0.0931  0.0880
  968TIP3    H124319   4.994   5.467   2.927  0.2830  1.9190  0.8860
  968TIP3    H224320   5.131   5.511   2.972  1.0968  0.3505  0.0258
  969TIP3   OH224321   3.601   1.447   0.037 -0.0876 -0.2463 -0.3492
  969TIP3    H124322   3.580   1.463   0.130  1.1207 -0.2146 -0.0716
  969TIP3    H224323   3.516   1.425  -0.002 -0.6811  0.0770  0.6859
  970TIP3   OH224324   3.707   2.253  16.938  0.4512  0.2843  0.1756
  970TIP3    H124325   3.786   2.199  16.937  0.3553  0.1507 -0.3262
  970TIP3    H224326   3.734   2.334  16.983  1.2172  0.7445 -1.0523
  971TIP3   OH224327   6.375   1.207  11.043  0.3313 -0.2181  0.3165
  971TIP3    H124328   6.284   1.198  11.016  0.5727  0.2547 -0.6721
  971TIP3    H224329   6.373   1.275  11.110 -0.1475 -0.8178  0.9394
  972TIP3   OH224330   1.051   6.696   2.294  0.1704 -0.2895  0.5356
  972TIP3    H124331   1.045   6.668   2.385 -0.7448 -2.4233 -0.1284
  972TIP3    H224332   0.976   6.754   2.282  0.3236  0.0441  1.1314
  973TIP3   OH224333   3.337   1.379   2.066  0.1744  0.7018  0.3431
  973TIP3    H124334   3.297   1.337   1.991  1.3675 -0.7865  0.4833
  973TIP3    H224335   3.264   1.411   2.119 -0.6993  0.6892 -0.8378
  974TIP3   OH224336   3.674   5.272   2.889  0.2900  0.5254  0.2438
  974TIP3    H124337   3.663   5.240   2.978 -0.3985  0.3093  0.0887
  974TIP3    H224338   3.585   5.278   2.854  0.5623  0.3629 -0.5089
  975TIP3   OH224339   3.648   4.064  16.645 -0.4313 -0.0503 -0.1176
  975TIP3    H124340   3.588   4.088  16.575  0.2580 -2.2622 -1.5705
  975TIP3    H224341   3.736   4.078  16.608 -0.0604 -1.0067  0.3604
  976TIP3   OH224342   4.820   4.596   2.890  0.2449 -0.5620 -0.0484
  976TIP3    H124343   4.735   4.552   2.888 -0.6398  1.0352  0.9282
  976TIP3    H224344   4.883   4.524   2.885 -1.1455 -1.9008  0.6486
  977TIP3   OH224345   6.192   6.678  15.109  0.5236  0.2342  0.4711
  977TIP3    H124346   6.137   6.600  15.116  2.7138 -1.4413 -0.1015
  977TIP3    H224347   6.159   6.737  15.177 -3.2334  0.2269 -1.0935
  978TIP3   OH224348   0.979   2.250  12.691 -0.4715  0.1895 -0.2620
  978TIP3    H124349   1.026   2.326  12.727 -2.6229  1.0334  0.9098
  978TIP3    H224350   1.006   2.177  12.748  3.2515 -0.5642 -2.6350
  979TIP3   OH224351   2.114   1.076  12.861  0.4746  0.7477  0.6697
  979TIP3    H124352   2.020   1.069  12.840  0.7252  2.0171 -1.0878
  979TIP3    H224353   2.117   1.069  12.956 -1.5498  1.7618  0.8818
  980TIP3   OH224354   5.006   0.034   4.013  0.5169 -0.4445 -0.3430
  980TIP3    H124355   5.068   0.070   3.949  0.7186 -0.3570 -0.1015
  980TIP3    H224356   4.966  -0.040   3.968  1.4396 -1.0529 -0.2027
  981TIP3   OH224357   5.448   1.754  11.157  0.6157  0.2959 -0.0373
  981TIP3    H124358   5.380   1.783  11.218  0.0475  0.4706 -0.7332
  981TIP3    H224359   5.416   1.782  11.071  1.1862 -0.3277 -0.4625
  982TIP3   OH224360   3.138   1.479   6.134 -0.1070  0.0994 -0.3041
  982TIP3    H124361   3.083   1.475   6.056 -0.3233 -0.6670 -0.1183
  982TIP3    H224362   3.130   1.392   6.174  1.4132 -0.0978 -0.3849
  983TIP3   OH224363   3.187   6.683  13.998  0.6717 -0.4461  0.2733
  983TIP3    H124364   3.149   6.641  13.921  1.4316 -0.5099 -0.0772
  983TIP3    H224365   3.218   6.609  14.052  0.9258 -0.3728  0.2274
  984TIP3   OH224366   0.847   0.192   0.628  0.2723  0.4521 -0.5831
  984TIP3    H124367   0.837   0.210   0.721  0.8994 -1.1456 -0.1816
  984TIP3    H224368   0.908   0.260   0.597  1.8192 -0.2899  0.6654
  985TIP3   OH224369   4.982   0.520   4.695 -0.2833  0.2840 -0.8828
  985TIP3    H124370   5.002   0.605   4.732  0.5956  0.1616 -1.0477
  985TIP3    H224371   5.061   0.467   4.712 -0.8555 -0.5249 -0.6779
  986TIP3   OH224372   2.944   2.326  15.394 -0.5717  0.4661  0.1420
  986TIP3    H124373   2.924   2.292  15.307 -1.4204 -0.7339  0.7747
  986TIP3    H224374   2.886   2.401  15.405 -1.8544 -0.5282  0.3831
  987TIP3   OH224375   1.789   5.393   1.799 -0.0182  1.1418 -0.4787
  987TIP3    H124376   1.699   5.424   1.807 -0.5687 -0.4123 -0.4273
  987TIP3    H224377   1.783   5.298   1.802  1.6738  1.0078 -0.0435
  988TIP3   OH224378   1.067   6.174  12.615  0.3622 -0.3339  0.3035
  988TIP3    H124379   1.018   6.132  12.545  1.6156 -2.6424  0.7280
  988TIP3    H224380   1.158   6.149  12.599  0.8647  0.3725  1.8815
  989TIP3   OH224381   2.606   3.145   3.406 -0.4421  0.2262  0.5931
  989TIP3    H124382   2.532   3.125   3.349 -0.1540 -1.1867  0.6803
  989TIP3    H224383   2.587   3.098   3.487  0.2867  0.2947  0.8124
  990TIP3   OH224384   5.586   3.419  15.295 -0.3314 -0.4638 -0.3058
  990TIP3    H124385   5.580   3.501  15.343 -2.8914  0.2221 -1.5911
  990TIP3    H224386   5.650   3.436  15.226  0.6905 -0.2753  0.6607
  991TIP3   OH224387   0.758   2.066  14.228  0.0101  0.1571  0.2777
  991TIP3    H124388   0.729   2.132  14.165 -0.0631  0.0496  0.1996
  991TIP3    H224389   0.784   1.991  14.174  0.2841  0.1965  0.3550
  992TIP3   OH224390   2.807   2.316   5.614 -0.4736 -0.2124 -0.0536
  992TIP3    H124391   2.809   2.394   5.670 -0.1622 -0.3229  0.0947
  992TIP3    H224392   2.889   2.271   5.634 -1.0846 -1.0698  0.5454
  993TIP3   OH224393   6.472   1.102   0.657 -0.2850 -0.3822 -0.0168
  993TIP3    H124394   6.411   1.042   0.615 -0.8652 -0.7426  1.2662
  993TIP3    H224395   6.419   1.180   0.676 -0.5868 -0.9716  1.7432
  994TIP3   OH224396   1.311   4.204  16.105  0.2042 -0.2555  0.1637
  994TIP3    H124397   1.373   4.156  16.050 -0.7566 -1.1445 -0.1830
  994TIP3    H224398   1.252   4.136  16.139 -0.4645  0.5403  0.6301
  995TIP3   OH224399   4.631   5.557  15.013  0.3057  0.0390  0.0973
  995TIP3    H124400   4.557   5.530  15.067  0.8717 -1.7807  0.0297
  995TIP3    H224401   4.654   5.644  15.047 -3.9838  2.3929 -2.1460
  996TIP3   OH224402   1.683   3.444   6.166  0.2158 -0.4185  0.0712
  996TIP3    H124403   1.637   3.467   6.246 -1.8135 -0.4168 -1.0236
  996TIP3    H224404   1.715   3.528   6.132  0.1983 -0.2928  0.3597
  997TIP3   OH224405   2.312   6.631  16.600  0.2854  0.1956 -0.2506
  997TIP3    H124406   2.348   6.711  16.560 -0.4367 -0.2626 -1.9132
  997TIP3    H224407   2.236   6.662  16.650 -0.2619  0.5324 -1.2558
  998TIP3   OH224408   4.374   2.604  13.176 -0.1300  0.3008 -0.3619
  998TIP3    H124409   4.345   2.545  13.247 -0.7408  1.6559  0.5548
  998TIP3    H224410   4.468   2.614  13.191 -0.0934 -0.1386 -0.2854
  999TIP3   OH224411   5.177   3.646   3.432  0.6546  0.5414  0.2856
  999TIP3    H124412   5.179   3.672   3.340 -1.1607 -2.1780 -0.6341
  999TIP3    H224413   5.102   3.695   3.469 -0.2686 -0.3187 -0.4004
 1000TIP3   OH224414   4.225   1.181   2.222  0.1989 -0.1301  0.1125
 1000TIP3    H124415   4.282   1.226   2.285 -1.0098  1.0535  0.4015
 1000TIP3    H224416   4.238   1.229   2.140  0.8431 -0.8974 -0.2433
 1001TIP3   OH224417   5.367   6.750  12.856  0.3062  0.2331  0.5620
 1001TIP3    H124418   5.343   6.692  12.928 -1.3307  0.0365 -0.0954
 1001TIP3    H224419   5.339   6.703  12.777  0.4494  1.2049 -0.0848
 1002TIP3   OH224420   2.312   1.425   5.313 -0.4637 -0.4449 -0.0436
 1002TIP3    H124421   2.379   1.463   5.370 -1.1346 -0.0060  0.4676
 1002TIP3    H224422   2.335   1.456   5.225  0.7356 -1.3487 -0.0757
 1003TIP3   OH224423   0.176   6.466  14.043 -0.1504  0.4454  0.2607
 1003TIP3    H124424   0.141   6.480  14.131  0.2214 -0.5638  0.5840
 1003TIP3    H224425   0.255   6.414  14.057 -1.5500 -2.1740 -0.8328
 1004TIP3   OH224426   2.681   5.213  11.542 -0.0346  0.0848 -0.0055
 1004TIP3    H124427   2.678   5.247  11.452  0.0598  2.3354  0.7909
 1004TIP3    H224428   2.769   5.177  11.551 -0.0036 -0.0461 -0.7601
 1005TIP3   OH224429   1.841   1.789   3.398  0.8203 -0.2404  0.0919
 1005TIP3    H124430   1.824   1.862   3.340  0.4230 -0.5642 -0.2050
 1005TIP3    H224431   1.809   1.818   3.484  0.2099 -0.2543 -0.1299
 1006TIP3   OH224432   2.417   0.261  12.141 -0.0216  0.3921  0.2705
 1006TIP3    H124433   2.428   0.337  12.197 -0.9760  1.5234 -1.0111
 1006TIP3    H224434   2.322   0.246  12.139 -0.0069  0.3533 -0.9881
 1007TIP3   OH224435   6.563   3.722  14.098  0.4789  0.0282  0.3977
 1007TIP3    H124436   6.540   3.807  14.060  1.5443  1.5240  2.8538
 1007TIP3    H224437   6.567   3.662  14.024 -0.2295  2.1388 -1.4302
 1008TIP3   OH224438   3.694   1.082  12.873 -0.5982  0.1119 -0.7307
 1008TIP3    H124439   3.650   1.020  12.931 -0.4840  0.7010  0.0058
 1008TIP3    H224440   3.760   1.030  12.828 -0.7196 -0.3681 -0.3675
 1009TIP3   OH224441   5.768   2.157   4.399 -0.1343  0.0695 -0.5219
 1009TIP3    H124442   5.780   2.192   4.311  1.7746  1.5512  0.2477
 1009TIP3    H224443   5.709   2.219   4.441  3.2895  2.7056  0.8583
 1010TIP3   OH224444   1.434   5.834  13.140 -0.3709 -0.5945  0.1055
 1010TIP3    H124445   1.425   5.762  13.202  2.3324 -1.0283  0.1130
 1010TIP3    H224446   1.515   5.878  13.165 -0.6363  0.9040 -1.4503
 1011TIP3   OH224447   0.723   0.069  12.771 -0.2684  0.1949  0.1257
 1011TIP3    H124448   0.807   0.028  12.791  0.6080  2.6210  1.8762
 1011TIP3    H224449   0.692   0.023  12.693  2.4835 -1.0620 -0.3536
 1012TIP3   OH224450   3.114   0.371  11.849 -0.0569 -0.2842  0.5717
 1012TIP3    H124451   3.046   0.409  11.904  0.1670 -1.6980  1.9033
 1012TIP3    H224452   3.183   0.346  11.911  0.9248 -0.4283 -0.5531
 1013TIP3   OH224453   1.055   3.379   3.333  0.7307  0.1099 -0.1710
 1013TIP3    H124454   1.063   3.298   3.383  3.0757  0.7418  0.5739
 1013TIP3    H224455   0.965   3.407   3.349 -0.6065 -2.9511 -1.5122
 1014TIP3   OH224456   1.807   3.878  10.955  0.1071 -0.0008  0.0657
 1014TIP3    H124457   1.745   3.827  11.006 -0.8701 -0.0897 -1.1540
 1014TIP3    H224458   1.769   3.882  10.867  1.3112  0.8464 -0.4579
 1015TIP3   OH224459   2.608   6.644   1.042 -0.4619  0.2563 -0.1425
 1015TIP3    H124460   2.575   6.676   0.958 -0.6687 -0.9217 -0.5206
 1015TIP3    H224461   2.644   6.558   1.023  0.6002  0.4763  0.7540
 1016TIP3   OH224462   0.027   1.424   3.829 -0.5384 -0.0523 -0.0368
 1016TIP3    H124463   0.073   1.356   3.780  0.0363  1.1748 -1.2763
 1016TIP3    H224464  -0.064   1.415   3.802 -0.3444  0.1367 -0.7829
 1017TIP3   OH224465   1.627   0.854   3.613 -0.4767 -0.3863  0.2992
 1017TIP3    H124466   1.627   0.938   3.658  0.4188 -0.8283  1.1588
 1017TIP3    H224467   1.535   0.827   3.615 -0.8930  0.8835 -0.6295
 1018TIP3   OH224468   2.256   2.771   0.058 -0.0104 -0.3581 -0.5774
 1018TIP3    H124469   2.233   2.685   0.023 -0.2665  0.3429 -2.2137
 1018TIP3    H224470   2.179   2.798   0.108 -0.7321 -0.2233 -1.7370
 1019TIP3   OH224471   1.666   0.285  13.132  0.0456  0.2223 -0.3338
 1019TIP3    H124472   1.727   0.214  13.112 -0.1908  0.0225 -0.3583
 1019TIP3    H224473   1.581   0.241  13.144 -0.2576  0.5725 -1.0894
 1020TIP3   OH224474   2.146   0.067   0.314 -0.5308 -0.3391 -0.2767
 1020TIP3    H124475   2.085   0.067   0.240  1.0780  0.2942 -1.6523
 1020TIP3    H224476   2.205   0.140   0.297  0.7734 -1.0724  0.8819
 1021TIP3   OH224477   5.193   0.282   1.467 -0.3691 -0.6633 -0.0102
 1021TIP3    H124478   5.184   0.359   1.411  2.6780  0.8660  1.3605
 1021TIP3    H224479   5.130   0.297   1.537  0.9771  1.3226  0.8823
 1022TIP3   OH224480   0.134   0.300  10.413  0.1234 -0.6956 -0.3734
 1022TIP3    H124481   0.206   0.364  10.407 -0.5349  0.0731 -0.2614
 1022TIP3    H224482   0.175   0.222  10.451  1.1314 -0.6439 -1.2869
 1023TIP3   OH224483   3.850   5.910   5.862  0.7016  0.1631  0.8717
 1023TIP3    H124484   3.794   5.893   5.937  0.1648  0.0530  0.4519
 1023TIP3    H224485   3.790   5.935   5.792  1.2122  0.4801  0.5371
 1024TIP3   OH224486   6.434   0.769   3.778 -0.0223 -0.3532  0.4690
 1024TIP3    H124487   6.359   0.829   3.782  0.0899 -0.2099  0.4487
 1024TIP3    H224488   6.400   0.692   3.732  0.9150  1.3529 -3.5887
 1025TIP3   OH224489   4.483   1.904  15.531  0.3450  0.1422  0.5302
 1025TIP3    H124490   4.546   1.970  15.502  1.0585 -0.4021  0.8091
 1025TIP3    H224491   4.418   1.901  15.461 -0.7673  2.4761  1.3757
 1026TIP3   OH224492   0.506   6.322   3.679 -0.2901 -1.0796  0.3773
 1026TIP3    H124493   0.496   6.370   3.596  0.6474 -0.2737  0.7051
 1026TIP3    H224494   0.483   6.386   3.746  0.3761 -1.2759  0.7981
 1027TIP3   OH224495   2.530   0.829   2.253 -0.0964  0.0370  0.1412
 1027TIP3    H124496   2.477   0.807   2.330 -0.0225 -0.3772  0.0738
 1027TIP3    H224497   2.619   0.839   2.288 -0.1735  0.5182  0.2178
 1028TIP3   OH224498   1.527   3.203  15.966 -0.1314 -0.4266  0.0868
 1028TIP3    H124499   1.549   3.127  16.020 -0.4513 -1.4381 -1.1537
 1028TIP3    H224500   1.503   3.271  16.029 -0.0784 -1.4189  1.2230
 1029TIP3   OH224501   2.145   4.173  14.911 -0.0375 -0.4704  0.3622
 1029TIP3    H124502   2.141   4.080  14.887  0.9110 -0.9838  2.0212
 1029TIP3    H224503   2.072   4.213  14.864  0.2331 -1.8261 -1.3308
 1030TIP3   OH224504   6.696   0.804  15.605 -0.3510 -0.9588 -0.3123
 1030TIP3    H124505   6.704   0.710  15.620  0.7366 -0.7496  0.5852
 1030TIP3    H224506   6.779   0.829  15.564 -0.3754 -0.2915  0.0322
 1031TIP3   OH224507   3.809   0.695   6.505  0.2646  0.1491 -0.3674
 1031TIP3    H124508   3.841   0.612   6.540 -0.1874 -0.4110 -1.2514
 1031TIP3    H224509   3.882   0.756   6.518  1.3886 -0.8916 -1.5825
 1032TIP3   OH224510   3.366   3.204  13.210 -0.2236 -0.4232  0.3570
 1032TIP3    H124511   3.459   3.197  13.191 -0.0762  1.4819  0.1232
 1032TIP3    H224512   3.358   3.180  13.303  0.3186 -1.5868  0.1183
 1033TIP3   OH224513   4.075   3.546   3.366  0.2287  0.1267  0.6290
 1033TIP3    H124514   4.164   3.581   3.367 -0.2166  1.3799 -0.4646
 1033TIP3    H224515   4.021   3.617   3.401 -0.3286 -0.7341  1.5827
 1034TIP3   OH224516   6.267   6.720  13.408  0.6833 -0.0725 -0.2364
 1034TIP3    H124517   6.363   6.724  13.407  0.6447  1.0869 -0.6472
 1034TIP3    H224518   6.242   6.732  13.316  0.1390 -0.2195 -0.1083
 1035TIP3   OH224519   3.233   4.817   0.932 -0.3610 -0.0918  0.0870
 1035TIP3    H124520   3.258   4.725   0.923  0.5257  0.0656  0.8105
 1035TIP3    H224521   3.236   4.851   0.843 -1.3645 -0.9097 -0.2905
 1036TIP3   OH224522   5.688   5.457  13.270 -0.5686 -0.5265 -0.5268
 1036TIP3    H124523   5.594   5.475  13.273 -0.5423 -0.4364 -0.1372
 1036TIP3    H224524   5.694   5.362  13.265 -0.6862 -0.5126 -0.9713
 1037TIP3   OH224525   6.671   6.170  13.577 -0.2095 -0.3199  0.1096
 1037TIP3    H124526   6.755   6.142  13.540  0.8031  0.8359  1.4296
 1037TIP3    H224527   6.612   6.096  13.560  0.8044 -0.7976 -1.6530
 1038TIP3   OH224528   2.839   5.087   5.329 -0.8189 -0.0089  0.2202
 1038TIP3    H124529   2.779   5.041   5.388  0.1201 -0.0628  1.1582
 1038TIP3    H224530   2.912   5.114   5.385  0.0596  0.0130 -0.9002
 1039TIP3   OH224531   1.867   4.940  16.976 -0.3268 -0.5026 -0.0610
 1039TIP3    H124532   1.870   4.999  16.900 -0.6906 -0.5481 -0.1151
 1039TIP3    H224533   1.773   4.923  16.988 -0.2737 -0.4357  0.4448
 1040TIP3   OH224534   5.077   3.797   5.947 -0.1710 -0.3791 -0.6803
 1040TIP3    H124535   5.049   3.708   5.968 -0.1841  0.1107  1.6823
 1040TIP3    H224536   5.051   3.849   6.024 -0.8290  1.8298 -2.2775
 1041TIP3   OH224537   6.490   5.491  12.094 -0.2211 -0.3662  0.1186
 1041TIP3    H124538   6.437   5.506  12.015  0.4478  0.7033 -0.1495
 1041TIP3    H224539   6.505   5.579  12.129  1.1601 -0.6700  0.3356
 1042TIP3   OH224540   4.395   0.826  13.565  0.3131  0.1128  0.2293
 1042TIP3    H124541   4.322   0.878  13.598 -0.7296 -0.6349 -0.8298
 1042TIP3    H224542   4.473   0.880  13.582 -0.4684  0.9494  1.3104
 1043TIP3   OH224543   5.474   0.290   5.493  0.2493  0.0437 -0.3412
 1043TIP3    H124544   5.548   0.231   5.510  0.7424  0.3621 -1.2863
 1043TIP3    H224545   5.458   0.332   5.577 -1.2880 -2.6750  0.8522
 1044TIP3   OH224546   2.889   5.844   2.290 -0.0173  0.8292  0.2326
 1044TIP3    H124547   2.907   5.771   2.231  0.8556  0.4662  0.9231
 1044TIP3    H224548   2.931   5.920   2.248 -1.1600  1.0089 -0.6207
 1045TIP3   OH224549   6.367   6.455  13.894  0.1463 -0.2668  0.0733
 1045TIP3    H124550   6.294   6.395  13.914  0.5830 -0.5288  0.9628
 1045TIP3    H224551   6.359   6.472  13.800  0.0331 -1.7660 -0.2195
 1046TIP3   OH224552   2.410   2.042   0.863  0.3060  1.0842 -0.7470
 1046TIP3    H124553   2.473   2.096   0.816 -0.5694  2.1100 -0.7730
 1046TIP3    H224554   2.461   1.996   0.930  1.4487  0.1551 -2.2045
 1047TIP3   OH224555   3.069   1.662  14.086  0.9126 -0.6721 -0.0696
 1047TIP3    H124556   3.060   1.612  14.167  0.6308 -0.1199  0.2479
 1047TIP3    H224557   2.996   1.724  14.088 -0.0797 -1.7627 -1.5694
 1048TIP3   OH224558   3.846   1.161  12.072 -0.8120 -0.0861  0.2623
 1048TIP3    H124559   3.867   1.073  12.040  0.6815 -0.2411  1.5696
 1048TIP3    H224560   3.847   1.153  12.167  0.0205  1.4717  0.4187
 1049TIP3   OH224561   5.313   5.229   3.631 -0.1325 -0.3371 -0.6509
 1049TIP3    H124562   5.261   5.299   3.673 -0.8663 -0.7803 -0.7963
 1049TIP3    H224563   5.310   5.157   3.694 -0.1453 -0.5516 -0.9003
 1050TIP3   OH224564   3.634   1.400  15.617  0.1486 -0.1988 -0.6121
 1050TIP3    H124565   3.636   1.457  15.541  1.3588 -1.0988 -1.2823
 1050TIP3    H224566   3.589   1.452  15.684  1.6732  1.7795 -1.0073
 1051TIP3   OH224567   2.686   1.053  15.218  0.3202  0.4746  0.0237
 1051TIP3    H124568   2.760   1.034  15.276  0.9489 -0.3086 -1.0053
 1051TIP3    H224569   2.724   1.103  15.146 -0.2138  0.3802 -0.3295
 1052TIP3   OH224570   1.682   4.491   0.454 -1.0160  0.0718 -0.1394
 1052TIP3    H124571   1.737   4.487   0.533 -0.6269  2.4443 -0.2196
 1052TIP3    H224572   1.611   4.430   0.472 -0.0457 -0.6887  1.3409
 1053TIP3   OH224573   5.962   4.831   6.478 -0.8696 -0.5105 -0.1494
 1053TIP3    H124574   5.957   4.740   6.508 -0.7728 -0.4182  0.1511
 1053TIP3    H224575   6.016   4.827   6.399  0.5200 -0.5029  0.7719
 1054TIP3   OH224576   4.187   4.178   4.280 -0.3135  0.2633  0.1513
 1054TIP3    H124577   4.282   4.182   4.274 -0.1942 -0.7089  1.0309
 1054TIP3    H224578   4.161   4.261   4.321  0.4624 -0.6423  2.6997
 1055TIP3   OH224579   3.069   1.277  10.045 -0.6557 -0.1085  0.2975
 1055TIP3    H124580   3.084   1.300  10.137  0.1910  0.4290  0.0323
 1055TIP3    H224581   3.154   1.247  10.014 -0.6599  0.8254 -0.6391
 1056TIP3   OH224582   2.170   1.464   4.552 -0.7607  0.3922 -0.2891
 1056TIP3    H124583   2.194   1.539   4.607  1.2463 -0.7735  0.5429
 1056TIP3    H224584   2.173   1.389   4.611  0.5321 -0.7694 -1.7448
 1057TIP3   OH224585   1.652   2.309   5.523 -0.4820  0.4598  0.1092
 1057TIP3    H124586   1.698   2.234   5.486 -0.4764  0.5301 -0.0280
 1057TIP3    H224587   1.717   2.351   5.580  0.8242  2.5061 -2.6159
 1058TIP3   OH224588   3.127   5.448   1.526  0.0917 -0.2837 -0.3699
 1058TIP3    H124589   3.182   5.521   1.497 -0.4692  0.8218  1.2137
 1058TIP3    H224590   3.071   5.486   1.594  0.3842 -2.4010  1.1436
 1059TIP3   OH224591   1.179   5.097  13.892 -1.0587  1.0195 -0.4706
 1059TIP3    H124592   1.168   5.190  13.911  1.9506  1.1434  1.3350
 1059TIP3    H224593   1.244   5.067  13.956 -0.4085 -1.8577 -2.2884
 1060TIP3   OH224594   2.164   4.167   2.129  0.7087  0.3689 -0.2092
 1060TIP3    H124595   2.188   4.079   2.100 -1.3758  0.1188 -1.4662
 1060TIP3    H224596   2.131   4.155   2.218  1.9923  0.1935  0.2626
 1061TIP3   OH224597   2.925   6.613   1.934 -0.4076  0.2419  0.3765
 1061TIP3    H124598   2.989   6.662   1.986 -0.4213  0.2883  0.3494
 1061TIP3    H224599   2.918   6.528   1.979 -1.1853  0.6437  1.0490
 1062TIP3   OH224600   3.009   4.035   0.915  0.4936  0.2565  0.0478
 1062TIP3    H124601   3.055   3.959   0.951 -1.5685 -1.4296 -0.7105
 1062TIP3    H224602   3.035   4.038   0.823 -0.6815 -0.6090 -0.3445
 1063TIP3   OH224603   0.587   2.923   3.256 -0.0406  0.1588  0.0545
 1063TIP3    H124604   0.499   2.912   3.221  0.6139 -0.8351 -1.3769
 1063TIP3    H224605   0.621   3.001   3.212 -0.8029  1.6580  1.9803
 1064TIP3   OH224606   2.851   5.319  15.566  0.5145  0.0414 -0.1491
 1064TIP3    H124607   2.871   5.366  15.647  0.6001 -0.6100  0.2153
 1064TIP3    H224608   2.909   5.358  15.501  1.0381  0.0174  0.2926
 1065TIP3   OH224609   6.128   2.063  12.475  0.0718  0.4119 -0.1604
 1065TIP3    H124610   6.037   2.089  12.464  0.1394  1.1579  0.8569
 1065TIP3    H224611   6.125   1.994  12.542  0.1730 -0.2202 -0.7982
 1066TIP3   OH224612   5.187   6.409   2.873  0.0299 -0.2445 -0.1142
 1066TIP3    H124613   5.095   6.433   2.868  0.0586 -0.2299 -0.6488
 1066TIP3    H224614   5.223   6.431   2.787  0.3908 -0.8166 -0.1214
 1067TIP3   OH224615   2.656   0.638  15.813 -0.8106  0.4140 -0.3253
 1067TIP3    H124616   2.669   0.553  15.770 -1.6442 -0.6901  1.5028
 1067TIP3    H224617   2.609   0.618  15.894  2.7770  2.0444  2.4661
 1068TIP3   OH224618   0.147   0.608   0.009  0.5374  0.0264  0.4685
 1068TIP3    H124619   0.222   0.628  -0.047 -0.1186 -1.0098 -0.8295
 1068TIP3    H224620   0.178   0.538   0.067  0.8939  0.3744  0.7075
 1069TIP3   OH224621   0.034   3.871  12.421 -0.3469  0.6556  0.3788
 1069TIP3    H124622   0.039   3.882  12.326  0.2337  0.2761  0.3571
 1069TIP3    H224623   0.105   3.924  12.455 -0.3405  0.5232  0.5754
 1070TIP3   OH224624   4.629   1.768  16.602 -0.0749 -0.3947  0.3099
 1070TIP3    H124625   4.662   1.679  16.593  0.5213 -0.2250  0.7609
 1070TIP3    H224626   4.623   1.783  16.697 -0.7796 -0.1746  0.2373
 1071TIP3   OH224627   6.156   1.480  13.247  0.1169 -0.7094  0.0044
 1071TIP3    H124628   6.070   1.484  13.206 -0.3279 -0.5798  0.9318
 1071TIP3    H224629   6.216   1.459  13.175 -0.1844  2.4190 -1.3157
 1072TIP3   OH224630   3.701   5.543  16.545 -0.0392 -0.8313 -0.6863
 1072TIP3    H124631   3.663   5.492  16.616 -1.1628  0.7971 -0.0551
 1072TIP3    H224632   3.714   5.631  16.582  0.0652 -0.1492 -2.2443
 1073TIP3   OH224633   5.994   2.578   1.029  0.1372  0.0714 -0.3953
 1073TIP3    H124634   5.924   2.637   1.056 -0.4352 -1.0054  0.5599
 1073TIP3    H224635   5.950   2.509   0.980  0.6925  0.0019 -0.8084
 1074TIP3   OH224636   3.786   0.156  14.919 -0.5108 -0.5681 -0.4829
 1074TIP3    H124637   3.876   0.182  14.937 -0.7207 -0.3871  0.3614
 1074TIP3    H224638   3.787   0.123  14.829  0.3772 -0.4912 -0.5018
 1075TIP3   OH224639   0.440   6.303  15.942 -0.3714 -0.9149  0.0942
 1075TIP3    H124640   0.478   6.353  16.014 -1.7001  0.9876 -0.4386
 1075TIP3    H224641   0.403   6.225  15.983  0.0622 -0.5204  1.2662
 1076TIP3   OH224642   4.985   2.356   2.897  0.0052 -0.8865 -0.6748
 1076TIP3    H124643   4.914   2.416   2.875  0.1400  1.1489  3.4488
 1076TIP3    H224644   4.943   2.290   2.952  0.8500 -1.2263 -0.4284
 1077TIP3   OH224645   5.946   4.169   2.776  0.1759 -0.3830 -0.6671
 1077TIP3    H124646   5.862   4.164   2.730  0.2480 -1.2263 -0.7072
 1077TIP3    H224647   5.993   4.090   2.750  0.8097 -0.1318 -0.2998
 1078TIP3   OH224648   5.808   6.069  11.761  0.2434  0.0854  0.3477
 1078TIP3    H124649   5.775   6.025  11.682 -1.3090  2.4851 -0.4573
 1078TIP3    H224650   5.740   6.055  11.826  0.3687  0.1904  0.5003
 1079TIP3   OH224651   6.428   2.714  17.079  0.2295 -0.2844  0.7716
 1079TIP3    H124652   6.422   2.762  17.162  0.1579 -0.4241  0.8487
 1079TIP3    H224653   6.521   2.696  17.069  0.2944  0.1700  0.5684
 1080TIP3   OH224654   1.106   0.792  11.097 -0.3303 -0.1381 -0.0842
 1080TIP3    H124655   1.101   0.753  11.010 -1.0634  1.4530 -0.8061
 1080TIP3    H224656   1.171   0.862  11.089  1.8856 -1.8796  1.5049
 1081TIP3   OH224657   3.847   4.240  15.645  0.2208  0.1576  0.1017
 1081TIP3    H124658   3.814   4.202  15.726 -2.1917 -0.3520 -1.0217
 1081TIP3    H224659   3.833   4.334  15.655 -0.3930  0.0631  0.1664
 1082TIP3   OH224660   1.449   6.211   1.912  0.1080  0.3700 -0.2202
 1082TIP3    H124661   1.362   6.217   1.872  0.0252  1.0566  0.0383
 1082TIP3    H224662   1.497   6.149   1.857 -1.3484 -2.1082  1.1532
 1083TIP3   OH224663   4.002   1.142   2.600 -0.0735  0.2622  0.0581
 1083TIP3    H124664   4.089   1.179   2.612 -0.1804  1.2122 -1.8254
 1083TIP3    H224665   3.960   1.199   2.536 -1.6201 -0.9397 -0.0612
 1084TIP3   OH224666   3.325   6.744   0.246  0.1784  0.6324 -0.1970
 1084TIP3    H124667   3.331   6.649   0.253 -0.4634  0.6285  0.3865
 1084TIP3    H224668   3.359   6.777   0.329 -0.2197  0.8885 -0.1343
 1085TIP3   OH224669   5.208   2.311   3.091  0.0455 -0.6601 -0.5191
 1085TIP3    H124670   5.221   2.377   3.159 -2.8423 -1.5474  1.0597
 1085TIP3    H224671   5.156   2.355   3.024 -0.9018 -0.9648 -0.0045
 1086TIP3   OH224672   2.551   3.271  15.187 -0.1657 -0.4063  0.4349
 1086TIP3    H124673   2.565   3.365  15.175  0.2015 -0.3931  0.9473
 1086TIP3    H224674   2.468   3.253  15.142 -0.1985  0.1464  0.2710
 1087TIP3   OH224675   2.930   1.496   1.300 -0.7441  0.3357 -0.1513
 1087TIP3    H124676   2.965   1.410   1.321  1.3843  1.4101  1.1068
 1087TIP3    H224677   2.844   1.498   1.342 -0.3928 -0.8370  0.6743
 1088TIP3   OH224678   5.884   2.268  13.663  1.0781  0.3782 -0.5092
 1088TIP3    H124679   5.878   2.223  13.578  2.4344 -0.1596 -0.3382
 1088TIP3    H224680   5.837   2.351  13.649 -0.2063 -0.4456 -1.2571
 1089TIP3   OH224681   5.753   6.318   2.924  0.8894 -0.0513  0.7595
 1089TIP3    H124682   5.672   6.369   2.930  1.7080  1.5084 -0.5909
 1089TIP3    H224683   5.753   6.283   2.835  2.4116  1.3325  0.1570
 1090TIP3   OH224684   4.839   0.808  16.362  0.4322  0.0468 -0.2461
 1090TIP3    H124685   4.858   0.810  16.456 -0.8080  1.3999  0.0162
 1090TIP3    H224686   4.758   0.859  16.353  1.2367  1.0836 -2.1999
 1091TIP3   OH224687   5.035   3.986   1.130 -0.4804  0.2832 -0.5080
 1091TIP3    H124688   5.122   3.977   1.168 -0.1979  0.7617 -1.0230
 1091TIP3    H224689   4.978   4.002   1.205 -0.4197 -1.7633  0.0217
 1092TIP3   OH224690   1.668   1.347   4.066 -0.6548  0.3223 -0.4272
 1092TIP3    H124691   1.713   1.267   4.038 -0.1200 -0.1093  1.4937
 1092TIP3    H224692   1.672   1.405   3.990 -0.7903 -1.3457 -1.7753
 1093TIP3   OH224693   4.660   6.253   2.993  0.0079  0.3097  0.7024
 1093TIP3    H124694   4.613   6.262   3.076 -0.9718 -0.4797  0.2540
 1093TIP3    H224695   4.646   6.162   2.967  2.5331 -0.2071  0.9588
 1094TIP3   OH224696   5.623   4.430   2.306 -0.0845 -0.5755  0.2958
 1094TIP3    H124697   5.595   4.493   2.239  0.3033 -0.0370  0.6296
 1094TIP3    H224698   5.714   4.410   2.284  0.3117  0.2372  1.1189
 1095TIP3   OH224699   2.869   3.000   0.134  0.1565  0.0213 -0.0141
 1095TIP3    H124700   2.939   3.000   0.069 -0.9596  0.4089 -1.2612
 1095TIP3    H224701   2.912   3.024   0.216  1.2877  1.5240 -0.9885
 1096TIP3   OH224702   2.624   3.993  10.539  0.3828  0.2778 -0.3050
 1096TIP3    H124703   2.705   3.959  10.577 -0.1314  0.4906  1.0052
 1096TIP3    H224704   2.630   4.087  10.549  0.9131  0.4903 -2.1590
 1097TIP3   OH224705   2.647   6.045  15.901  0.3756 -0.2145 -0.0590
 1097TIP3    H124706   2.714   6.113  15.897  1.2254 -1.0473 -0.1170
 1097TIP3    H224707   2.678   5.984  15.967 -1.4751  0.5587  1.6443
 1098TIP3   OH224708   1.433   2.553  16.747 -0.0226 -0.4059 -0.1635
 1098TIP3    H124709   1.428   2.461  16.771  2.8821 -0.4688  0.5553
 1098TIP3    H224710   1.357   2.593  16.790  1.5331 -1.6003  4.2104
 1099TIP3   OH224711   6.646   0.303  14.241  0.2240 -0.3750 -0.2795
 1099TIP3    H124712   6.594   0.245  14.185  0.5850 -0.6218 -0.3568
 1099TIP3    H224713   6.703   0.351  14.180  0.1977 -0.2138 -0.1786
 1100TIP3   OH224714   1.595   0.612   5.509 -0.2547  0.2049 -0.1497
 1100TIP3    H124715   1.603   0.654   5.424 -0.0014  0.0013 -0.2282
 1100TIP3    H224716   1.625   0.522   5.494 -1.4843 -0.2252 -0.1634
 1101TIP3   OH224717   1.099   4.168   1.395  0.1516 -0.0820 -0.2542
 1101TIP3    H124718   1.030   4.105   1.418 -0.3874  0.5863  0.0057
 1101TIP3    H224719   1.173   4.144   1.451  0.0792 -0.7136 -0.4235
 1102TIP3   OH224720   4.937   4.341  15.014 -0.0448  0.0642  0.4309
 1102TIP3    H124721   4.897   4.426  15.030  0.4328  0.5712 -0.9056
 1102TIP3    H224722   5.026   4.362  14.985 -0.0303 -0.8672 -0.2387
 1103TIP3   OH224723   0.387   0.136  16.679 -0.0734 -0.2741  0.1133
 1103TIP3    H124724   0.460   0.082  16.706 -0.6806 -1.0288  0.2850
 1103TIP3    H224725   0.340   0.157  16.760 -0.2920 -0.1661 -0.0379
 1104TIP3   OH224726   3.407   4.178  16.422 -0.8668  0.0051 -0.3176
 1104TIP3    H124727   3.328   4.187  16.370 -0.6970  0.5617 -0.4860
 1104TIP3    H224728   3.436   4.268  16.437 -0.2420 -0.1953 -0.2981
 1105TIP3   OH224729   3.264   1.210  16.126 -0.1111  0.4754  0.5510
 1105TIP3    H124730   3.317   1.210  16.046 -0.0177  0.8287  0.6144
 1105TIP3    H224731   3.173   1.209  16.094 -0.1340 -2.5766  0.4047
 1106TIP3   OH224732   6.287   1.956  12.802 -0.0688 -0.0687  0.0908
 1106TIP3    H124733   6.238   1.893  12.749  0.2233 -2.3696  2.3847
 1106TIP3    H224734   6.356   1.987  12.744 -2.0795  0.6460 -2.1123
 1107TIP3   OH224735   2.970   0.212   3.351 -0.0885 -0.1307 -0.1366
 1107TIP3    H124736   2.916   0.179   3.423 -1.0158 -2.4377 -1.7707
 1107TIP3    H224737   2.908   0.239   3.284  0.7037 -1.1652 -1.3479
 1108TIP3   OH224738   5.277   3.549  15.177  0.5074  1.0024  0.7958
 1108TIP3    H124739   5.323   3.465  15.175  1.1345  1.3526  0.1248
 1108TIP3    H224740   5.286   3.584  15.088 -2.2425  0.4681  0.2009
 1109TIP3   OH224741   0.555   3.279   2.704  0.7127 -0.4950 -0.0200
 1109TIP3    H124742   0.486   3.234   2.752  1.1441 -1.3844 -0.2220
 1109TIP3    H224743   0.508   3.343   2.650  0.1476 -0.2129  0.7835
 1110TIP3   OH224744   4.035   0.236   3.359 -0.2632 -0.2083  0.2112
 1110TIP3    H124745   4.026   0.298   3.431  0.4905 -0.5749  0.6421
 1110TIP3    H224746   4.085   0.282   3.293 -0.5895 -0.0110  0.1038
 1111TIP3   OH224747   1.070   5.292   5.788  0.2213  0.0748 -0.2378
 1111TIP3    H124748   1.158   5.318   5.761  0.3135  0.2712  0.2367
 1111TIP3    H224749   1.018   5.372   5.779  0.1208 -0.0077 -0.3926
 1112TIP3   OH224750   2.344   4.466  13.564  0.4140 -0.4962 -0.2756
 1112TIP3    H124751   2.436   4.442  13.550  1.0798  1.8507 -0.2624
 1112TIP3    H224752   2.322   4.522  13.490 -0.1846  1.0706  1.0286
 1113TIP3   OH224753   5.094   5.446  13.030  0.2635  0.6544 -0.0904
 1113TIP3    H124754   5.045   5.369  13.059  0.3112  0.2648 -1.0104
 1113TIP3    H224755   5.165   5.411  12.977  1.2624  1.2436  0.8052
 1114TIP3   OH224756   2.001   6.245   4.912  0.7618  0.1252 -0.3254
 1114TIP3    H124757   2.018   6.235   5.006  0.3741  0.4145 -0.2237
 1114TIP3    H224758   1.967   6.160   4.885  0.4461  0.1813 -0.1093
 1115TIP3   OH224759   1.715   4.519  16.445  0.0687  0.2347  0.4264
 1115TIP3    H124760   1.637   4.514  16.391 -1.2791  0.5045  2.2604
 1115TIP3    H224761   1.751   4.606  16.427  0.0680  0.0428 -0.5516
 1116TIP3   OH224762   1.800   4.459   4.959 -0.5604  0.5145  0.8918
 1116TIP3    H124763   1.893   4.478   4.950 -0.5436  0.5335  1.0847
 1116TIP3    H224764   1.756   4.542   4.938 -0.6374  0.0472 -0.9855
 1117TIP3   OH224765   3.211   1.208  16.421  0.1181 -0.3478  0.2884
 1117TIP3    H124766   3.224   1.173  16.333 -0.4659 -0.0483  0.0769
 1117TIP3    H224767   3.300   1.222  16.454  0.3478 -0.7653 -0.1238
 1118TIP3   OH224768   6.702   0.909  15.017  0.6103  0.7285  1.0292
 1118TIP3    H124769   6.730   0.982  15.073 -1.3643  1.7024  0.8395
 1118TIP3    H224770   6.716   0.940  14.928  3.2535 -0.6233  0.8706
 1119TIP3   OH224771   2.857   1.407  13.574 -0.1276 -0.6899  0.1109
 1119TIP3    H124772   2.776   1.422  13.621  0.2821  1.9078  0.0923
 1119TIP3    H224773   2.847   1.455  13.492  2.0508  1.2468  0.8607
 1120TIP3   OH224774   0.338   6.674   0.737 -0.3604  0.1316  0.0205
 1120TIP3    H124775   0.379   6.595   0.771 -0.3847 -0.0845 -0.4468
 1120TIP3    H224776   0.389   6.746   0.774  2.3723 -0.1387 -2.8319
 1121TIP3   OH224777   1.056   6.373  16.312  0.1659  0.0536  0.0118
 1121TIP3    H124778   1.130   6.375  16.373  1.5878  0.4047 -1.6609
 1121TIP3    H224779   1.022   6.462  16.311  0.6606  0.2391 -0.3195
 1122TIP3   OH224780   1.521   1.469   2.534 -0.2987  0.6158  0.1910
 1122TIP3    H124781   1.578   1.404   2.575 -0.7516  1.0511  1.5675
 1122TIP3    H224782   1.546   1.468   2.442  1.0517 -0.1067  0.5339
 1123TIP3   OH224783   0.438   0.837   6.050 -0.0989 -0.2803  0.2605
 1123TIP3    H124784   0.501   0.905   6.027 -0.4043  0.3687  1.2929
 1123TIP3    H224785   0.490   0.757   6.055  0.8195  0.3777  1.8740
 1124TIP3   OH224786   3.191   5.397  14.030 -0.3387  0.2512 -0.8918
 1124TIP3    H124787   3.111   5.351  14.055 -0.5647  0.4564 -1.2309
 1124TIP3    H224788   3.224   5.349  13.954  0.8099 -0.8894  0.2864
 1125TIP3   OH224789   5.705   3.791   0.237 -0.7160  0.0889  0.5268
 1125TIP3    H124790   5.720   3.719   0.175 -0.7675  0.0780  0.5266
 1125TIP3    H224791   5.623   3.830   0.209 -1.0949 -0.3454  0.9936
 1126TIP3   OH224792   0.090   2.643   0.285 -0.5205  0.2464  0.6580
 1126TIP3    H124793   0.168   2.698   0.282 -0.3061 -0.0756  0.2793
 1126TIP3    H224794   0.087   2.600   0.199  0.4266 -1.8753  1.6223
 1127TIP3   OH224795   3.712   0.695  12.716 -0.6128 -0.9818  0.2217
 1127TIP3    H124796   3.688   0.746  12.638  1.2796  0.2697  0.4059
 1127TIP3    H224797   3.748   0.614  12.681  1.2415  0.0107 -0.3277
 1128TIP3   OH224798   6.696   0.546  15.816  0.2450 -0.5610  0.4944
 1128TIP3    H124799   6.784   0.510  15.806  0.9533  1.4199 -1.2300
 1128TIP3    H224800   6.654   0.532  15.731 -1.1813 -1.5760  1.3267
 1129TIP3   OH224801   5.177   0.639   5.297 -0.1134 -0.4066  0.8779
 1129TIP3    H124802   5.171   0.610   5.388  0.8009 -1.5046  0.6052
 1129TIP3    H224803   5.260   0.602   5.265 -0.9385 -0.9565 -0.7290
 1130TIP3   OH224804   1.441   2.731  13.193 -0.3152 -0.1239 -0.6285
 1130TIP3    H124805   1.385   2.795  13.237  1.1999  1.0539 -0.3348
 1130TIP3    H224806   1.407   2.646  13.221 -1.3896  0.5696  0.2420
 1131TIP3   OH224807   2.235   1.692   3.668 -0.1729 -0.0533  0.1363
 1131TIP3    H124808   2.307   1.737   3.713 -0.9862  0.8032  0.6097
 1131TIP3    H224809   2.266   1.602   3.658  1.0431  0.3432  0.1559
 1132TIP3   OH224810   6.467   6.758  15.984 -0.5671 -0.8532  0.6809
 1132TIP3    H124811   6.436   6.807  15.908  0.3670  0.3073  1.0165
 1132TIP3    H224812   6.427   6.672  15.975 -2.2311 -0.0576  0.0396
 1133TIP3   OH224813   5.918   5.897   4.437 -0.4760  0.2610  0.3270
 1133TIP3    H124814   5.918   5.805   4.411  2.3400  0.2407  0.0736
 1133TIP3    H224815   5.850   5.937   4.383 -0.7572 -1.3924 -0.6188
 1134TIP3   OH224816   0.666   5.988   3.389  0.8033  0.2427  0.2643
 1134TIP3    H124817   0.725   5.916   3.369  0.8409  0.2815  0.2362
 1134TIP3    H224818   0.616   5.957   3.465 -0.2500 -0.4331 -0.6694
 1135TIP3   OH224819   6.367   4.307   0.840  0.3538  0.1929 -0.0410
 1135TIP3    H124820   6.292   4.307   0.780  1.1013  0.7387 -1.0269
 1135TIP3    H224821   6.433   4.253   0.796  1.1115  1.0363  0.0102
 1136TIP3   OH224822   6.482   4.341   4.997 -0.5459  0.2780 -0.2142
 1136TIP3    H124823   6.470   4.302   4.910  0.1526  1.5690 -0.9114
 1136TIP3    H224824   6.577   4.350   5.006 -0.5640 -0.5351  1.0149
 1137TIP3   OH224825   5.448   3.370  13.409  0.9222  0.6006 -0.1867
 1137TIP3    H124826   5.490   3.328  13.483 -0.7988  0.4711  0.7559
 1137TIP3    H224827   5.362   3.398  13.442  0.7182  1.9133 -1.6950
 1138TIP3   OH224828   6.524   5.849   5.995  0.7934 -0.4223  0.3255
 1138TIP3    H124829   6.456   5.824   5.933  0.4330 -0.4795  0.7452
 1138TIP3    H224830   6.484   5.917   6.049  0.4424 -1.7161  1.7635
 1139TIP3   OH224831   1.045   6.129   2.339  0.0963  0.0690 -0.4411
 1139TIP3    H124832   1.112   6.079   2.293 -2.4650 -2.0702 -2.1477
 1139TIP3    H224833   1.017   6.195   2.276 -0.0688  0.3225 -0.1046
 1140TIP3   OH224834   4.512   2.590   4.354 -0.5132  0.2051 -0.0626
 1140TIP3    H124835   4.511   2.685   4.367  0.4504  0.3132 -0.6623
 1140TIP3    H224836   4.431   2.559   4.394 -2.2688  1.5806 -2.3223
 1141TIP3   OH224837   1.878   3.484   4.013  0.3914  0.3688  0.2839
 1141TIP3    H124838   1.829   3.403   4.025 -1.0663  0.8287 -2.0303
 1141TIP3    H224839   1.879   3.524   4.100 -2.1943 -0.3316  0.7141
 1142TIP3   OH224840   3.615   5.248  16.396 -0.1713 -0.0366  0.5293
 1142TIP3    H124841   3.704   5.274  16.419 -0.4416  0.4745  0.9982
 1142TIP3    H224842   3.605   5.160  16.433  0.9300 -1.1017 -1.5192
 1143TIP3   OH224843   2.004   3.511   6.607  0.4644  0.0538  0.7461
 1143TIP3    H124844   2.045   3.488   6.690  0.1385  1.8131  1.4295
 1143TIP3    H224845   1.957   3.592   6.624 -1.0602 -0.4555 -0.7248
 1144TIP3   OH224846   0.183   1.077   0.897 -0.0700 -0.6945 -0.1176
 1144TIP3    H124847   0.241   1.003   0.879  1.0669 -0.1081  0.9782
 1144TIP3    H224848   0.113   1.040   0.951 -0.0554 -1.1574 -0.4061
 1145TIP3   OH224849   5.630   0.052   0.018  0.4559 -0.1590  0.2716
 1145TIP3    H124850   5.719   0.066  -0.013  0.9987 -0.7646  1.4547
 1145TIP3    H224851   5.608  -0.037  -0.010 -0.5791  0.6612 -1.7531
 1146TIP3   OH224852   4.127   5.031   2.558  0.6810 -0.2506 -0.0787
 1146TIP3    H124853   4.185   5.091   2.606  1.5501 -2.1776  1.4470
 1146TIP3    H224854   4.039   5.063   2.576  1.1324  1.9498 -1.3336
 1147TIP3   OH224855   3.589   1.432  14.715  0.1918  0.1479 -0.0608
 1147TIP3    H124856   3.643   1.360  14.747 -1.1026 -0.4630  0.8601
 1147TIP3    H224857   3.505   1.421  14.760 -1.3791 -0.0523 -2.7821
 1148TIP3   OH224858   4.106   4.159  11.825 -0.0546 -0.5221  0.1831
 1148TIP3    H124859   4.175   4.100  11.856  0.0368 -0.3739  0.2677
 1148TIP3    H224860   4.079   4.123  11.741  2.8835  1.5322 -1.8527
 1149TIP3   OH224861   3.518   4.984   3.775  0.7407 -0.5961 -0.1269
 1149TIP3    H124862   3.516   5.050   3.844  0.8044 -0.1166 -0.5821
 1149TIP3    H224863   3.519   4.900   3.822 -0.2018 -0.2977  0.4455
 1150TIP3   OH224864   0.141   2.022  16.461  0.2367 -0.3236  0.1379
 1150TIP3    H124865   0.188   2.075  16.525 -0.9359  0.3100  0.5148
 1150TIP3    H224866   0.093   2.086  16.408 -0.9569 -0.9739  0.3983
 1151TIP3   OH224867   0.685   3.794  14.297 -0.2023 -0.3441 -0.0180
 1151TIP3    H124868   0.600   3.831  14.275 -0.0849  0.3748  0.7174
 1151TIP3    H224869   0.667   3.701  14.315 -0.5157 -0.6461 -1.7098
 1152TIP3   OH224870   2.022   5.705  13.747  0.2348 -0.1943 -0.2582
 1152TIP3    H124871   2.111   5.722  13.717  0.0210  5.3104  1.1570
 1152TIP3    H224872   2.031   5.685  13.840  0.0520  0.1847 -0.1558
 1153TIP3   OH224873   5.488   6.723  13.931 -0.2882  0.5379  0.9163
 1153TIP3    H124874   5.558   6.782  13.961  0.2218 -0.0693  0.9364
 1153TIP3    H224875   5.473   6.665  14.006 -0.3919  0.2830  0.6969
 1154TIP3   OH224876   1.390   0.570  12.784 -0.3244  0.3682 -0.2139
 1154TIP3    H124877   1.325   0.554  12.852  0.9514  0.5728  1.0942
 1154TIP3    H224878   1.402   0.485  12.741 -0.0212 -0.1433  0.8518
 1155TIP3   OH224879   5.833   1.425  16.793 -0.5756  0.3243 -0.0533
 1155TIP3    H124880   5.847   1.484  16.719 -1.1396 -0.8642 -1.1218
 1155TIP3    H224881   5.869   1.341  16.765 -1.8040 -0.4394  0.5690
 1156TIP3   OH224882   3.066   2.998  11.633  0.3745  0.1153  0.2322
 1156TIP3    H124883   2.987   3.033  11.674  1.1964 -0.0482  2.0435
 1156TIP3    H224884   3.128   3.071  11.634  0.5298  0.0067 -0.4516
 1157TIP3   OH224885   4.477   6.026  10.370  0.4845 -0.0154 -0.1042
 1157TIP3    H124886   4.485   5.955  10.306 -0.2915  0.9561 -1.3341
 1157TIP3    H224887   4.433   6.096  10.322  2.1079  1.6775  0.7777
 1158TIP3   OH224888   3.226   4.957   5.338 -0.0340 -0.2780  0.1275
 1158TIP3    H124889   3.172   4.935   5.415 -2.2254 -1.5234 -1.6588
 1158TIP3    H224890   3.311   4.918   5.357 -0.0794  0.5998  2.4790
 1159TIP3   OH224891   0.510   0.120   3.355  0.2030  0.1494 -0.2170
 1159TIP3    H124892   0.574   0.049   3.361  0.6372  0.6442  3.8085
 1159TIP3    H224893   0.429   0.076   3.328  1.0964 -1.3358 -0.6306
 1160TIP3   OH224894   4.473   6.652   0.445 -0.5908  0.0072  0.3224
 1160TIP3    H124895   4.476   6.624   0.537 -0.1270  1.2240  0.6944
 1160TIP3    H224896   4.550   6.706   0.434  0.4540 -1.7035 -1.3634
 1161TIP3   OH224897   1.136   2.559  14.773 -0.0023 -0.2827  0.0832
 1161TIP3    H124898   1.079   2.619  14.821  0.1107  1.6702 -2.0861
 1161TIP3    H224899   1.215   2.611  14.755  0.8953 -1.7083 -0.2445
 1162TIP3   OH224900   1.245   2.421  11.930  0.1336 -0.1154 -1.0096
 1162TIP3    H124901   1.263   2.497  11.987 -2.5155 -1.0733  1.3126
 1162TIP3    H224902   1.310   2.356  11.957 -0.9441 -0.4806  0.8997
 1163TIP3   OH224903   4.247   4.399  12.459 -0.0382  0.3983  0.3160
 1163TIP3    H124904   4.336   4.384  12.426 -0.6538 -0.3784 -1.0808
 1163TIP3    H224905   4.229   4.321  12.513  0.2062  0.6751  0.8065
 1164TIP3   OH224906   5.523   4.924  15.967  0.3740  0.2610  0.6005
 1164TIP3    H124907   5.578   4.985  15.918  1.0692  1.0370  2.2639
 1164TIP3    H224908   5.569   4.840  15.962  0.5626  0.3880  0.1592
 1165TIP3   OH224909   6.343   5.713   5.274  0.3631 -0.2897 -0.0586
 1165TIP3    H124910   6.301   5.721   5.360  2.1580  0.7811  0.7867
 1165TIP3    H224911   6.405   5.786   5.271 -1.1301  1.0399 -3.1841
 1166TIP3   OH224912   6.081   0.224   0.640  0.5168  0.1188 -0.3674
 1166TIP3    H124913   6.051   0.171   0.714  0.0952  1.1277  0.2050
 1166TIP3    H224914   6.032   0.189   0.565  0.6256 -0.6320 -0.0957
 1167TIP3   OH224915   1.682   1.565  10.999 -0.5396 -0.3865 -0.1132
 1167TIP3    H124916   1.675   1.559  10.904 -0.6271  1.3540 -0.2616
 1167TIP3    H224917   1.773   1.543  11.018  0.2547  1.8414 -0.9387
 1168TIP3   OH224918   3.050   1.963  15.974  0.3006 -0.3182 -0.3944
 1168TIP3    H124919   2.996   2.018  16.031  0.8276 -0.1005 -0.0932
 1168TIP3    H224920   3.001   1.957  15.892 -0.2464 -0.2469 -0.0800
 1169TIP3   OH224921   4.639   5.346   3.116 -0.0120  0.1434  0.0945
 1169TIP3    H124922   4.728   5.315   3.132 -0.0564  0.0162  0.0963
 1169TIP3    H224923   4.612   5.383   3.200  0.1341  0.4177  0.0187
 1170TIP3   OH224924   4.723   6.303  12.499 -0.0007  0.1002 -0.3037
 1170TIP3    H124925   4.642   6.254  12.510 -1.2076  1.8106 -1.0749
 1170TIP3    H224926   4.755   6.317  12.588 -0.9224 -0.0212  0.0533
 1171TIP3   OH224927   5.047   1.304   3.061 -0.4141 -0.1810  0.8402
 1171TIP3    H124928   5.020   1.331   2.973  0.2330 -1.7059  0.1411
 1171TIP3    H224929   4.997   1.361   3.120 -1.3530  0.4237 -0.4908
 1172TIP3   OH224930   5.730   6.167   2.686  0.1017 -0.0343  0.2581
 1172TIP3    H124931   5.763   6.162   2.596  0.3803 -0.5637  0.3838
 1172TIP3    H224932   5.701   6.079   2.706  2.0876 -0.5043  1.4331
 1173TIP3   OH224933   4.866   3.351  14.202  0.0430 -0.0130 -0.4696
 1173TIP3    H124934   4.791   3.405  14.228  0.5647 -0.1611  1.5090
 1173TIP3    H224935   4.896   3.311  14.283  1.9277 -0.4127 -1.3064
 1174TIP3   OH224936   3.290   5.978  14.255 -0.0082 -0.2673  0.3945
 1174TIP3    H124937   3.246   5.898  14.225 -0.3788  0.2161 -0.3778
 1174TIP3    H224938   3.280   5.977  14.350 -0.2818 -0.9786  0.3656
 1175TIP3   OH224939   6.267   6.519   3.863 -0.0378  0.4406 -0.0505
 1175TIP3    H124940   6.315   6.529   3.781 -0.2743  0.0407 -0.2395
 1175TIP3    H224941   6.319   6.457   3.913 -0.5450 -0.2805 -0.4052
 1176TIP3   OH224942   2.144   4.041  16.613 -0.5553 -0.0103  0.1886
 1176TIP3    H124943   2.229   4.069  16.648 -0.5138 -0.5402  0.5288
 1176TIP3    H224944   2.150   3.946  16.610 -0.2072  0.0444 -2.2090
 1177TIP3   OH224945   1.818   6.464   1.214 -0.1650 -0.0308  0.1534
 1177TIP3    H124946   1.808   6.512   1.131 -0.0333 -1.0593 -0.4777
 1177TIP3    H224947   1.910   6.478   1.239 -0.7868  2.2423  1.4027
 1178TIP3   OH224948   6.114   6.653   4.891 -0.1008 -0.3609  0.0780
 1178TIP3    H124949   6.107   6.651   4.987  1.7000  0.2577  0.2700
 1178TIP3    H224950   6.142   6.742   4.870 -0.8424 -0.3799 -1.0728
 1179TIP3   OH224951   4.755   2.497   2.910 -0.2055  0.0437 -0.2082
 1179TIP3    H124952   4.741   2.411   2.949  0.3736 -0.2411 -0.6140
 1179TIP3    H224953   4.699   2.556   2.961  1.4837 -0.0766  1.9214
 1180TIP3   OH224954   3.452   1.048  13.951  0.5223 -0.2795  0.6330
 1180TIP3    H124955   3.456   1.025  14.044 -0.9731 -1.0163  0.5539
 1180TIP3    H224956   3.374   1.103  13.944  0.1312 -0.9217 -0.2953
 1181TIP3   OH224957   6.368   3.082  11.184  0.5225 -0.0735 -0.1668
 1181TIP3    H124958   6.327   3.091  11.270 -0.0960  0.3339 -0.4967
 1181TIP3    H224959   6.368   3.171  11.148  1.6847 -0.0674 -0.1843
 1182TIP3   OH224960   6.491   1.011   4.549 -0.1332  0.0004  0.3763
 1182TIP3    H124961   6.557   0.947   4.577 -0.3982  0.0048  1.0343
 1182TIP3    H224962   6.409   0.961   4.545 -0.2818  0.2274  0.5722
 1183TIP3   OH224963   3.354   1.849   5.389  0.5404 -0.1536 -0.0251
 1183TIP3    H124964   3.327   1.810   5.306  0.0777  1.3051 -0.5843
 1183TIP3    H224965   3.274   1.853   5.441  0.7846 -0.8500  0.4261
 1184TIP3   OH224966   1.796   5.852   1.697  0.3068  0.5425 -0.1935
 1184TIP3    H124967   1.826   5.817   1.781  0.2829  2.9277  0.9026
 1184TIP3    H224968   1.768   5.941   1.717 -1.1731  0.6669 -2.4770
 1185TIP3   OH224969   6.474   5.280  15.665 -0.0860 -1.2324  0.5061
 1185TIP3    H124970   6.383   5.250  15.660 -0.3635 -0.3838  0.2892
 1185TIP3    H224971   6.472   5.368  15.628  0.5811 -0.6785  1.7366
 1186TIP3   OH224972   6.345   3.217  15.710  0.2579 -0.9358 -0.2719
 1186TIP3    H124973   6.341   3.122  15.700  0.6336 -0.7796 -2.3306
 1186TIP3    H224974   6.390   3.247  15.631  0.2766  0.9498  0.4171
 1187TIP3   OH224975   3.278   2.294  10.697 -0.2902 -0.3822  1.0510
 1187TIP3    H124976   3.242   2.231  10.760 -0.6705 -0.8531  0.3681
 1187TIP3    H224977   3.307   2.240  10.624 -1.7158  0.3304 -0.0736
 1188TIP3   OH224978   1.913   2.901  10.989 -0.9953  0.4852  0.0099
 1188TIP3    H124979   1.857   2.933  10.919 -1.7703  0.5583  0.6467
 1188TIP3    H224980   1.865   2.826  11.025  0.2713 -0.7307 -0.7479
 1189TIP3   OH224981   4.825   0.759   4.492  0.3100 -0.6658  0.3136
 1189TIP3    H124982   4.766   0.775   4.419 -0.9513  1.2031  1.6519
 1189TIP3    H224983   4.859   0.846   4.515  1.5860 -1.3631  1.2266
 1190TIP3   OH224984   1.140   3.075   5.206  0.2316  0.1164 -0.0929
 1190TIP3    H124985   1.166   3.058   5.297  0.0012  0.6185  0.0733
 1190TIP3    H224986   1.076   3.146   5.213  0.2856  0.2210 -0.6591
 1191TIP3   OH224987   2.992   5.289  11.307 -0.2218  0.5280 -0.0322
 1191TIP3    H124988   2.955   5.252  11.387  0.3894  0.2158  0.1093
 1191TIP3    H224989   3.053   5.356  11.338  0.5025 -0.0368 -0.2021
 1192TIP3   OH224990   0.109   2.675   4.814 -1.0538  0.4462  0.3977
 1192TIP3    H124991   0.144   2.588   4.834  1.6411  1.2785 -0.3631
 1192TIP3    H224992   0.025   2.657   4.771 -1.1512 -1.7126  1.3583
 1193TIP3   OH224993   2.321   6.081  12.324  0.0493 -0.2934  0.0494
 1193TIP3    H124994   2.266   6.129  12.262 -0.8977 -0.7850  0.4862
 1193TIP3    H224995   2.287   5.991  12.322  0.4192 -0.4592  0.8084
 1194TIP3   OH224996   3.571   6.490   3.334  0.1754 -0.2945  0.2666
 1194TIP3    H124997   3.593   6.398   3.353 -1.3768 -0.7298  0.1393
 1194TIP3    H224998   3.631   6.515   3.265  0.0395 -1.5317 -0.3333
 1195TIP3   OH224999   3.577   5.143   5.372 -0.5295  0.3533  0.1469
 1195TIP3    H125000   3.544   5.229   5.346  0.4451  0.8314  0.3973
 1195TIP3    H225001   3.563   5.140   5.467  0.4305  0.7198  0.3174
 1196TIP3   OH225002   4.408   3.345  11.548  0.8747 -0.2647 -0.0942
 1196TIP3    H125003   4.348   3.324  11.620 -1.1673  0.1893 -1.5429
 1196TIP3    H225004   4.425   3.439  11.557  1.5164 -0.4269  0.4148
 1197TIP3   OH225005   5.475   1.407   2.608 -0.0890 -0.2782 -0.5007
 1197TIP3    H125006   5.477   1.333   2.669 -0.4363  0.9221  1.0331
 1197TIP3    H225007   5.567   1.427   2.592  0.0139 -0.4159 -0.1083
 1198TIP3   OH225008   5.876   1.808   3.157 -0.0006 -0.2977 -0.0630
 1198TIP3    H125009   5.810   1.785   3.092 -0.7732  1.3070  0.1106
 1198TIP3    H225010   5.892   1.727   3.205 -0.6247 -1.1047 -1.1748
 1199TIP3   OH225011   5.139   1.050  15.901  0.0843 -0.8297  1.2383
 1199TIP3    H125012   5.158   1.144  15.904 -0.7295 -0.4057 -2.3261
 1199TIP3    H225013   5.204   1.015  15.841 -0.6841 -2.2334  1.1902
 1200TIP3   OH225014   3.575   0.903   1.884 -0.4275 -0.1781  0.3190
 1200TIP3    H125015   3.522   0.841   1.934 -2.2844  1.1556  0.0831
 1200TIP3    H225016   3.652   0.852   1.857 -1.2611 -1.9973  1.1959
 1201TIP3   OH225017   0.511   1.367  11.842 -0.5628 -0.1487  0.0823
 1201TIP3    H125018   0.470   1.339  11.924 -2.1973  0.5332 -0.4474
 1201TIP3    H225019   0.535   1.286  11.797 -0.1217 -0.5338  1.0016
 1202TIP3   OH225020   1.798   3.778   3.193 -0.1577  0.2392  0.2496
 1202TIP3    H125021   1.737   3.790   3.265  2.3684  0.6452  2.4604
 1202TIP3    H225022   1.767   3.838   3.125 -2.0204  0.6275  1.3788
 1203TIP3   OH225023   3.069   1.947   5.153 -0.6835  0.6775 -0.0452
 1203TIP3    H125024   3.127   2.001   5.101  1.2256  0.1853  1.4657
 1203TIP3    H225025   3.018   2.009   5.205 -0.2160  1.0795 -0.0678
 1204TIP3   OH225026   0.387   6.773  14.299  0.0529 -0.0033  0.4075
 1204TIP3    H125027   0.476   6.776  14.262  1.2594  1.3821  3.1728
 1204TIP3    H225028   0.340   6.842  14.252  0.6083 -0.2931 -0.6137
 1205TIP3   OH225029   3.795   0.241  13.767  0.1920 -0.4044  0.4838
 1205TIP3    H125030   3.725   0.175  13.773 -0.8868  0.7187  0.6638
 1205TIP3    H225031   3.749   0.325  13.771  1.4296  0.3812 -0.9590
 1206TIP3   OH225032   5.569   1.339  13.284 -0.1742 -0.1505 -0.2618
 1206TIP3    H125033   5.580   1.254  13.241 -0.9071  0.2051 -1.1771
 1206TIP3    H225034   5.657   1.364  13.311  0.7326  0.5857 -3.4369
 1207TIP3   OH225035   3.290   1.741  10.728 -0.1379  0.3413  0.3013
 1207TIP3    H125036   3.242   1.725  10.647 -0.3374 -1.4213  0.7395
 1207TIP3    H225037   3.223   1.742  10.796  0.2950 -1.0284  0.7753
 1208TIP3   OH225038   2.462   2.665   2.030  0.3487  0.1331 -0.1086
 1208TIP3    H125039   2.385   2.628   2.074 -0.8505  0.4343 -1.8453
 1208TIP3    H225040   2.494   2.732   2.090 -0.3773 -0.4172  0.9220
 1209TIP3   OH225041   0.523   3.061   1.321  0.0786  0.0194 -0.8183
 1209TIP3    H125042   0.451   3.090   1.376  1.4293 -0.4623  1.3505
 1209TIP3    H225043   0.575   3.140   1.305  0.6156 -0.1427  0.0970
 1210TIP3   OH225044   0.296   3.542  11.326 -0.1162  0.3165  0.1037
 1210TIP3    H125045   0.254   3.611  11.275  0.2244  0.8167  0.4858
 1210TIP3    H225046   0.276   3.564  11.417 -0.2203 -0.2319  0.2136
 1211TIP3   OH225047   1.414   5.928  15.546  0.0635 -0.2499  0.5309
 1211TIP3    H125048   1.362   5.881  15.481  1.6385 -0.4497 -0.6388
 1211TIP3    H225049   1.448   6.004  15.500  0.5703  0.0335  1.3519
 1212TIP3   OH225050   4.445   0.529  16.365  0.4191  0.0667  0.3836
 1212TIP3    H125051   4.501   0.482  16.427  0.6454 -0.2884 -0.0802
 1212TIP3    H225052   4.479   0.618  16.364 -0.8335  0.6179  2.2629
 1213TIP3   OH225053   4.506   6.371  13.312 -0.0999  0.2160  0.0962
 1213TIP3    H125054   4.433   6.418  13.351 -0.3989  0.5997 -0.9002
 1213TIP3    H225055   4.467   6.291  13.277 -0.3548  1.1021 -1.7576
 1214TIP3   OH225056   4.293   2.186   4.174  0.5559 -0.0368 -0.2686
 1214TIP3    H125057   4.257   2.265   4.213 -0.1196  0.1170 -1.1773
 1214TIP3    H225058   4.361   2.158   4.235  0.2231  0.7639  0.4878
 1215TIP3   OH225059   3.206   1.161  13.969 -0.1438  0.0667 -0.1852
 1215TIP3    H125060   3.192   1.255  13.979 -1.3012 -0.2454  1.6040
 1215TIP3    H225061   3.119   1.126  13.950  0.0654 -0.7675  0.3421
 1216TIP3   OH225062   3.272   0.180   0.099  0.2727 -0.4112  0.0967
 1216TIP3    H125063   3.359   0.215   0.118  0.5302 -0.8206 -0.3173
 1216TIP3    H225064   3.286   0.086   0.087 -0.2200 -0.4720 -0.0126
 1217TIP3   OH225065   1.973   5.661   0.280  0.4714  0.7411  0.3219
 1217TIP3    H125066   1.992   5.702   0.365 -0.0750  0.4193  0.6051
 1217TIP3    H225067   2.008   5.573   0.287  1.1460  0.9720 -0.0850
 1218TIP3   OH225068   4.212   5.298  12.478 -0.1949 -0.0417  0.4967
 1218TIP3    H125069   4.190   5.207  12.500  0.7197 -0.4487 -0.1847
 1218TIP3    H225070   4.134   5.348  12.501 -0.0795 -0.7132  2.5936
 1219TIP3   OH225071   6.455   0.427  11.386  0.0276  0.2112 -0.6934
 1219TIP3    H125072   6.437   0.488  11.314 -1.0305  0.8616  0.0819
 1219TIP3    H225073   6.461   0.483  11.464 -1.4057 -0.6798  0.1076
 1220TIP3   OH225074   0.143   5.369   5.421  0.4609 -0.0073 -0.1815
 1220TIP3    H125075   0.206   5.327   5.480  0.7217 -1.1664 -1.2625
 1220TIP3    H225076   0.197   5.411   5.355  0.1490  0.9304  0.1380
 1221TIP3   OH225077   2.050   2.286  13.143  0.4966 -0.5134 -0.0033
 1221TIP3    H125078   2.127   2.230  13.155  1.4869  0.6159 -0.7910
 1221TIP3    H225079   2.084   2.375  13.152 -1.2097 -0.0089  2.1333
 1222TIP3   OH225080   2.363   1.155  15.269  0.1429 -0.1542  0.3676
 1222TIP3    H125081   2.413   1.115  15.340 -0.5588  1.1867  1.6792
 1222TIP3    H225082   2.404   1.123  15.189  0.7772 -1.9408  1.3639
 1223TIP3   OH225083   2.037   2.410   2.657 -0.3351  0.4763 -0.5062
 1223TIP3    H125084   1.969   2.352   2.691 -1.3773  1.2782 -1.1430
 1223TIP3    H225085   2.118   2.379   2.698 -1.0519 -0.5986  0.1567
 1224TIP3   OH225086   6.766   4.359   3.969  0.5722 -0.2977  0.0403
 1224TIP3    H125087   6.732   4.433   3.918  1.2740  0.8483  1.2144
 1224TIP3    H225088   6.812   4.305   3.904 -2.4935 -1.3838 -1.4367
 1225TIP3   OH225089   2.243   6.133  14.100 -0.5299  0.0638  0.0625
 1225TIP3    H125090   2.181   6.060  14.090 -1.5795  1.0144 -0.5936
 1225TIP3    H225091   2.189   6.206  14.130  0.2868  0.9061 -0.4740
 1226TIP3   OH225092   6.821   1.571  16.955 -0.5962  0.2619  0.1000
 1226TIP3    H125093   6.791   1.533  17.037  1.7054  2.1035  1.9487
 1226TIP3    H225094   6.915   1.553  16.953 -0.7657 -0.8340 -2.8475
 1227TIP3   OH225095   4.942   1.715   2.821 -0.3101 -0.0728  0.1290
 1227TIP3    H125096   5.002   1.765   2.766 -1.1002 -0.4601 -1.1150
 1227TIP3    H225097   4.856   1.732   2.785 -0.9683  0.3178  1.7730
 1228TIP3   OH225098   2.061   1.945   0.387  0.4830 -0.0815 -0.1837
 1228TIP3    H125099   2.074   1.919   0.478 -0.7565  3.4210  1.1684
 1228TIP3    H225100   1.975   1.910   0.364 -0.8779  2.0375  1.3602
 1229TIP3   OH225101   6.003   0.431  14.426  0.0974 -0.1005 -0.5206
 1229TIP3    H125102   6.036   0.393  14.344  0.7847 -0.1041 -0.2533
 1229TIP3    H225103   6.011   0.525  14.414  2.8380 -0.1035  0.5371
 1230TIP3   OH225104   5.041   2.502   2.068 -0.1305 -0.3107 -0.6284
 1230TIP3    H125105   5.040   2.509   2.163  0.7316  1.0229 -0.6878
 1230TIP3    H225106   5.010   2.413   2.050  0.8970 -1.0351  0.9333
 1231TIP3   OH225107   5.669   2.867   5.760 -0.6466  0.1773  0.3138
 1231TIP3    H125108   5.756   2.869   5.800  0.8016  3.5109 -2.4213
 1231TIP3    H225109   5.627   2.948   5.788 -0.1499  1.8783 -3.2980
 1232TIP3   OH225110   2.891   5.606  12.991 -0.2226  0.7113  0.2869
 1232TIP3    H125111   2.828   5.605  13.063  0.9148 -0.5418  1.3123
 1232TIP3    H225112   2.960   5.665  13.021  0.1747  0.3198  0.1486
 1233TIP3   OH225113   0.350   6.757   5.210 -0.2176 -0.1848  0.3277
 1233TIP3    H125114   0.356   6.664   5.233 -1.6575 -0.1653  0.8701
 1233TIP3    H225115   0.339   6.758   5.115  0.5371 -0.5137  0.2261
 1234TIP3   OH225116   5.422   5.335   0.730 -0.3732  0.4984  0.2024
 1234TIP3    H125117   5.496   5.295   0.685 -0.6835 -0.1601  0.2629
 1234TIP3    H225118   5.345   5.295   0.690 -0.6914  1.0616  0.2477
 1235TIP3   OH225119   4.375   2.392   5.946  0.4228  0.2354  0.0704
 1235TIP3    H125120   4.351   2.308   5.906  0.8060 -0.2607  0.8527
 1235TIP3    H225121   4.457   2.416   5.903  1.1172 -0.5608  0.8916
 1236TIP3   OH225122   4.911   6.419   2.993 -0.7144 -0.4582  0.4652
 1236TIP3    H125123   4.876   6.346   3.045 -2.9898  0.4322  0.3026
 1236TIP3    H225124   4.858   6.420   2.914 -1.2704  1.8246  0.8065
 1237TIP3   OH225125   4.115   2.167   2.198 -0.4630 -0.3533  0.3508
 1237TIP3    H125126   4.198   2.200   2.163 -0.3655  1.1722  1.9198
 1237TIP3    H225127   4.049   2.228   2.164 -0.8629 -1.0589 -0.1795
 1238TIP3   OH225128   4.191   3.282   3.422 -0.2178  0.2141  0.0670
 1238TIP3    H125129   4.098   3.285   3.443  0.0543  0.3551  1.3125
 1238TIP3    H225130   4.235   3.308   3.503  0.9715 -1.4984  0.0214
 1239TIP3   OH225131   5.304   4.828  13.210  0.0061 -0.1615  0.0493
 1239TIP3    H125132   5.391   4.859  13.185 -0.1443  0.2528  0.0413
 1239TIP3    H225133   5.316   4.789  13.296  0.2491 -0.3317 -0.0591
 1240TIP3   OH225134   0.602   4.606  13.830 -0.1427 -0.4117  0.7675
 1240TIP3    H125135   0.539   4.539  13.804  0.2274 -0.3515 -0.3706
 1240TIP3    H225136   0.620   4.654  13.749  0.6714  0.1551  1.2682
 1241TIP3   OH225137   0.472   0.289   2.730 -0.3984 -0.0245 -0.2840
 1241TIP3    H125138   0.499   0.374   2.697 -2.0712 -0.2964 -2.5532
 1241TIP3    H225139   0.547   0.231   2.714  1.1439  1.1055  2.1805
 1242TIP3   OH225140   4.529   4.853  11.033 -0.7603 -0.2331 -0.0066
 1242TIP3    H125141   4.586   4.838  11.109 -1.5135 -1.5508  0.3208
 1242TIP3    H225142   4.449   4.805  11.053 -1.6235  0.7672 -0.9103
 1243TIP3   OH225143   0.420   6.399   4.414 -0.5513  0.2398 -0.4861
 1243TIP3    H125144   0.473   6.320   4.424  0.1255  0.7852  0.4342
 1243TIP3    H225145   0.437   6.429   4.325 -0.9341 -0.7323 -0.8921
 1244TIP3   OH225146   6.819   4.598   6.113 -0.0085 -0.0016  0.6392
 1244TIP3    H125147   6.801   4.516   6.067 -0.7924 -0.8397  2.3847
 1244TIP3    H225148   6.742   4.652   6.097 -0.6860 -0.6395  1.7070
 1245TIP3   OH225149   4.091   4.709  15.763  0.1187 -0.0288 -0.0947
 1245TIP3    H125150   4.021   4.768  15.793  1.0954  0.7315  0.7980
 1245TIP3    H225151   4.105   4.649  15.837  0.5026 -0.0752 -0.2035
 1246TIP3   OH225152   3.527   4.891   4.130 -0.3701  0.1119  0.0764
 1246TIP3    H125153   3.579   4.848   4.062 -0.9149  0.8234 -0.8056
 1246TIP3    H225154   3.521   4.825   4.200  0.5295 -0.4871 -0.3838
 1247TIP3   OH225155   2.851   1.394  11.755  0.5373 -0.3943  0.5552
 1247TIP3    H125156   2.796   1.316  11.754  0.7047 -0.5899  2.5488
 1247TIP3    H225157   2.925   1.370  11.811 -0.7172  1.9949  3.4872
 1248TIP3   OH225158   6.407   1.389  12.617 -0.0346  0.1984 -0.3636
 1248TIP3    H125159   6.454   1.417  12.696 -2.0444 -0.5718  1.2114
 1248TIP3    H225160   6.472   1.341  12.566  1.2833  0.5418  0.9166
 1249TIP3   OH225161   6.708   2.677  17.009  0.0095  0.4313 -0.2705
 1249TIP3    H125162   6.758   2.660  16.929  1.0955 -0.6796  0.5980
 1249TIP3    H225163   6.745   2.758  17.043  1.3384 -0.4033  0.3893
 1250TIP3   OH225164   5.771   1.521   3.231  0.2378  0.4484 -0.4494
 1250TIP3    H125165   5.727   1.436   3.223  2.3471 -0.6847 -0.7472
 1250TIP3    H225166   5.711   1.583   3.189 -0.9476 -1.0326 -1.0589
 1251TIP3   OH225167   2.722   0.166   1.265  0.0906  0.2906  0.2728
 1251TIP3    H125168   2.772   0.095   1.226 -1.6207 -0.6189 -0.3731
 1251TIP3    H225169   2.746   0.166   1.358  0.5318 -0.7552  0.1608
 1252TIP3   OH225170   4.055   4.050   3.453  0.0384  0.4587 -0.3412
 1252TIP3    H125171   4.076   4.070   3.362 -0.2091  0.1714 -0.4667
 1252TIP3    H225172   4.133   4.074   3.502  0.4933 -0.1568 -0.7374
 1253TIP3   OH225173   3.396   5.118   0.836 -0.1645 -0.3679 -0.4807
 1253TIP3    H125174   3.368   5.048   0.777  0.3694 -1.2508  0.2698
 1253TIP3    H225175   3.491   5.107   0.843 -0.2790 -0.6375  0.9484
 1254TIP3   OH225176   6.026   6.623  12.573 -0.0113 -0.4406 -0.2876
 1254TIP3    H125177   6.023   6.651  12.482 -0.9297 -0.8368 -0.3881
 1254TIP3    H225178   6.012   6.704  12.623 -1.9050 -0.5577 -0.5586
 1255TIP3   OH225179   5.235   6.027  12.174 -0.3717  0.5753  0.9312
 1255TIP3    H125180   5.147   6.055  12.149 -0.7788 -1.1711  0.2969
 1255TIP3    H225181   5.220   5.958  12.239  0.3290 -2.4344 -1.8902
 1256TIP3   OH225182   1.287   3.410  13.233  0.0149 -0.1911  0.4528
 1256TIP3    H125183   1.214   3.443  13.286 -2.2103 -3.3391 -0.3333
 1256TIP3    H225184   1.350   3.379  13.298  0.2530  1.6566  1.1623
 1257TIP3   OH225185   5.411   4.113   3.521  0.1474  0.8016  0.3851
 1257TIP3    H125186   5.408   4.038   3.462 -1.2366  1.7951 -0.8943
 1257TIP3    H225187   5.504   4.131   3.533  0.4767  0.1648 -0.9900
 1258TIP3   OH225188   5.036   0.889   2.051 -0.0387 -0.1976  0.1076
 1258TIP3    H125189   5.123   0.860   2.024 -0.1706  0.9316 -1.6394
 1258TIP3    H225190   5.039   0.885   2.147  2.2224  0.6226  0.1356
 1259TIP3   OH225191   2.063   6.413   3.262 -0.2541  0.4866 -0.2476
 1259TIP3    H125192   2.148   6.444   3.230 -0.5883  0.4201 -1.2493
 1259TIP3    H225193   2.082   6.329   3.303  0.0499  0.0406 -1.2722
 1260TIP3   OH225194   0.114   4.559   0.847 -0.1056  0.8041  0.6901
 1260TIP3    H125195   0.127   4.568   0.942  2.3120 -0.2703  0.5407
 1260TIP3    H225196   0.032   4.511   0.838  0.4170 -0.4618  2.3090
 1261TIP3   OH225197   3.708   1.542   3.934  0.0336  0.7076  0.4073
 1261TIP3    H125198   3.640   1.607   3.915  3.0885  4.2571  0.3393
 1261TIP3    H225199   3.706   1.534   4.030  0.3157  1.8407  0.5274
 1262TIP3   OH225200   3.082   1.009   1.481  0.1493 -0.2899 -0.0314
 1262TIP3    H125201   3.162   0.958   1.467 -0.6044 -1.4104 -0.4946
 1262TIP3    H225202   3.033   0.958   1.545 -0.3668  0.1762 -0.0508
 1263TIP3   OH225203   1.508   4.456  12.598  0.0217  0.3610  0.7292
 1263TIP3    H125204   1.488   4.422  12.511 -2.4954 -0.3062  1.4982
 1263TIP3    H225205   1.482   4.548  12.595  0.4154  0.4745  0.6564
 1264TIP3   OH225206   5.677   1.646  13.094  0.4493  0.2407  0.3627
 1264TIP3    H125207   5.603   1.591  13.068  1.0776 -0.6398  0.3905
 1264TIP3    H225208   5.720   1.597  13.164  1.1623  0.6504  0.2182
 1265TIP3   OH225209   3.363   5.263  16.194  0.1402  0.2595  0.4138
 1265TIP3    H125210   3.373   5.346  16.239  0.4731 -0.1319  1.0748
 1265TIP3    H225211   3.353   5.198  16.264 -2.7390  0.0358 -0.1009
 1266TIP3   OH225212   5.224   1.606   4.429  0.2355 -0.0996 -0.0443
 1266TIP3    H125213   5.261   1.558   4.355  0.7455 -0.1843  0.2647
 1266TIP3    H225214   5.283   1.588   4.502 -0.7501 -0.7176  0.6088
 1267TIP3   OH225215   5.350   3.123   5.009 -0.0500 -0.4138 -0.7629
 1267TIP3    H125216   5.373   3.214   5.025 -0.3578 -0.3361 -0.7679
 1267TIP3    H225217   5.302   3.124   4.926 -0.8807 -0.4519 -0.2903
 1268TIP3   OH225218   1.226   0.853   1.845 -0.0747 -0.4214  0.0685
 1268TIP3    H125219   1.216   0.913   1.771  0.0839 -0.2657  0.1720
 1268TIP3    H225220   1.317   0.864   1.873 -0.0009 -0.8224 -0.0072
 1269TIP3   OH225221   2.705   4.930   3.293  0.2009 -0.3055  0.3361
 1269TIP3    H125222   2.672   4.942   3.382 -0.6616  0.3892 -0.0594
 1269TIP3    H225223   2.743   4.842   3.293  0.9801  0.0101  1.6088
 1270TIP3   OH225224   0.028   0.296  10.859 -0.2501 -0.0563  0.3767
 1270TIP3    H125225   0.027   0.326  10.950  1.1787  0.4902  0.2432
 1270TIP3    H225226   0.112   0.253  10.849  1.8978  3.9925 -1.8775
 1271TIP3   OH225227   0.567   3.046   4.200  1.0666  0.0969 -0.3017
 1271TIP3    H125228   0.536   3.085   4.118  0.8155  1.9464  0.6240
 1271TIP3    H225229   0.492   3.050   4.259  1.3955 -0.7509  0.1891
 1272TIP3   OH225230   6.495   0.141   6.700 -0.2038 -0.2282  0.1516
 1272TIP3    H125231   6.541   0.214   6.740  0.3615 -0.0159 -0.8355
 1272TIP3    H225232   6.404   0.170   6.693 -0.1408  0.0548  0.5171
 1273TIP3   OH225233   1.645   0.984  12.249 -0.2506  0.5373  0.3016
 1273TIP3    H125234   1.588   1.034  12.191 -0.2939 -0.5980 -0.6829
 1273TIP3    H225235   1.714   1.046  12.274  0.6818  0.6803 -2.2778
 1274TIP3   OH225236   6.634   4.751  16.262  0.3419 -0.2244  0.3281
 1274TIP3    H125237   6.564   4.731  16.323  2.4739  0.3062  3.1667
 1274TIP3    H225238   6.621   4.842  16.237 -1.5046 -0.9159 -1.5044
 1275TIP3   OH225239   2.472   4.426   6.129  0.2055  0.1368  0.2410
 1275TIP3    H125240   2.446   4.334   6.132  0.6952  0.0111  0.8960
 1275TIP3    H225241   2.566   4.424   6.114  0.0930  0.5562 -0.5738
 1276TIP3   OH225242   5.975   0.127   2.391  0.3444 -0.3174 -0.3307
 1276TIP3    H125243   6.031   0.053   2.416 -0.9617 -1.1520  0.1966
 1276TIP3    H225244   5.937   0.102   2.307  1.5895  0.7376 -1.2443
 1277TIP3   OH225245   5.111   1.089  14.894  0.0381  0.3053  0.0273
 1277TIP3    H125246   5.055   1.141  14.952 -1.1949 -0.0366 -0.8136
 1277TIP3    H225247   5.185   1.146  14.874 -0.2982  0.9894  0.6932
 1278TIP3   OH225248   1.042   0.925   6.549 -0.1336  0.0709  0.8222
 1278TIP3    H125249   1.070   0.982   6.620 -0.5889  0.4331  0.7126
 1278TIP3    H225250   1.061   0.836   6.580  0.4362  0.2721  1.0530
 1279TIP3   OH225251   1.802   3.272  15.393 -0.0629 -0.0189  0.2829
 1279TIP3    H125252   1.741   3.262  15.321 -1.1398 -0.3040  1.1980
 1279TIP3    H225253   1.802   3.366  15.412  0.4881  0.1055 -0.2895
 1280TIP3   OH225254   1.689   2.943   2.788  0.0304  0.5028 -0.3811
 1280TIP3    H125255   1.612   2.984   2.748 -1.3350 -0.1688  1.4537
 1280TIP3    H225256   1.746   3.017   2.809 -0.1716  1.0275 -1.5663
 1281TIP3   OH225257   2.747   0.116   2.379  0.4407 -0.1102  0.0245
 1281TIP3    H125258   2.717   0.027   2.363 -1.2638  0.6438 -1.3600
 1281TIP3    H225259   2.816   0.131   2.314  2.3159 -1.0812  1.6918
 1282TIP3   OH225260   0.597   1.313   0.539 -0.2682 -0.1159 -0.1762
 1282TIP3    H125261   0.642   1.317   0.454  3.0317 -1.8046  1.3290
 1282TIP3    H225262   0.564   1.223   0.545  0.7848 -0.4644  0.8436
 1283TIP3   OH225263   0.729   4.521   2.236 -0.5907 -0.3803  0.2572
 1283TIP3    H125264   0.810   4.551   2.278 -1.1899 -0.0903  1.2279
 1283TIP3    H225265   0.749   4.432   2.207  0.3643  0.0039 -0.3322
 1284TIP3   OH225266   4.747   1.484  14.549 -0.2549 -0.5822  0.2238
 1284TIP3    H125267   4.824   1.536  14.570 -1.2142  0.7959  0.4683
 1284TIP3    H225268   4.703   1.471  14.634 -2.1658  1.7828 -0.2791
 1285TIP3   OH225269   1.993   1.751  10.777  0.3169  0.3442  0.6402
 1285TIP3    H125270   2.076   1.773  10.735  0.2860  0.4601  0.6378
 1285TIP3    H225271   2.015   1.684  10.841  0.6615  1.3427  1.6069
 1286TIP3   OH225272   0.264   3.458  13.941  0.0368  0.2516 -0.0881
 1286TIP3    H125273   0.195   3.393  13.955 -0.5003  0.6912 -0.5998
 1286TIP3    H225274   0.326   3.444  14.013 -0.5147 -0.2434  0.3010
 1287TIP3   OH225275   2.773   3.969  16.714  0.0817 -0.0611  0.0008
 1287TIP3    H125276   2.754   4.013  16.797 -3.8483  0.7549 -1.1373
 1287TIP3    H225277   2.766   3.876  16.734 -1.1185  0.1371  0.5517
 1288TIP3   OH225278   4.738   2.917   1.704 -0.1005  0.3445 -0.0298
 1288TIP3    H125279   4.703   2.841   1.657  1.6010 -0.9541  0.6969
 1288TIP3    H225280   4.723   2.991   1.645 -1.5428 -0.5915 -0.8854
 1289TIP3   OH225281   6.518   6.557   2.281  0.1856 -0.2483 -0.3401
 1289TIP3    H125282   6.584   6.531   2.216 -0.4269 -1.3460 -0.5447
 1289TIP3    H225283   6.488   6.643   2.251  1.6623  0.3678 -0.1229
 1290TIP3   OH225284   6.479   5.887   0.810 -0.1623 -0.6386 -0.1763
 1290TIP3    H125285   6.459   5.928   0.726 -0.7776  0.1053  0.3210
 1290TIP3    H225286   6.410   5.917   0.869  0.8385 -0.2967  0.8636
 1291TIP3   OH225287   1.732   4.936  11.442 -0.5592  0.0023  0.2441
 1291TIP3    H125288   1.758   4.910  11.354 -0.0180 -0.2578  0.4727
 1291TIP3    H225289   1.701   4.855  11.483  0.1720 -0.1009  0.6247
 1292TIP3   OH225290   3.096   4.257   4.189  0.0321  0.3959  0.8640
 1292TIP3    H125291   3.025   4.320   4.173 -0.0901 -0.1343 -0.9359
 1292TIP3    H225292   3.058   4.193   4.249 -1.6457 -0.7561 -1.2572
 1293TIP3   OH225293   2.520   4.101  15.834  0.4348  0.4907  0.6846
 1293TIP3    H125294   2.441   4.154  15.850  1.3285  1.5437  1.7714
 1293TIP3    H225295   2.536   4.057  15.917  0.0214 -1.1166 -0.0542
 1294TIP3   OH225296   3.791   5.806   4.910 -0.0000 -0.8574 -0.1989
 1294TIP3    H125297   3.805   5.856   4.990  0.0189  0.6550 -1.1138
 1294TIP3    H225298   3.879   5.785   4.878 -0.0103 -1.8664  0.4016
 1295TIP3   OH225299   4.900   0.234  15.860 -0.3471  0.4513  0.0988
 1295TIP3    H125300   4.947   0.176  15.799 -0.4432  0.2285  0.2334
 1295TIP3    H225301   4.890   0.181  15.939  1.8200  1.5082  1.1585
 1296TIP3   OH225302   3.851   6.071   6.148 -0.0768  0.4583  0.2153
 1296TIP3    H125303   3.939   6.045   6.123  0.0739  0.6699  0.5168
 1296TIP3    H225304   3.840   6.159   6.114  0.7951  1.4799  2.3804
 1297TIP3   OH225305   5.291   5.894  16.893  0.2595 -0.6445 -0.4052
 1297TIP3    H125306   5.324   5.934  16.813 -1.4586  1.3157 -0.2130
 1297TIP3    H225307   5.214   5.845  16.865 -0.9325  0.8630  0.1403
 1298TIP3   OH225308   3.297   2.906  15.211  0.2721 -0.2553  0.7816
 1298TIP3    H125309   3.292   2.970  15.282 -2.4174 -0.1123  0.5692
 1298TIP3    H225310   3.263   2.952  15.135 -1.9259 -1.9089  0.6756
 1299TIP3   OH225311   0.274   6.536  12.801 -0.6721 -0.3219 -0.4962
 1299TIP3    H125312   0.259   6.606  12.864 -0.7970  0.9781 -1.9135
 1299TIP3    H225313   0.187   6.504  12.779 -0.7233  0.1257 -0.9686
 1300TIP3   OH225314   1.561   4.540   1.301  0.3138  0.2181 -0.2568
 1300TIP3    H125315   1.594   4.505   1.219 -1.5640 -0.1806 -0.8987
 1300TIP3    H225316   1.471   4.568   1.281 -0.5579 -0.8069  1.8793
 1301TIP3   OH225317   3.219   0.859  15.760  0.1396 -0.0188  0.3032
 1301TIP3    H125318   3.204   0.859  15.666 -0.4021 -0.1911  0.3900
 1301TIP3    H225319   3.191   0.772  15.789 -1.6954  0.7480  0.9393
 1302TIP3   OH225320   5.661   2.346  12.556 -0.3004  0.5152  0.0306
 1302TIP3    H125321   5.665   2.333  12.461 -0.7775 -2.2293  0.3159
 1302TIP3    H225322   5.650   2.258  12.592 -1.6324  1.6195  2.5709
 1303TIP3   OH225323   5.164   0.203  12.020 -0.3582  0.2108 -0.1247
 1303TIP3    H125324   5.188   0.273  12.081  0.1559 -0.7660  0.8373
 1303TIP3    H225325   5.106   0.145  12.071  0.6421 -1.0003 -0.3152
 1304TIP3   OH225326   1.641   3.193  10.385  0.5996 -0.5145 -0.2391
 1304TIP3    H125327   1.704   3.186  10.457  2.4072 -3.5074 -1.9032
 1304TIP3    H225328   1.692   3.224  10.311 -0.5528 -0.2750 -0.9507
 1305TIP3   OH225329   4.162   2.750   3.691  0.4250  0.8830 -0.4223
 1305TIP3    H125330   4.205   2.796   3.619  0.2991  1.2841 -0.2441
 1305TIP3    H225331   4.221   2.761   3.766  0.0351  1.4177 -0.1830
 1306TIP3   OH225332   3.400   5.384   1.138 -0.0174  0.0313 -0.2109
 1306TIP3    H125333   3.337   5.312   1.134 -0.7874  0.5180  1.9468
 1306TIP3    H225334   3.483   5.345   1.111 -0.7536 -1.2159 -0.7626
 1307TIP3   OH225335   5.638   0.965   2.930 -0.2868 -0.6136 -0.1728
 1307TIP3    H125336   5.596   0.941   2.847 -1.0662  0.7667 -0.2208
 1307TIP3    H225337   5.565   0.971   2.992 -0.0884  0.9108 -0.0328
 1308TIP3   OH225338   1.026   0.548   1.939 -0.0533  0.1321  0.5276
 1308TIP3    H125339   1.047   0.572   1.848 -1.1957 -1.2427 -0.1427
 1308TIP3    H225340   1.070   0.614   1.992  0.5634  1.0309 -1.0325
 1309TIP3   OH225341   4.643   2.754  12.608  0.1717  0.5134 -0.1453
 1309TIP3    H125342   4.655   2.823  12.672 -2.7868  0.5221  0.5730
 1309TIP3    H225343   4.669   2.793  12.524  1.0993  1.5482  0.6066
 1310TIP3   OH225344   2.052   3.202   1.667 -0.0873  0.5152 -0.4977
 1310TIP3    H125345   2.124   3.235   1.613  0.0297  0.2900 -0.4776
 1310TIP3    H225346   1.974   3.245   1.632  0.3608  2.9058  1.1667
 1311TIP3   OH225347   2.924   4.578  12.332 -0.7166  0.3342 -0.6120
 1311TIP3    H125348   2.921   4.618  12.245 -1.0559  1.2010 -0.2096
 1311TIP3    H225349   2.888   4.490  12.319 -0.3682  0.3019 -1.4248
 1312TIP3   OH225350   2.437   4.167   1.321 -0.0765  0.4509 -0.0152
 1312TIP3    H125351   2.391   4.213   1.391 -0.6038  0.7051 -0.5207
 1312TIP3    H225352   2.440   4.076   1.350  1.6768  0.8834  1.3687
 1313TIP3   OH225353   2.457   0.292   1.679 -0.1924  0.4026  0.3674
 1313TIP3    H125354   2.453   0.240   1.599 -0.1638 -0.0546  0.6603
 1313TIP3    H225355   2.442   0.229   1.749  0.6970  0.6354  0.7803
 1314TIP3   OH225356   4.167   1.572  16.080  0.0991  0.3460  0.6738
 1314TIP3    H125357   4.119   1.522  16.146 -0.5647  0.3332  0.1951
 1314TIP3    H225358   4.253   1.585  16.118 -0.3366  0.5175  1.6311
 1315TIP3   OH225359   6.723   1.333   3.512 -0.2606 -0.2152 -0.1105
 1315TIP3    H125360   6.681   1.362   3.593 -0.3255 -0.1809 -0.1567
 1315TIP3    H225361   6.691   1.244   3.499  0.9982 -0.8292  0.7679
 1316TIP3   OH225362   4.465   4.025   5.686  0.2625  0.2621  0.2418
 1316TIP3    H125363   4.429   4.095   5.632  0.8556  0.9475  0.7117
 1316TIP3    H225364   4.549   4.004   5.647 -0.0917 -0.4874 -0.1385
 1317TIP3   OH225365   1.272   6.737   5.160 -0.6942 -0.2324 -0.5381
 1317TIP3    H125366   1.199   6.775   5.113 -0.8128  0.9936  0.5599
 1317TIP3    H225367   1.250   6.749   5.253  0.5627 -0.4691 -0.1805
 1318TIP3   OH225368   6.036   6.399   2.888 -0.1787 -0.2249 -0.1054
 1318TIP3    H125369   5.986   6.480   2.873 -1.6909 -0.9046  0.9437
 1318TIP3    H225370   5.971   6.337   2.923  1.2914 -1.3639  0.7463
 1319TIP3   OH225371   2.141   5.903  14.000  0.2307 -0.4381 -0.0072
 1319TIP3    H125372   2.070   5.967  13.995  0.5975  0.0143  0.4461
 1319TIP3    H225373   2.098   5.818  13.994 -0.2927 -0.1566 -0.2941
 1320TIP3   OH225374   3.645   1.840  12.039  0.0612 -0.5464 -0.2048
 1320TIP3    H125375   3.701   1.764  12.021 -0.5287 -1.5222  1.7609
 1320TIP3    H225376   3.573   1.805  12.092 -0.7266  1.2298 -0.0326
 1321TIP3   OH225377   5.795   4.732  12.087 -0.6151 -0.4587 -0.9339
 1321TIP3    H125378   5.721   4.754  12.031 -0.2432 -0.6605 -1.5133
 1321TIP3    H225379   5.762   4.663  12.144 -0.5732 -1.2887 -1.8947
 1322TIP3   OH225380   3.202   2.530  15.272  0.4831 -0.3797  0.5700
 1322TIP3    H125381   3.148   2.564  15.200  1.8358  1.4456  0.3504
 1322TIP3    H225382   3.155   2.555  15.351  0.8148  0.8997  0.3777
 1323TIP3   OH225383   4.687   1.059   3.292  0.0222  0.0154 -0.0734
 1323TIP3    H125384   4.674   1.005   3.369  1.6186 -1.6010 -0.8676
 1323TIP3    H225385   4.624   1.025   3.228 -0.4439  0.5330  0.1022
 1324TIP3   OH225386   0.036   5.679  13.461 -0.1016  0.0808  0.4718
 1324TIP3    H125387   0.113   5.668  13.404 -1.0244 -1.4965 -0.5368
 1324TIP3    H225388   0.031   5.774  13.475  0.9086  0.4041 -1.0376
 1325TIP3   OH225389   4.901   1.187  11.495  0.0739  0.5258  0.5681
 1325TIP3    H125390   4.990   1.214  11.518  0.9714  0.5973 -2.5343
 1325TIP3    H225391   4.911   1.138  11.413 -2.5235 -1.5929  1.3868
 1326TIP3   OH225392   2.956   0.959  14.905 -0.2795 -0.5100  0.2681
 1326TIP3    H125393   2.867   0.995  14.911 -0.4265 -0.5284 -1.3732
 1326TIP3    H225394   2.980   0.941  14.996 -1.4152  0.7759  0.8659
 1327TIP3   OH225395   4.677   3.833  16.083 -0.6905  0.0733  0.2217
 1327TIP3    H125396   4.743   3.848  16.151 -1.2048 -0.5088  0.8559
 1327TIP3    H225397   4.723   3.785  16.015  0.0501  1.3868 -0.2317
 1328TIP3   OH225398   3.758   6.146  12.880  0.1568 -0.2396  0.3763
 1328TIP3    H125399   3.723   6.209  12.818  0.2847 -0.4920  0.0444
 1328TIP3    H225400   3.809   6.085  12.826  1.0788  0.1001  0.8393
 1329TIP3   OH225401   0.889   1.913   0.948  0.4766  0.1464  0.0757
 1329TIP3    H125402   0.925   1.841   0.999 -1.2128 -0.0755  1.0000
 1329TIP3    H225403   0.949   1.921   0.873  1.0945 -1.7230  0.3236
 1330TIP3   OH225404   1.857   5.333   3.443 -0.3808  0.1343  0.5965
 1330TIP3    H125405   1.942   5.304   3.410 -0.9179 -1.9022  0.8795
 1330TIP3    H225406   1.868   5.427   3.457  0.3948  0.9653 -3.8778
 1331TIP3   OH225407   4.395   4.370   2.287  0.5307 -0.1075 -0.4566
 1331TIP3    H125408   4.432   4.395   2.372  0.5490 -0.1751 -0.4443
 1331TIP3    H225409   4.467   4.324   2.243  0.6887  0.3890 -0.7180
 1332TIP3   OH225410   1.199   5.933   0.701  0.7606  0.5198  0.5043
 1332TIP3    H125411   1.191   5.873   0.775  2.2322 -0.0438  0.2500
 1332TIP3    H225412   1.160   6.015   0.731  1.9621  0.5296  2.1832
 1333TIP3   OH225413   1.265   0.098   3.402  0.2337  0.2125 -0.3402
 1333TIP3    H125414   1.279   0.161   3.472 -1.5197  0.2325  0.0322
 1333TIP3    H225415   1.332   0.120   3.337  1.0684  1.0163  0.7454
 1334TIP3   OH225416   3.692   6.620  14.833  0.1160  0.3989  0.0430
 1334TIP3    H125417   3.761   6.554  14.823 -0.5447 -0.7805  2.5331
 1334TIP3    H225418   3.736   6.703  14.814  1.3411 -0.5726 -1.7201
 1335TIP3   OH225419   2.387   4.729  14.603  0.5384 -0.1819  0.2360
 1335TIP3    H125420   2.467   4.678  14.615  1.1032  0.7708  0.5991
 1335TIP3    H225421   2.418   4.818  14.588 -0.4804  0.2863  0.8822
 1336TIP3   OH225422   4.061   6.644   3.803  0.5644 -0.1905  0.5357
 1336TIP3    H125423   4.148   6.613   3.780  0.7622 -0.2836  1.3827
 1336TIP3    H225424   4.069   6.675   3.893 -0.3961 -0.6582  0.7942
 1337TIP3   OH225425   2.947   6.354  12.601  0.1897 -0.4311  0.2636
 1337TIP3    H125426   2.903   6.429  12.640 -0.6160 -0.4344 -0.5994
 1337TIP3    H225427   2.888   6.280  12.619  0.0059 -0.4992 -0.5774
 1338TIP3   OH225428   6.207   2.950  16.878 -0.3169 -0.0603 -0.0978
 1338TIP3    H125429   6.294   2.927  16.909 -0.3922  0.6279  0.6659
 1338TIP3    H225430   6.160   2.978  16.956 -0.5790  1.5095 -0.7700
 1339TIP3   OH225431   6.744   4.331   5.038  0.3478  0.0145  0.5859
 1339TIP3    H125432   6.836   4.344   5.017  0.0903 -0.0100 -0.6290
 1339TIP3    H225433   6.728   4.238   5.021 -0.2833  0.3588 -0.8962
 1340TIP3   OH225434   3.286   5.975  14.538  0.5058 -0.2361  0.3140
 1340TIP3    H125435   3.368   6.023  14.527  0.9435 -1.3106 -1.3287
 1340TIP3    H225436   3.224   6.041  14.570  1.6182  0.9333  0.1302
 1341TIP3   OH225437   3.817   0.589  16.109 -0.3034 -0.1327 -0.2344
 1341TIP3    H125438   3.767   0.563  16.187 -1.2851 -0.8046 -1.0582
 1341TIP3    H225439   3.782   0.675  16.086  2.1284  1.5469  1.8039
 1342TIP3   OH225440   3.338   4.807  14.576 -0.1902  0.3179 -0.2294
 1342TIP3    H125441   3.353   4.713  14.571  0.3162  0.3800  0.0821
 1342TIP3    H225442   3.413   4.841  14.624  0.4126  1.0803 -1.6716
 1343TIP3   OH225443   6.009   6.407  16.361  0.8152  0.0460  0.3117
 1343TIP3    H125444   5.980   6.339  16.421  2.3300  0.8747  2.1068
 1343TIP3    H225445   5.964   6.486  16.391  0.6019  0.2427 -0.4946
 1344TIP3   OH225446   1.202   6.160   3.428  0.4386 -0.1461 -0.3639
 1344TIP3    H125447   1.258   6.155   3.351 -1.2972 -0.2307 -1.6763
 1344TIP3    H225448   1.237   6.235   3.478  0.0398  1.6088 -2.5487
 1345TIP3   OH225449   2.173   5.953   0.357 -0.2883 -0.1656 -0.2089
 1345TIP3    H125450   2.102   5.950   0.293 -0.1507 -0.6152 -0.3427
 1345TIP3    H225451   2.223   6.032   0.333  0.2030 -0.7427 -1.1374
 1346TIP3   OH225452   1.114   5.955   1.686 -0.4823 -0.1060  0.2695
 1346TIP3    H125453   1.051   5.885   1.705 -0.2297 -0.0810  1.2954
 1346TIP3    H225454   1.065   6.020   1.637 -0.0821 -2.1874 -3.2610
 1347TIP3   OH225455   2.576   4.691  12.239 -0.0610  0.7567  0.0701
 1347TIP3    H125456   2.652   4.729  12.284  0.1435 -0.4559  0.7703
 1347TIP3    H225457   2.503   4.747  12.265  0.3616  1.1468  0.4525
 1348TIP3   OH225458   2.119   5.019   0.734  0.3457  0.0300  0.1110
 1348TIP3    H125459   2.193   4.969   0.699 -0.7394 -1.5199 -0.0648
 1348TIP3    H225460   2.124   5.004   0.829  0.3963  0.1283  0.1240
 1349TIP3   OH225461   0.393   5.217  13.701 -0.1454  0.0995  0.5115
 1349TIP3    H125462   0.475   5.212  13.652  0.9847 -1.3159  2.4147
 1349TIP3    H225463   0.372   5.126  13.723 -1.1378  0.5894  1.7383
 1350TIP3   OH225464   6.344   1.440  11.191  0.3150 -0.3329 -0.1659
 1350TIP3    H125465   6.252   1.440  11.218 -0.0631 -0.8906 -1.3785
 1350TIP3    H225466   6.386   1.504  11.248 -0.9075  0.2247  0.1353
 1351TIP3   OH225467   1.230   6.632   5.432  0.0703 -0.2895  0.8989
 1351TIP3    H125468   1.220   6.702   5.497 -1.0057  0.0556  0.3889
 1351TIP3    H225469   1.162   6.569   5.454 -0.8291  0.2079 -0.3381
 1352TIP3   OH225470   3.541   1.912  13.212  0.2257 -0.5202  0.7823
 1352TIP3    H125471   3.624   1.955  13.235 -1.5343  3.9288 -0.1730
 1352TIP3    H225472   3.475   1.959  13.262 -1.8991 -3.6023  1.1398
 1353TIP3   OH225473   3.693   2.808   3.990 -0.8260 -0.3319  0.0410
 1353TIP3    H125474   3.786   2.830   3.975 -1.3870  2.2242 -0.1852
 1353TIP3    H225475   3.652   2.824   3.905 -1.7910  0.6795  0.6739
 1354TIP3   OH225476   4.751   2.458  16.260 -0.1099 -0.2053 -0.5374
 1354TIP3    H125477   4.768   2.381  16.206 -0.6418 -0.4813 -0.3184
 1354TIP3    H225478   4.734   2.423  16.347 -0.8228  0.1257 -0.5402
 1355TIP3   OH225479   4.965   3.281  11.508 -0.5434 -0.6589 -0.2579
 1355TIP3    H125480   5.009   3.365  11.525  0.1142 -1.3139  1.5856
 1355TIP3    H225481   5.029   3.215  11.533 -1.7162 -1.6825  0.1577
 1356TIP3   OH225482   6.058   1.877  16.208  0.4383 -0.4420  0.4709
 1356TIP3    H125483   6.083   1.785  16.213  1.2593 -0.2656 -0.2219
 1356TIP3    H225484   6.065   1.909  16.298  1.0399 -0.8256  0.5601
 1357TIP3   OH225485   0.547   1.914   5.067 -0.2072  0.2242 -0.2640
 1357TIP3    H125486   0.559   1.938   5.159  0.2283 -1.3995  0.1340
 1357TIP3    H225487   0.629   1.938   5.025  1.3588 -2.9425  0.6963
 1358TIP3   OH225488   4.107   6.427   2.849 -0.2272  0.2303  0.4233
 1358TIP3    H125489   4.131   6.376   2.772 -1.4823  0.6324 -0.2680
 1358TIP3    H225490   4.183   6.421   2.907  0.2168 -1.1947 -0.2639
 1359TIP3   OH225491   1.297   5.620  13.336 -0.1468 -0.2451 -1.0628
 1359TIP3    H125492   1.301   5.669  13.419 -1.9602  0.4827 -1.3525
 1359TIP3    H225493   1.368   5.557  13.342 -1.1424 -1.2536  1.7417
 1360TIP3   OH225494   6.308   1.467   3.411  0.0107 -0.0344 -0.5335
 1360TIP3    H125495   6.230   1.449   3.358  0.1819  0.2021 -0.8688
 1360TIP3    H225496   6.376   1.410   3.375 -0.0850 -0.4579 -0.0478
 1361TIP3   OH225497   6.325   5.801   1.835  0.3480 -0.1047  0.7728
 1361TIP3    H125498   6.305   5.723   1.782  3.6979 -0.8266  0.3817
 1361TIP3    H225499   6.388   5.770   1.901  0.8964  2.0503  1.3419
 1362TIP3   OH225500   1.647   3.318   2.698  0.2626  0.1214 -0.0836
 1362TIP3    H125501   1.629   3.362   2.781 -0.9433  0.5263 -0.5285
 1362TIP3    H225502   1.596   3.237   2.702 -0.4714  0.5276 -0.7350
 1363TIP3   OH225503   4.183   5.027  12.525 -0.0476 -0.9044  0.8507
 1363TIP3    H125504   4.202   5.052  12.616 -0.3580 -0.9204  0.9220
 1363TIP3    H225505   4.170   4.933  12.528 -0.5661 -0.8332  0.8805
 1364TIP3   OH225506   2.898   5.406  12.800 -0.5545 -0.2417  0.1286
 1364TIP3    H125507   2.827   5.418  12.737 -0.6876 -1.3829  0.0342
 1364TIP3    H225508   2.885   5.475  12.865 -0.0227  1.3965 -1.4191
 1365TIP3   OH225509   0.724   5.819  12.894  0.3891  0.5824 -0.7451
 1365TIP3    H125510   0.656   5.824  12.826 -0.5656  0.8658  0.2033
 1365TIP3    H225511   0.796   5.871  12.860 -1.4141  3.7507 -0.0556
 1366TIP3   OH225512   5.367   1.367   4.306  0.3609 -0.4237  0.1699
 1366TIP3    H125513   5.422   1.298   4.269 -3.6644 -3.6851 -0.4737
 1366TIP3    H225514   5.352   1.340   4.397 -2.0811 -1.1798 -0.3676
 1367TIP3   OH225515   5.754   5.787   4.951  0.0188 -0.2248  0.0461
 1367TIP3    H125516   5.805   5.860   4.985 -0.6380  1.2013 -1.8709
 1367TIP3    H225517   5.817   5.715   4.945  0.9946  0.5324  0.8012
 1368TIP3   OH225518   3.447   3.848  13.532 -0.3416  0.1326 -0.1225
 1368TIP3    H125519   3.379   3.809  13.586  0.7584  0.4359  1.5632
 1368TIP3    H225520   3.518   3.867  13.593  1.6651 -1.0556 -1.9308
 1369TIP3   OH225521   0.016   2.183   0.510 -0.0775  0.2070  0.1638
 1369TIP3    H125522  -0.022   2.131   0.439 -1.1467  2.8344 -1.3473
 1369TIP3    H225523  -0.058   2.199   0.569 -0.3333  1.7263 -0.5210
 1370TIP3   OH225524   5.424   5.796  11.849  0.5814 -0.3032  0.2960
 1370TIP3    H125525   5.440   5.730  11.917 -0.5221  0.7235  1.6052
 1370TIP3    H225526   5.336   5.828  11.867  0.5841  0.5723 -1.1442
 1371TIP3   OH225527   4.174   3.327  11.372  0.4854  0.7879 -0.5097
 1371TIP3    H125528   4.206   3.324  11.281  2.0479  3.3715 -0.1596
 1371TIP3    H225529   4.252   3.346  11.424 -0.6618  1.0615  1.1884
 1372TIP3   OH225530   3.645   5.285   1.044  0.9626  0.1888  0.6230
 1372TIP3    H125531   3.709   5.214   1.054 -0.5261 -1.0535  1.8389
 1372TIP3    H225532   3.672   5.351   1.107  0.6016 -0.6970  1.7345
 1373TIP3   OH225533   5.331   2.136   2.511  0.3405  0.0828  0.2749
 1373TIP3    H125534   5.311   2.140   2.605 -1.8538  1.7202 -0.1864
 1373TIP3    H225535   5.412   2.186   2.501 -0.1270  1.0649  1.1693
 1374TIP3   OH225536   4.721   3.184  12.532  0.3130  0.3288 -0.3252
 1374TIP3    H125537   4.790   3.148  12.476  1.7378  0.5851  1.2047
 1374TIP3    H225538   4.760   3.262  12.572  0.7350 -1.7079  3.7686
 1375TIP3   OH225539   5.810   5.697   3.553 -0.4349  0.2424 -0.1210
 1375TIP3    H125540   5.811   5.745   3.470  1.3081  1.5598  0.5907
 1375TIP3    H225541   5.821   5.605   3.528 -1.4053  0.4432 -1.3962
 1376TIP3   OH225542   3.391   6.533  15.729  0.2660 -0.0254 -0.0117
 1376TIP3    H125543   3.446   6.460  15.759 -0.8622 -0.6916  0.5032
 1376TIP3    H225544   3.428   6.610  15.772  2.1012 -0.0891 -1.3526
 1377TIP3   OH225545   2.753   5.811  14.692 -0.5980 -0.0558 -0.2399
 1377TIP3    H125546   2.844   5.793  14.669 -0.4176 -2.8293  2.1147
 1377TIP3    H225547   2.749   5.906  14.702  2.0141  0.1318 -0.4335
 1378TIP3   OH225548   2.345   3.888  16.754 -0.1798 -0.1642 -0.2472
 1378TIP3    H125549   2.408   3.915  16.821  0.2472  0.5000 -0.9047
 1378TIP3    H225550   2.387   3.911  16.671 -0.7856 -0.8073 -0.7382
 1379TIP3   OH225551   3.627   1.482  13.633  0.3997  0.0012 -0.1326
 1379TIP3    H125552   3.620   1.563  13.583  1.0227  0.4587  0.5159
 1379TIP3    H225553   3.577   1.498  13.713 -0.5170 -0.6982 -0.5370
 1380TIP3   OH225554   3.449   4.543  13.554  0.8331 -0.4642 -0.3708
 1380TIP3    H125555   3.510   4.582  13.490 -0.1681 -0.0114 -1.0683
 1380TIP3    H225556   3.454   4.449  13.537 -0.1314 -0.2848 -1.7972
 1381TIP3   OH225557   1.847   3.811   4.591  0.3295 -0.8031  0.2559
 1381TIP3    H125558   1.934   3.778   4.569  0.8083 -0.1027  1.0323
 1381TIP3    H225559   1.842   3.804   4.686  0.9156  2.3936  0.6185
 1382TIP3   OH225560   2.449   5.263   4.700 -0.0962  0.0419 -0.0942
 1382TIP3    H125561   2.482   5.195   4.641  0.1191 -0.8475  0.9942
 1382TIP3    H225562   2.512   5.263   4.773 -1.8296 -0.9185  1.5064
 1383TIP3   OH225563   0.195   2.653  14.871  0.2940  0.1197  0.4414
 1383TIP3    H125564   0.106   2.688  14.875  0.2134  0.1979 -1.2280
 1383TIP3    H225565   0.198   2.587  14.940 -0.1803  1.9640  2.3213
 1384TIP3   OH225566   0.001   5.463  15.676 -0.1306  0.3481  0.3951
 1384TIP3    H125567  -0.004   5.558  15.673  1.3941  0.4362 -0.3697
 1384TIP3    H225568  -0.074   5.436  15.729  0.4963  2.1023  2.3166
 1385TIP3   OH225569   3.105   1.489  16.168  0.1206  0.4069  0.4669
 1385TIP3    H125570   3.172   1.450  16.224  1.7897  1.4682 -0.7037
 1385TIP3    H225571   3.112   1.442  16.085  0.0184  1.0971  0.0564
 1386TIP3   OH225572   1.606   3.288  12.326  0.2933 -0.3935  0.3890
 1386TIP3    H125573   1.520   3.302  12.365  0.5074  3.5185 -0.1932
 1386TIP3    H225574   1.667   3.301  12.398  0.4765 -0.3333  0.2220
 1387TIP3   OH225575   0.760   3.909   4.436 -0.0729 -0.1457  0.3734
 1387TIP3    H125576   0.760   4.005   4.434  3.3374 -0.0473 -0.1589
 1387TIP3    H225577   0.823   3.886   4.504 -0.9795 -2.0723  0.6387
 1388TIP3   OH225578   2.636   5.393  13.601  0.0478  0.3876  0.4218
 1388TIP3    H125579   2.610   5.344  13.523  0.5002  0.7564  0.0385
 1388TIP3    H225580   2.701   5.337  13.644 -0.9520 -0.2942  1.1025
 1389TIP3   OH225581   5.419   6.205  14.844 -0.4785 -0.2033  0.0481
 1389TIP3    H125582   5.505   6.193  14.803  0.3113 -0.5677  1.7268
 1389TIP3    H225583   5.393   6.117  14.870  0.0509  0.2053  2.1880
 1390TIP3   OH225584   1.927   5.136   0.997  0.2461  0.7567 -0.5567
 1390TIP3    H125585   1.974   5.053   0.994 -0.8031  0.1055  0.2501
 1390TIP3    H225586   1.993   5.202   0.979  0.9752 -0.2904 -1.8693
 1391TIP3   OH225587   3.280   6.112   0.733 -0.1674 -0.7900  0.3388
 1391TIP3    H125588   3.349   6.066   0.780 -0.0514 -2.6358 -1.4695
 1391TIP3    H225589   3.321   6.192   0.701  0.4854 -0.8022  1.1260
 1392TIP3   OH225590   4.185   2.429   5.005  0.0489 -0.2845  0.2160
 1392TIP3    H125591   4.258   2.464   4.954  0.6828 -3.3020 -1.1445
 1392TIP3    H225592   4.223   2.402   5.088 -0.5903  2.6832  1.6062
 1393TIP3   OH225593   4.662   6.138   5.892 -0.2526 -0.0438 -0.0224
 1393TIP3    H125594   4.731   6.150   5.958 -1.0380  0.3624  0.7524
 1393TIP3    H225595   4.701   6.168   5.810 -0.3013  2.6690  0.8380
 1394TIP3   OH225596   3.454   3.266  16.427  0.2122  0.0798  0.8976
 1394TIP3    H125597   3.481   3.310  16.508  0.4571 -0.0920  0.9101
 1394TIP3    H225598   3.472   3.174  16.443 -1.5685 -0.2195  1.3937
 1395TIP3   OH225599   5.412   2.036   2.245 -1.1045 -0.3982 -0.1363
 1395TIP3    H125600   5.372   2.080   2.320  0.3666 -2.5591  2.0804
 1395TIP3    H225601   5.492   2.087   2.227  0.2512 -1.6218  1.9912
 1396TIP3   OH225602   1.335   5.395   0.046  0.5239  0.4173  0.1469
 1396TIP3    H125603   1.262   5.453   0.025 -0.3758 -0.7237  0.0877
 1396TIP3    H225604   1.393   5.401  -0.030 -0.0204  0.5276 -0.2670
 1397TIP3   OH225605   0.899   0.600  11.506  0.7508 -0.4653 -0.2627
 1397TIP3    H125606   0.836   0.529  11.516 -0.1856  0.4574  0.6575
 1397TIP3    H225607   0.866   0.652  11.433  1.4217 -0.9320 -0.9202
 1398TIP3   OH225608   0.384   0.210  15.751 -0.6828  0.0039 -0.4949
 1398TIP3    H125609   0.386   0.217  15.656  1.2034 -0.6585 -0.5391
 1398TIP3    H225610   0.425   0.291  15.783  0.6225 -0.6920 -0.3404
 1399TIP3   OH225611   1.577   0.008  12.608  0.0482 -0.5747  0.3228
 1399TIP3    H125612   1.639  -0.064  12.599  0.1618 -0.4875  0.3960
 1399TIP3    H225613   1.534  -0.007  12.692  0.1790 -0.4745  0.4074
 1400TIP3   OH225614   4.000   5.246   2.924 -0.1824 -0.2792  0.4833
 1400TIP3    H125615   4.064   5.317   2.923 -0.8744  0.3782  1.4508
 1400TIP3    H225616   3.919   5.287   2.956 -0.3570 -1.7063  1.9561
 1401TIP3   OH225617   3.586   2.352  15.576 -0.1035  0.2081  0.0703
 1401TIP3    H125618   3.534   2.277  15.604  0.8053 -0.6169 -0.3950
 1401TIP3    H225619   3.524   2.425  15.574 -1.3420 -0.8254 -0.8689
 1402TIP3   OH225620   0.365   2.584  15.100  0.5052  0.3578 -0.0249
 1402TIP3    H125621   0.276   2.550  15.091  0.4067  0.4938  0.4294
 1402TIP3    H225622   0.421   2.516  15.061  0.3283 -0.4262  1.0688
 1403TIP3   OH225623   0.160   5.596  11.453 -0.0234  0.3671  0.5198
 1403TIP3    H125624   0.161   5.558  11.365 -0.6908 -1.9977  1.4671
 1403TIP3    H225625   0.157   5.691  11.438  1.3946  0.1077 -1.9751
 1404TIP3   OH225626   0.595   5.675   5.821 -0.3606 -0.2171 -0.1987
 1404TIP3    H125627   0.529   5.611   5.845 -2.3898  1.6871 -0.3447
 1404TIP3    H225628   0.587   5.684   5.726  0.8206 -0.6586 -0.3565
 1405TIP3   OH225629   5.962   5.620   3.153  0.5963 -0.1961 -0.1704
 1405TIP3    H125630   6.036   5.650   3.100  0.8462 -0.2698  0.1311
 1405TIP3    H225631   5.889   5.616   3.092  0.5126  1.1779 -0.1748
 1406TIP3   OH225632   1.336   6.115   1.651  0.4366 -0.5256  0.4164
 1406TIP3    H125633   1.359   6.166   1.574 -0.1029  0.1772  0.7188
 1406TIP3    H225634   1.271   6.052   1.620 -1.2323  1.0126  0.6744
 1407TIP3   OH225635   2.553   1.120   1.594 -0.0514  0.2714 -0.8576
 1407TIP3    H125636   2.503   1.121   1.675 -0.8289 -0.6751 -1.3075
 1407TIP3    H225637   2.500   1.170   1.532  0.6456  1.1825 -0.7349
 1408TIP3   OH225638   0.989   5.713   1.495 -0.3287  0.1684  0.0675
 1408TIP3    H125639   0.910   5.696   1.545 -0.3316 -1.0173 -0.3102
 1408TIP3    H225640   1.061   5.691   1.554 -0.3372 -1.9203 -0.6206
 1409TIP3   OH225641   5.992   3.469   5.004 -0.3778  0.1549  0.1548
 1409TIP3    H125642   5.997   3.564   4.992 -0.6508 -0.1024 -2.5120
 1409TIP3    H225643   6.078   3.437   4.979 -0.4050 -0.3533  0.6864
 1410TIP3   OH225644   1.804   3.499  13.208  0.1908 -0.6196  0.1389
 1410TIP3    H125645   1.817   3.580  13.258  1.1713  0.3521 -1.6096
 1410TIP3    H225646   1.877   3.443  13.235 -0.0850 -0.6643  0.8178
 1411TIP3   OH225647   6.300   0.213   5.903  0.2694 -1.3916 -0.6238
 1411TIP3    H125648   6.204   0.208   5.911  0.3446 -0.9864  0.7116
 1411TIP3    H225649   6.331   0.130   5.939  0.5142 -0.4341  1.5279
 1412TIP3   OH225650   0.800   6.799  10.813  0.5173 -0.4782 -0.4987
 1412TIP3    H125651   0.766   6.764  10.896  0.7878  0.3072 -0.0381
 1412TIP3    H225652   0.868   6.738  10.787  1.8527  0.3143  0.9440
 1413TIP3   OH225653   5.606   5.633  16.755 -0.0058 -0.0233 -0.1853
 1413TIP3    H125654   5.594   5.658  16.846 -2.2663  1.4807 -0.8107
 1413TIP3    H225655   5.651   5.707  16.715  4.2843 -2.1008  0.3014
 1414TIP3   OH225656   0.015   5.752   0.438 -0.7587 -0.0798 -0.4251
 1414TIP3    H125657   0.017   5.841   0.474  2.2215 -0.3299  0.2539
 1414TIP3    H225658  -0.024   5.699   0.507  1.2018  0.1076  0.8943
 1415TIP3   OH225659   0.948   2.394  14.384  0.3399  0.2802 -0.1017
 1415TIP3    H125660   0.880   2.442  14.338  1.0198 -0.3000 -1.7762
 1415TIP3    H225661   0.952   2.435  14.470 -2.3996  0.0657  0.2188
 1416TIP3   OH225662   3.151   3.317  14.206  0.0108  0.7967 -0.0617
 1416TIP3    H125663   3.186   3.381  14.268  2.9261 -0.8911  0.2119
 1416TIP3    H225664   3.223   3.255  14.193 -2.0469 -1.4003 -1.7183
 1417TIP3   OH225665   6.477   4.509  15.541 -0.1212  0.2562 -0.8758
 1417TIP3    H125666   6.426   4.520  15.461 -1.0796 -1.1031 -0.4821
 1417TIP3    H225667   6.559   4.555  15.523 -0.5640  0.5236 -2.3904
 1418TIP3   OH225668   4.554   2.268  17.055 -0.3613 -0.0252  0.3018
 1418TIP3    H125669   4.632   2.271  17.110  1.6685 -0.8533 -2.3370
 1418TIP3    H225670   4.502   2.343  17.084  1.9809  1.3274  1.3531
 1419TIP3   OH225671   3.775   3.533   4.644  0.1705  0.0719 -0.5085
 1419TIP3    H125672   3.687   3.571   4.640  0.3395  0.6150  0.4899
 1419TIP3    H225673   3.790   3.498   4.556 -1.4846 -1.0542 -0.3927
 1420TIP3   OH225674   5.994   5.920  13.005 -0.2810 -0.1397 -0.5158
 1420TIP3    H125675   5.994   5.862  12.929 -0.7508  1.4178 -1.7758
 1420TIP3    H225676   6.067   5.980  12.990 -1.3611  1.2048 -0.6000
 1421TIP3   OH225677   3.165   5.535  12.756  0.1629 -0.5330  0.2815
 1421TIP3    H125678   3.131   5.455  12.795  0.6463  0.2019  2.3458
 1421TIP3    H225679   3.125   5.538  12.669  0.8369 -3.4223 -0.2194
 1422TIP3   OH225680   4.877   0.144  15.474  0.1650  0.2106  0.2459
 1422TIP3    H125681   4.929   0.212  15.433  0.9088  1.0728  2.4754
 1422TIP3    H225682   4.919   0.130  15.559 -0.9950 -1.8241  0.5472
 1423TIP3   OH225683   5.750   2.556  11.178  0.4071 -0.1661  0.1448
 1423TIP3    H125684   5.839   2.575  11.148  0.5274 -1.5111 -0.3810
 1423TIP3    H225685   5.752   2.465  11.205 -0.1466  0.5070  2.6921
 1424TIP3   OH225686   5.050   5.555   3.934  0.0240  0.7786 -0.0241
 1424TIP3    H125687   4.978   5.611   3.961 -1.3972 -1.6561  1.5692
 1424TIP3    H225688   5.126   5.589   3.982 -0.5424  1.9355  0.0985
 1425TIP3   OH225689   1.425   1.442  12.533 -0.3291  0.0830 -0.2641
 1425TIP3    H125690   1.425   1.534  12.560 -0.1290 -0.0895  0.3356
 1425TIP3    H225691   1.340   1.408  12.562  0.0523 -0.2100  0.5526
 1426TIP3   OH225692   6.314   6.057  12.129 -0.1911  0.4111 -0.0878
 1426TIP3    H125693   6.364   6.066  12.047  0.3590  0.1721  0.2198
 1426TIP3    H225694   6.224   6.076  12.103  0.1565  1.5839 -0.5149
 1427TIP3   OH225695   6.640   1.377   1.181  0.1244  0.5869 -0.4028
 1427TIP3    H125696   6.682   1.294   1.158  1.1234  1.2724 -1.1347
 1427TIP3    H225697   6.705   1.443   1.157 -0.4562  1.5533  0.6458
 1428TIP3   OH225698   1.838   2.993  14.890 -0.0137  0.1717  0.5212
 1428TIP3    H125699   1.825   2.927  14.959  0.3831 -1.2328 -0.6936
 1428TIP3    H225700   1.755   2.997  14.844  0.4685 -0.8290 -0.5010
 1429TIP3   OH225701   5.873   6.486  12.942 -0.5337 -0.6251 -0.0720
 1429TIP3    H125702   5.846   6.398  12.965  0.4754 -1.2351 -1.1199
 1429TIP3    H225703   5.812   6.513  12.874  0.0635 -1.1150 -0.8176
 1430TIP3   OH225704   5.673   4.055  14.330  0.0918 -0.4928  0.4469
 1430TIP3    H125705   5.744   4.110  14.363 -0.5920 -0.2996  1.6759
 1430TIP3    H225706   5.715   3.975  14.301  1.0270  0.3954 -0.7142
 1431TIP3   OH225707   4.410   6.498  11.764  0.0789  0.2005  0.2560
 1431TIP3    H125708   4.447   6.435  11.826  0.7438 -2.6931 -2.7581
 1431TIP3    H225709   4.331   6.455  11.731 -0.0809  1.4731 -1.1154
 1432TIP3   OH225710   3.823   5.739   1.298  0.0296 -0.1827 -0.1468
 1432TIP3    H125711   3.902   5.713   1.250 -0.8922 -0.3407 -1.6445
 1432TIP3    H225712   3.823   5.835   1.292  0.1361 -0.1801 -0.1066
 1433TIP3   OH225713   5.015   4.555   2.384 -0.1102  0.3288 -0.2226
 1433TIP3    H125714   4.931   4.521   2.353 -0.6102  0.9140  0.4818
 1433TIP3    H225715   5.003   4.569   2.478  0.5838  0.9612 -0.2172
 1434TIP3   OH225716   1.706   0.860  11.698 -0.1194  0.2800  0.0941
 1434TIP3    H125717   1.737   0.950  11.702 -0.8182  0.5845 -0.9758
 1434TIP3    H225718   1.770   0.815  11.643 -1.6093  0.9846 -2.3949
 1435TIP3   OH225719   1.921   2.483   3.933 -0.2279 -0.2220  0.2180
 1435TIP3    H125720   1.971   2.517   4.007  1.7526 -1.0728 -0.6440
 1435TIP3    H225721   1.979   2.494   3.857 -2.8293  2.2176 -1.6122
 1436TIP3   OH225722   5.572   3.694  15.396  0.1728  0.2084  0.4184
 1436TIP3    H125723   5.587   3.729  15.308 -0.1531 -0.2739  0.1705
 1436TIP3    H225724   5.657   3.703  15.440  0.3871  0.2773 -0.0079
 1437TIP3   OH225725   5.880   4.133  13.120 -0.3001  0.3492  0.1914
 1437TIP3    H125726   5.960   4.171  13.082 -1.3286  3.1243  0.6113
 1437TIP3    H225727   5.842   4.082  13.049  2.1358 -1.7105  0.1891
 1438TIP3   OH225728   1.111   0.529  15.667 -0.2479  0.2593  0.2879
 1438TIP3    H125729   1.039   0.548  15.727 -0.9872  1.3762 -0.8890
 1438TIP3    H225730   1.080   0.456  15.614 -0.4180  0.5626 -0.0372
 1439TIP3   OH225731   5.749   4.726  14.145 -0.5009  0.7359  0.3047
 1439TIP3    H125732   5.685   4.667  14.105  1.8368 -1.1348 -0.9839
 1439TIP3    H225733   5.806   4.668  14.195 -0.1087  2.3955  1.8801
 1440TIP3   OH225734   2.684   5.988  11.432 -0.0567  0.1659 -0.2666
 1440TIP3    H125735   2.646   5.991  11.345 -0.2182  1.3262 -0.1699
 1440TIP3    H225736   2.617   5.946  11.486  0.7577 -2.2824 -1.0068
 1441TIP3   OH225737   4.914   2.564   5.703 -0.5998  0.3027 -0.8184
 1441TIP3    H125738   4.907   2.534   5.612 -0.3026 -0.1582 -0.6914
 1441TIP3    H225739   4.945   2.488   5.751 -2.4009  0.0218 -0.0178
 1442TIP3   OH225740   0.174   1.003  16.886  0.2491  0.2424 -0.0028
 1442TIP3    H125741   0.129   0.986  16.969  1.2861  0.8697  0.7119
 1442TIP3    H225742   0.112   0.974  16.819 -0.5895 -0.3348  0.9831
 1443TIP3   OH225743   6.810   4.082  15.988 -0.2786  0.2308 -0.2857
 1443TIP3    H125744   6.764   4.005  16.022 -0.6356  1.0693  1.2579
 1443TIP3    H225745   6.895   4.079  16.031  0.3028 -0.1254 -1.4325
 1444TIP3   OH225746   0.747   4.731  15.535 -0.2798 -0.3576 -0.3118
 1444TIP3    H125747   0.770   4.657  15.479 -3.4997 -1.3242 -0.5400
 1444TIP3    H225748   0.689   4.785  15.481  0.6596  1.4927  0.4295
 1445TIP3   OH225749   5.779   0.954  12.894 -0.2613 -0.2178  0.4188
 1445TIP3    H125750   5.762   0.948  12.800  1.8405 -0.5991  0.0108
 1445TIP3    H225751   5.706   0.907  12.935  0.1501 -2.4145 -1.2001
 1446TIP3   OH225752   3.986   0.043  14.317  0.3908 -0.0630 -0.4297
 1446TIP3    H125753   3.899   0.080  14.299  0.6283  2.7845  3.0262
 1446TIP3    H225754   3.970  -0.050  14.334 -1.8771  0.2480 -0.5378
 1447TIP3   OH225755   3.448   3.655   1.865  0.0494  0.0258  0.4168
 1447TIP3    H125756   3.364   3.631   1.827 -0.3910  2.1920 -0.1265
 1447TIP3    H225757   3.445   3.620   1.954 -2.4039  1.8331  1.1758
 1448TIP3   OH225758   0.315   6.068  11.859  0.4959 -0.0399  0.2464
 1448TIP3    H125759   0.389   6.025  11.815  2.3254  1.4854  1.6965
 1448TIP3    H225760   0.350   6.095  11.943 -1.4734  1.5754  0.6023
 1449TIP3   OH225761   3.460   3.235   2.817 -0.5340 -0.0094 -0.1469
 1449TIP3    H125762   3.368   3.228   2.790 -0.7607  1.0569  0.2718
 1449TIP3    H225763   3.468   3.173   2.889 -1.4103  1.1088  0.9624
 1450TIP3   OH225764   2.668   5.714   1.856 -0.4387 -0.5683 -0.4120
 1450TIP3    H125765   2.592   5.655   1.860 -2.1088  1.4307 -0.6859
 1450TIP3    H225766   2.657   5.761   1.773  1.4041 -0.5301 -0.6836
 1451TIP3   OH225767   4.390   2.287   1.243  0.1289 -0.1958  0.7590
 1451TIP3    H125768   4.387   2.225   1.171 -3.0734 -0.3169  0.8205
 1451TIP3    H225769   4.440   2.243   1.312 -0.8165 -2.1136  0.2645
 1452TIP3   OH225770   3.873   2.005  12.070  0.3035 -0.5038 -0.3087
 1452TIP3    H125771   3.901   1.918  12.100 -1.0110 -0.9555 -0.3235
 1452TIP3    H225772   3.786   1.991  12.034 -0.6491  1.1164  1.2148
 1453TIP3   OH225773   3.204   6.691   0.677 -0.0799  0.5531  0.2184
 1453TIP3    H125774   3.159   6.750   0.737  0.5291  1.9319 -0.6275
 1453TIP3    H225775   3.294   6.687   0.711  0.4362  1.8419 -0.8961
 1454TIP3   OH225776   4.042   1.465   1.727 -0.2319 -0.1721 -0.8141
 1454TIP3    H125777   4.049   1.546   1.677  0.2153 -0.5126 -1.3180
 1454TIP3    H225778   4.133   1.435   1.737 -0.2086  0.4179  1.1114
 1455TIP3   OH225779   1.235   1.599  13.706 -0.2294  0.0598 -0.3222
 1455TIP3    H125780   1.144   1.600  13.676 -0.6242 -0.3745  0.7930
 1455TIP3    H225781   1.281   1.657  13.646 -0.9027 -0.9908 -1.9065
 1456TIP3   OH225782   0.095   0.384   0.403 -0.3947 -0.2536 -0.0798
 1456TIP3    H125783   0.016   0.405   0.353 -0.8648 -2.4766 -0.3750
 1456TIP3    H225784   0.103   0.455   0.467 -1.7720  0.7937 -1.0191
 1457TIP3   OH225785   2.989   3.632   3.766 -0.5695  0.2574 -0.4144
 1457TIP3    H125786   2.929   3.685   3.713 -0.7996  0.8230  0.3910
 1457TIP3    H225787   2.935   3.559   3.797 -0.2304 -0.5156 -1.5955
 1458TIP3   OH225788   0.958   2.987  16.086 -0.4666 -0.6250  0.8190
 1458TIP3    H125789   1.006   3.035  16.018 -0.4201 -1.6852  0.0642
 1458TIP3    H225790   1.000   2.901  16.088 -1.5217 -1.1569  1.0247
 1459TIP3   OH225791   6.807   2.391   0.081 -0.0275  0.3573  0.4851
 1459TIP3    H125792   6.887   2.435   0.054  0.3763 -0.4557  0.3215
 1459TIP3    H225793   6.820   2.300   0.056 -2.0622  0.6177 -2.0921
 1460TIP3   OH225794   6.794   4.047   4.955  0.1739  0.5798 -0.0967
 1460TIP3    H125795   6.879   4.014   4.983 -0.4454  0.5053  1.8091
 1460TIP3    H225796   6.730   3.993   5.002 -0.9206  1.5462 -0.4214
 1461TIP3   OH225797   4.751   0.196   1.663  1.0285 -0.0600 -0.0273
 1461TIP3    H125798   4.657   0.192   1.679  1.1690  0.6326  1.0376
 1461TIP3    H225799   4.760   0.176   1.570 -0.0886 -1.0326  0.0574
 1462TIP3   OH225800   0.567   2.115   4.462 -0.0256 -0.2633 -0.7249
 1462TIP3    H125801   0.513   2.065   4.523  1.3236  1.6210  2.1765
 1462TIP3    H225802   0.504   2.165   4.410 -1.1842 -1.5530 -0.6279
 1463TIP3   OH225803   4.620   3.795  14.685 -0.5842  0.3529  0.0280
 1463TIP3    H125804   4.652   3.770  14.598 -1.1782 -2.5986  0.5725
 1463TIP3    H225805   4.693   3.775  14.743  0.2168  3.3257  0.2070
 1464TIP3   OH225806   1.782   0.157   2.422 -0.5705  0.2987 -0.1393
 1464TIP3    H125807   1.748   0.074   2.388 -0.6193 -0.0378  0.7149
 1464TIP3    H225808   1.845   0.185   2.355 -1.8572  0.5064 -1.3279
 1465TIP3   OH225809   1.803   0.579   6.588  0.2193  0.6227 -0.0007
 1465TIP3    H125810   1.758   0.495   6.597 -0.3971  0.7228 -1.8127
 1465TIP3    H225811   1.734   0.644   6.592  0.6391  1.0351  0.8550
 1466TIP3   OH225812   4.925   2.701  11.363 -0.4994 -0.0074 -0.1341
 1466TIP3    H125813   4.912   2.671  11.273 -1.3306  0.9678 -0.3625
 1466TIP3    H225814   5.018   2.718  11.370 -0.3304 -0.6944 -0.6060
 1467TIP3   OH225815   5.319   5.074   5.813  0.2161 -0.0241 -0.0564
 1467TIP3    H125816   5.369   5.092   5.733 -0.5680 -0.4179 -0.6455
 1467TIP3    H225817   5.383   5.084   5.883  1.2150 -0.8414 -0.8190
 1468TIP3   OH225818   6.782   6.275   5.676 -0.0013  0.0945 -0.4176
 1468TIP3    H125819   6.869   6.294   5.713  0.6685 -1.8039 -0.9233
 1468TIP3    H225820   6.784   6.314   5.589  1.4863 -2.4206 -1.5891
 1469TIP3   OH225821   4.127   0.071  13.617 -0.0417 -0.5272  0.2503
 1469TIP3    H125822   4.073   0.003  13.657 -0.2392 -1.0135 -0.8177
 1469TIP3    H225823   4.200   0.024  13.578 -0.3721 -0.1762 -0.8217
 1470TIP3   OH225824   4.393   6.356   3.948  0.2022 -0.1163 -0.6305
 1470TIP3    H125825   4.448   6.279   3.963  1.0601  0.6169  0.0848
 1470TIP3    H225826   4.422   6.420   4.014  0.0578  1.0970 -1.6929
 1471TIP3   OH225827   3.447   3.091   1.152  0.2045 -0.8202 -0.1362
 1471TIP3    H125828   3.449   3.136   1.237 -0.5050  1.9219 -1.4771
 1471TIP3    H225829   3.417   3.002   1.173 -0.6528 -0.0183  2.4041
 1472TIP3   OH225830   0.191   1.512  12.283  0.0813  0.8830 -1.0205
 1472TIP3    H125831   0.230   1.588  12.326 -0.5345  1.0881 -0.8110
 1472TIP3    H225832   0.243   1.438  12.313  1.5909  1.3608 -2.3356
 1473TIP3   OH225833   1.330   3.784   1.366  0.1521  0.0564 -0.0796
 1473TIP3    H125834   1.256   3.828   1.410  0.1222  1.4589 -1.4438
 1473TIP3    H225835   1.300   3.695   1.353 -1.2031  0.5202 -0.3423
 1474TIP3   OH225836   1.597   4.983  13.012  0.0182 -0.0336 -0.2613
 1474TIP3    H125837   1.644   5.027  13.083  0.5850 -0.6783 -0.2276
 1474TIP3    H225838   1.629   4.893  13.014  0.3980  0.0589 -1.6456
 1475TIP3   OH225839   5.310   2.951  12.870 -0.4620 -0.3180  0.0933
 1475TIP3    H125840   5.302   3.036  12.913  2.4199  0.2989 -0.3913
 1475TIP3    H225841   5.384   2.908  12.914  0.8299 -0.7922 -2.3276
 1476TIP3   OH225842   2.726   1.950   1.722 -0.7264 -0.0252 -0.4086
 1476TIP3    H125843   2.745   1.881   1.659 -0.0643 -0.8263  0.6424
 1476TIP3    H225844   2.756   2.030   1.679 -0.8682 -0.4726 -1.3648
 1477TIP3   OH225845   5.411   1.891  14.304 -0.0107 -0.2509  0.4297
 1477TIP3    H125846   5.455   1.876  14.387 -0.1504  0.6436  0.6780
 1477TIP3    H225847   5.351   1.964  14.321 -0.5206 -0.4877 -0.2801
 1478TIP3   OH225848   6.698   0.014  11.938  0.4224 -0.1470 -0.0625
 1478TIP3    H125849   6.755   0.057  12.002  1.2697 -2.4230  0.8037
 1478TIP3    H225850   6.658   0.087  11.889  2.6031  1.5661  0.5419
 1479TIP3   OH225851   3.216   4.888   0.663  0.6803  0.6753  0.0605
 1479TIP3    H125852   3.274   4.826   0.619  1.1257  1.6967 -0.8323
 1479TIP3    H225853   3.150   4.910   0.598  1.4502  2.3385 -0.2262
 1480TIP3   OH225854   2.491   5.447  13.040 -0.2855 -0.2673 -0.1968
 1480TIP3    H125855   2.502   5.542  13.046 -0.6192 -0.2827  0.8493
 1480TIP3    H225856   2.580   5.412  13.044 -0.2526 -0.0698  1.1840
 1481TIP3   OH225857   0.316   4.942   1.174 -0.0394 -0.1247  0.0547
 1481TIP3    H125858   0.274   4.962   1.258  0.4885 -0.1163  0.3186
 1481TIP3    H225859   0.363   5.022   1.152  0.5064 -0.4180  0.1615
 1482TIP3   OH225860   5.846   0.884  14.658 -0.2153 -0.0812 -0.1062
 1482TIP3    H125861   5.899   0.821  14.610  0.6531 -0.5046  1.3179
 1482TIP3    H225862   5.756   0.861  14.638  0.1163 -0.3743 -1.3197
 1483TIP3   OH225863   4.613   0.065   4.489  0.3334 -0.5622 -0.4673
 1483TIP3    H125864   4.706   0.073   4.465  0.9254 -1.6317  1.3388
 1483TIP3    H225865   4.601  -0.028   4.506 -1.3224 -0.5734 -1.5110
 1484TIP3   OH225866   5.368   5.438   3.864 -0.8653  0.4236 -0.1053
 1484TIP3    H125867   5.457   5.461   3.890 -0.9902  1.2715 -0.3874
 1484TIP3    H225868   5.353   5.488   3.784 -1.8572  0.8847  0.3530
 1485TIP3   OH225869   5.346   5.868  11.321  0.1243  0.2140 -0.4019
 1485TIP3    H125870   5.353   5.837  11.411 -2.3680 -0.1015 -0.2337
 1485TIP3    H225871   5.422   5.832  11.276  1.7787  0.9108  1.6784
 1486TIP3   OH225872   6.355   4.882  13.821 -0.1188 -0.3264 -0.6644
 1486TIP3    H125873   6.373   4.907  13.911  1.5311 -1.1603 -0.7393
 1486TIP3    H225874   6.313   4.960  13.783  1.3767  0.9423  0.1501
 1487TIP3   OH225875   2.419   6.432   5.935  0.2012 -0.0526 -0.6889
 1487TIP3    H125876   2.436   6.445   5.842 -1.4227  0.2142 -0.9820
 1487TIP3    H225877   2.385   6.343   5.941 -0.0175  0.0475 -0.4019
 1488TIP3   OH225878   5.827   2.254  11.225 -0.1220  0.2950  0.0678
 1488TIP3    H125879   5.921   2.247  11.242 -0.0728  1.5035  0.3449
 1488TIP3    H225880   5.786   2.232  11.308 -0.0838 -0.0965 -0.0153
 1489TIP3   OH225881   0.480   4.921  14.049 -0.5771  0.3586  0.0436
 1489TIP3    H125882   0.397   4.963  14.024 -0.7058  0.2262  0.2406
 1489TIP3    H225883   0.545   4.961  13.992 -0.5893  1.3157  0.6617
 1490TIP3   OH225884   2.666   5.551  15.443  0.0970  0.1802  0.4407
 1490TIP3    H125885   2.759   5.540  15.425 -0.0640 -0.0943 -0.2555
 1490TIP3    H225886   2.657   5.644  15.465  0.2466  0.6916 -1.4512
 1491TIP3   OH225887   1.671   4.437   1.074  0.0730 -0.2341  0.0856
 1491TIP3    H125888   1.714   4.352   1.069  1.0718  0.1492  1.4208
 1491TIP3    H225889   1.742   4.500   1.085 -0.7532  0.4990  1.6080
 1492TIP3   OH225890   0.579   2.891  15.596  0.0578  0.2716 -0.6880
 1492TIP3    H125891   0.490   2.925  15.587 -0.4390 -1.4302 -4.5182
 1492TIP3    H225892   0.629   2.936  15.528  1.3447 -0.9201 -0.5941
 1493TIP3   OH225893   2.278   3.783   3.475 -0.4795  0.4769 -0.1192
 1493TIP3    H125894   2.315   3.803   3.561  0.3304  0.8166 -0.5360
 1493TIP3    H225895   2.252   3.868   3.440  3.1027  0.9923 -1.9564
 1494TIP3   OH225896   4.499   5.856   5.171  0.4337  0.6286 -0.1394
 1494TIP3    H125897   4.525   5.878   5.081 -1.1022  0.2800 -0.7114
 1494TIP3    H225898   4.438   5.925   5.196 -1.9232 -1.1039 -0.7506
 1495TIP3   OH225899   1.196   0.732   5.145 -0.0608  0.0469  0.1484
 1495TIP3    H125900   1.114   0.768   5.111 -0.3885 -1.0813 -0.2750
 1495TIP3    H225901   1.210   0.780   5.227 -1.1187  0.2807  0.2064
 1496TIP3   OH225902   1.056   2.112  14.262  0.2556  0.1589 -0.1119
 1496TIP3    H125903   1.057   2.127  14.357  0.7257 -1.5771  0.1965
 1496TIP3    H225904   0.971   2.073  14.245  0.1803  0.4491 -0.3965
 1497TIP3   OH225905   4.247   2.287   5.230 -0.1586  0.0547  0.8573
 1497TIP3    H125906   4.257   2.195   5.205 -0.5182  0.3908 -0.6033
 1497TIP3    H225907   4.271   2.289   5.323  1.5879 -1.2066  0.4838
 1498TIP3   OH225908   5.158   5.489  16.949 -0.0608  0.3291 -0.0817
 1498TIP3    H125909   5.170   5.565  16.892  0.4468  1.7277  1.7922
 1498TIP3    H225910   5.194   5.415  16.899 -1.0651  1.1722 -2.1713
 1499TIP3   OH225911   2.249   0.950   1.583 -0.5804 -0.5527  0.8660
 1499TIP3    H125912   2.237   0.881   1.648  0.5191 -2.2866 -0.7031
 1499TIP3    H225913   2.339   0.939   1.553 -0.0034  2.2471  1.2848
 1500TIP3   OH225914   3.206   3.015   1.851  0.4734  0.2877 -0.2001
 1500TIP3    H125915   3.147   2.946   1.881 -2.2475  2.1395 -0.8419
 1500TIP3    H225916   3.250   3.045   1.930  0.7241 -1.2687  0.2796
 1501TIP3   OH225917   0.242   0.901  11.455  0.4296 -0.2051  0.0474
 1501TIP3    H125918   0.311   0.899  11.388  1.2426  2.0644  0.7127
 1501TIP3    H225919   0.163   0.871  11.409  1.1642  0.3225 -1.6587
 1502TIP3   OH225920   4.318   6.432   1.097 -0.3062  0.0578 -0.6556
 1502TIP3    H125921   4.225   6.427   1.119 -0.8184  1.3990 -2.3356
 1502TIP3    H225922   4.342   6.522   1.116  0.9030 -0.5118  0.6056
 1503TIP3   OH225923   6.634   3.081   4.936 -0.0135  0.2231 -0.1046
 1503TIP3    H125924   6.651   3.032   4.856  0.8373 -0.1262  0.2711
 1503TIP3    H225925   6.645   3.173   4.910 -1.5536  0.2387 -0.7943
 1504TIP3   OH225926   0.774   2.002  12.493  0.5494 -0.3346  0.4456
 1504TIP3    H125927   0.779   2.088  12.451  1.9009  0.8928  2.9380
 1504TIP3    H225928   0.858   1.991  12.536 -0.4083 -1.9170  2.0379
 1505TIP3   OH225929   2.520   4.004   2.188 -0.7028  0.0963  0.2066
 1505TIP3    H125930   2.511   4.054   2.269  0.6138  0.3286  0.2428
 1505TIP3    H225931   2.555   4.067   2.125 -0.5848 -0.3722 -0.2078
 1506TIP3   OH225932   6.117   1.435   5.710 -0.4035  0.1508  0.0992
 1506TIP3    H125933   6.151   1.395   5.630 -0.6045 -0.4642  0.3197
 1506TIP3    H225934   6.195   1.460   5.759 -0.2578 -0.7830  0.3637
 1507TIP3   OH225935   2.156   1.674  14.402  0.5110  0.1416  0.1151
 1507TIP3    H125936   2.133   1.635  14.487  0.8955 -0.4904 -0.0636
 1507TIP3    H225937   2.152   1.601  14.340 -2.6437  1.1302 -0.9981
 1508TIP3   OH225938   2.160   3.213  15.808 -0.2815  0.4819 -0.2039
 1508TIP3    H125939   2.141   3.262  15.728  0.9102  2.0289  0.4212
 1508TIP3    H225940   2.232   3.260  15.849  1.8653 -2.5572 -0.1993
 1509TIP3   OH225941   3.542   0.315  14.383 -0.2319  0.0215 -0.3289
 1509TIP3    H125942   3.511   0.269  14.462 -2.2695  1.8767  0.0337
 1509TIP3    H225943   3.465   0.321  14.327  1.3424 -1.9377 -2.9281
 1510TIP3   OH225944   3.483   0.234   4.664 -0.4606  0.1047 -0.0666
 1510TIP3    H125945   3.480   0.167   4.732  1.0684 -1.9876 -1.9106
 1510TIP3    H225946   3.452   0.314   4.707 -3.6505 -1.9738  1.9138
 1511TIP3   OH225947   0.180   2.879   4.947 -0.0499  0.5223 -0.7330
 1511TIP3    H125948   0.125   2.824   4.891  0.6876  0.4903 -1.4567
 1511TIP3    H225949   0.267   2.874   4.906  0.1727  1.7084 -0.4364
 1512TIP3   OH225950   6.692   3.632  16.841  0.1483 -0.5324  0.0737
 1512TIP3    H125951   6.757   3.670  16.900  1.0390 -0.9482 -0.6340
 1512TIP3    H225952   6.654   3.560  16.891 -2.1081  1.6120  1.7461
 1513TIP3   OH225953   4.400   0.231   2.921 -0.3457  0.0299 -0.6073
 1513TIP3    H125954   4.399   0.173   2.997  2.1988 -0.1179 -0.5885
 1513TIP3    H225955   4.423   0.173   2.848 -2.1328  0.2827 -1.4101
 1514TIP3   OH225956   5.261   0.945  14.375 -0.3382 -0.1641  0.0666
 1514TIP3    H125957   5.199   1.000  14.327 -0.0016 -1.3597 -1.8342
 1514TIP3    H225958   5.337   0.937  14.317 -0.5035 -2.8818  0.0734
 1515TIP3   OH225959   6.480   4.133   1.113 -0.3242 -0.2073  0.4884
 1515TIP3    H125960   6.563   4.159   1.073  0.0951 -1.2244  0.6656
 1515TIP3    H225961   6.498   4.134   1.207 -0.5770 -0.2278  0.5373
 1516TIP3   OH225962   1.684   2.994  15.204 -0.3810  0.1307 -0.2624
 1516TIP3    H125963   1.649   3.038  15.127  0.5178  0.1979 -0.6379
 1516TIP3    H225964   1.756   3.049  15.233  0.4548 -0.8318 -0.4539
 1517TIP3   OH225965   1.898   6.089  12.824 -0.6195 -0.3450 -0.5806
 1517TIP3    H125966   1.985   6.049  12.829 -0.1762  0.5022 -1.1920
 1517TIP3    H225967   1.896   6.131  12.738 -1.7769 -0.6498 -0.7238
 1518TIP3   OH225968   3.176   1.663  15.835  0.6494  0.0409  0.0497
 1518TIP3    H125969   3.231   1.710  15.772  0.1435  1.0734  0.3646
 1518TIP3    H225970   3.117   1.730  15.870  0.7861 -0.5561  1.4798
 1519TIP3   OH225971   2.255   3.156   4.158 -0.0825  0.2348  0.2718
 1519TIP3    H125972   2.176   3.101   4.156  0.4057 -0.4656 -0.4524
 1519TIP3    H225973   2.234   3.226   4.220 -0.1263 -1.6320  2.4654
 1520TIP3   OH225974   3.404   4.160   5.062 -0.2018  0.6023  0.4612
 1520TIP3    H125975   3.467   4.224   5.095  0.6198  1.3354 -2.3193
 1520TIP3    H225976   3.331   4.213   5.029 -2.0294 -0.2042  2.8861
 1521TIP3   OH225977   3.560   3.660  12.586 -0.6222 -0.4705 -0.4896
 1521TIP3    H125978   3.524   3.692  12.669 -2.3261 -2.7904 -0.2172
 1521TIP3    H225979   3.607   3.580  12.611  2.6713  1.0663 -1.2366
 1522TIP3   OH225980   2.712   1.389  15.744  0.5649  0.5588  0.4179
 1522TIP3    H125981   2.779   1.403  15.810 -0.5882 -0.5644  1.8921
 1522TIP3    H225982   2.632   1.425  15.782  0.2066  1.5149 -1.1407
 1523TIP3   OH225983   4.770   6.402  12.133 -0.1227  0.0675  0.2297
 1523TIP3    H125984   4.819   6.459  12.073 -1.9824 -0.5504 -2.0361
 1523TIP3    H225985   4.725   6.463  12.191  1.5566  0.7001  0.9266
 1524TIP3   OH225986   5.193   4.688  13.840  0.0005  0.0638 -0.4350
 1524TIP3    H125987   5.202   4.601  13.878 -1.3125 -0.2528 -0.7923
 1524TIP3    H225988   5.171   4.744  13.914  2.5573  0.4666  0.0968
 1525TIP3   OH225989   4.583   5.789   0.823  1.3528  0.2510  0.5675
 1525TIP3    H125990   4.514   5.759   0.763  1.7750 -1.6624  0.9578
 1525TIP3    H225991   4.537   5.843   0.887  0.8637  2.2502 -1.3270
 1526TIP3   OH225992   2.077   3.092   6.273 -0.2449  1.5511  0.2491
 1526TIP3    H125993   2.155   3.122   6.320  0.9984  0.1688 -0.8356
 1526TIP3    H225994   2.023   3.050   6.340  1.0335  0.4804  0.6413
 1527TIP3   OH225995   3.779   4.870  14.074  0.8638  0.0221  0.2705
 1527TIP3    H125996   3.731   4.949  14.099 -1.0723 -1.0006 -0.0326
 1527TIP3    H225997   3.726   4.831  14.005  1.1464 -2.1569  1.2144
 1528TIP3   OH225998   2.141   0.043   2.383 -0.0047  0.1206 -0.0687
 1528TIP3    H125999   2.124   0.104   2.311 -0.1281  1.8158  1.3220
 1528TIP3    H226000   2.104  -0.040   2.354 -0.4662  0.8769 -1.7520
 1529TIP3   OH226001   2.283   3.953  14.086  0.0647 -0.4517  0.3835
 1529TIP3    H126002   2.337   3.977  14.011  0.8522 -1.7071  0.5102
 1529TIP3    H226003   2.250   3.865  14.063 -0.9058 -0.2218  0.8583
 1530TIP3   OH226004   4.774   4.360   2.062  0.1173  0.0738  0.4778
 1530TIP3    H126005   4.732   4.274   2.054 -1.4255  0.9660 -2.8421
 1530TIP3    H226006   4.855   4.352   2.012  1.0965 -0.0040  2.0167
 1531TIP3   OH226007   5.086   6.155  13.710  0.4903 -0.2048 -0.2243
 1531TIP3    H126008   5.033   6.138  13.788  0.1898  0.9928 -0.1454
 1531TIP3    H226009   5.148   6.223  13.737  2.3128 -1.7703 -0.2248
 1532TIP3   OH226010   1.662   0.554   2.505 -0.1602 -0.3200  0.9045
 1532TIP3    H126011   1.586   0.607   2.484 -1.6521 -0.4601  5.0909
 1532TIP3    H226012   1.627   0.467   2.521  1.5101 -1.3588 -0.7106
 1533TIP3   OH226013   3.481   6.519   1.995  0.0954  0.1082  0.3165
 1533TIP3    H126014   3.444   6.598   1.956 -1.4729 -1.0879 -0.7642
 1533TIP3    H226015   3.410   6.483   2.048  1.2063  0.0710  1.8442
 1534TIP3   OH226016   6.629   3.673   2.273 -0.5402 -0.3984  0.2120
 1534TIP3    H126017   6.550   3.725   2.284  0.8442  1.8664  0.2581
 1534TIP3    H226018   6.681   3.692   2.351  1.5735  1.2105 -1.4271
 1535TIP3   OH226019   4.324   5.769   2.363  0.1577  0.3207  0.1802
 1535TIP3    H126020   4.346   5.730   2.278 -1.6226 -0.6216  0.1233
 1535TIP3    H226021   4.355   5.859   2.356  2.4329 -0.4395 -0.4709
 1536TIP3   OH226022   3.981   0.048  16.182  0.1302  0.0756  0.3903
 1536TIP3    H126023   3.979   0.057  16.277 -1.9222 -0.3456  0.4230
 1536TIP3    H226024   3.897   0.081  16.152  0.5312 -0.2696 -1.2463
 1537TIP3   OH226025   6.012   0.743   2.098 -0.0932  0.7691 -0.0852
 1537TIP3    H126026   5.984   0.825   2.056 -0.2290  0.9076  0.2741
 1537TIP3    H226027   5.972   0.674   2.046  0.7328  0.9039 -0.9185
 1538TIP3   OH226028   6.300   1.891   3.578  0.2445 -0.0505 -0.5825
 1538TIP3    H126029   6.211   1.925   3.565 -0.3836 -1.2843  0.3062
 1538TIP3    H226030   6.351   1.968   3.605 -0.9990  0.3464  0.7885
 1539TIP3   OH226031   0.399   5.344  12.422  0.0574  0.0046  0.2716
 1539TIP3    H126032   0.389   5.439  12.419 -1.4555 -0.0894  1.2774
 1539TIP3    H226033   0.468   5.329  12.487 -0.4306  0.4015  0.8955
 1540TIP3   OH226034   5.388   1.631  10.391  0.3749  0.3327 -0.3131
 1540TIP3    H126035   5.446   1.597  10.458  1.0174  1.1189 -0.4629
 1540TIP3    H226036   5.445   1.655  10.319 -0.2881 -0.3216 -1.0800
 1541TIP3   OH226037   0.515   0.366  14.695 -0.2028  0.3142 -0.6668
 1541TIP3    H126038   0.450   0.433  14.715  0.7149  0.6824  1.3282
 1541TIP3    H226039   0.504   0.301  14.764  0.7013 -0.2367 -1.0250
 1542TIP3   OH226040   5.441   3.243  14.231  0.0219 -0.2539 -0.0682
 1542TIP3    H126041   5.424   3.249  14.137 -0.3646 -0.2464  0.0004
 1542TIP3    H226042   5.363   3.200  14.267 -0.4592  0.9543  0.4264
 1543TIP3   OH226043   6.747   6.601  12.980  0.0187  0.4126 -0.0712
 1543TIP3    H126044   6.702   6.628  13.060 -2.0386 -1.4040 -0.5436
 1543TIP3    H226045   6.713   6.661  12.913 -2.0096 -1.0844 -0.4693
 1544TIP3   OH226046   5.213   5.657  16.210  0.3302  0.4914  0.3338
 1544TIP3    H126047   5.251   5.719  16.273  0.6557  1.5938 -0.8978
 1544TIP3    H226048   5.225   5.700  16.125 -1.7984 -0.0928 -0.3014
 1545TIP3   OH226049   0.956   0.586  14.888  0.3069 -0.2173 -0.1115
 1545TIP3    H126050   0.999   0.652  14.943 -0.6124 -0.8835  1.4938
 1545TIP3    H226051   1.001   0.504  14.909 -0.8915 -0.7036  0.6538
 1546TIP3   OH226052   6.340   5.586   1.316 -0.7194  0.1615 -0.0159
 1546TIP3    H126053   6.248   5.573   1.338 -1.0736  2.1929 -0.0593
 1546TIP3    H226054   6.367   5.505   1.274 -2.9021  0.0589 -1.3560
 1547TIP3   OH226055   3.684   0.782  12.111 -0.2083  0.2619 -0.3978
 1547TIP3    H126056   3.763   0.751  12.067 -0.4528  0.7686 -1.2344
 1547TIP3    H226057   3.677   0.874  12.084 -1.5581 -0.0085 -1.0832
 1548TIP3   OH226058   3.615   0.030   3.710 -0.0861 -0.0093  0.1172
 1548TIP3    H126059   3.598   0.077   3.628 -0.3028 -0.5166 -0.1290
 1548TIP3    H226060   3.588  -0.060   3.692  1.2786 -0.4651  0.2652
 1549TIP3   OH226061   4.509   4.748   4.031 -0.1402  0.1016 -0.5914
 1549TIP3    H126062   4.488   4.726   3.940  1.9427 -1.9261 -0.6825
 1549TIP3    H226063   4.440   4.706   4.082 -0.5424  0.0249 -1.1804
 1550TIP3   OH226064   2.423   0.903  14.216  0.1417 -0.6236  0.0821
 1550TIP3    H126065   2.488   0.849  14.261  0.0394 -1.9083 -1.2413
 1550TIP3    H226066   2.364   0.840  14.175 -1.8148  0.5086  1.0162
 1551TIP3   OH226067   0.972   6.794   1.881 -0.6320  0.0793  0.4045
 1551TIP3    H126068   0.909   6.732   1.845 -2.6757  2.0442  0.3483
 1551TIP3    H226069   1.027   6.818   1.806 -0.0963 -1.2979  0.3348
 1552TIP3   OH226070   3.731   6.159  14.332 -0.2106 -0.1221  0.1590
 1552TIP3    H126071   3.772   6.245  14.334 -0.1983 -0.1401  0.7838
 1552TIP3    H226072   3.654   6.170  14.277 -0.0110  0.1990 -0.0575
 1553TIP3   OH226073   0.814   4.295  12.227  0.4722 -0.6522  0.0611
 1553TIP3    H126074   0.860   4.373  12.196  2.0286 -1.5500 -0.0315
 1553TIP3    H226075   0.746   4.327  12.285  1.5592  0.7375  0.6088
 1554TIP3   OH226076   4.160   2.909  12.184  0.4639 -0.3455 -0.1056
 1554TIP3    H126077   4.071   2.940  12.171  0.3805 -0.5956 -0.1421
 1554TIP3    H226078   4.208   2.940  12.107  0.3529 -0.4165 -0.2027
 1555TIP3   OH226079   6.315   6.418  13.428 -0.1460  0.2534  0.1404
 1555TIP3    H126080   6.226   6.384  13.442 -0.4378  0.7118 -0.5680
 1555TIP3    H226081   6.305   6.513  13.429  0.3217  0.3069 -0.0642
 1556TIP3   OH226082   1.339   5.689  12.043 -0.1585 -0.5545  0.3742
 1556TIP3    H126083   1.293   5.739  11.975  0.4192  0.9669  1.0625
 1556TIP3    H226084   1.352   5.603  12.004 -1.4046 -0.2681 -0.7700
 1557TIP3   OH226085   1.920   5.468  12.235  0.3734  0.2776  0.5936
 1557TIP3    H126086   1.980   5.393  12.226  1.4926  1.0420  1.3258
 1557TIP3    H226087   1.958   5.536  12.179 -0.9116  0.1611 -0.4599
 1558TIP3   OH226088   5.269   0.244  16.046  0.3618 -0.2378 -0.6776
 1558TIP3    H126089   5.297   0.154  16.060  1.2031  0.1557  0.2760
 1558TIP3    H226090   5.266   0.283  16.134  0.5866  0.8286 -1.1222
 1559TIP3   OH226091   0.471   2.502   0.271  0.2607 -1.1832  0.4598
 1559TIP3    H126092   0.392   2.523   0.222  1.6751  0.7049 -1.1538
 1559TIP3    H226093   0.440   2.448   0.344 -2.3323 -1.4901 -0.7503
 1560TIP3   OH226094   2.315   3.185  12.579 -0.3267 -0.3027  0.2501
 1560TIP3    H126095   2.374   3.111  12.564 -0.9427 -0.8603  0.5537
 1560TIP3    H226096   2.368   3.247  12.631 -1.0357 -2.3424  3.7266
 1561TIP3   OH226097   4.075   5.591   1.942  0.1202  0.1552 -0.2796
 1561TIP3    H126098   4.006   5.548   1.992  0.2601 -1.0305 -1.0881
 1561TIP3    H226099   4.063   5.561   1.852 -1.4000  3.8190 -1.5060
 1562TIP3   OH226100   6.179   1.646   1.185  0.1365  0.3722  0.4350
 1562TIP3    H126101   6.205   1.735   1.211  0.4608  0.5115 -0.3603
 1562TIP3    H226102   6.260   1.596   1.184  0.0192  0.1783  0.4037
 1563TIP3   OH226103   0.623   3.249   1.833 -0.4577 -0.1821  0.2510
 1563TIP3    H126104   0.662   3.205   1.758 -1.6575 -0.4533 -0.2301
 1563TIP3    H226105   0.604   3.179   1.895 -1.1900 -0.1905  0.0207
 1564TIP3   OH226106   5.816   2.268  13.969  0.1352 -0.5342 -0.3059
 1564TIP3    H126107   5.841   2.260  13.877 -0.3053  0.7289 -0.5526
 1564TIP3    H226108   5.888   2.226  14.016  0.2651 -1.3899 -1.2239
 1565TIP3   OH226109   1.627   5.131  14.867 -0.2618  0.2011 -0.0887
 1565TIP3    H126110   1.656   5.066  14.932  0.4091 -1.9174 -2.3457
 1565TIP3    H226111   1.708   5.163  14.828 -0.6235  2.0534  0.5708
 1566TIP3   OH226112   2.046   0.751  10.261  0.1272  0.1720 -0.5347
 1566TIP3    H126113   2.057   0.828  10.206  1.0796 -0.1211 -0.7637
 1566TIP3    H226114   2.039   0.786  10.350  1.8100  0.4754 -0.4873
 1567TIP3   OH226115   0.669   5.358  15.133  0.0282 -0.1083 -0.5771
 1567TIP3    H126116   0.760   5.334  15.150 -0.1524 -1.1648 -1.0257
 1567TIP3    H226117   0.626   5.348  15.218  0.3788  0.6289 -0.3114
 1568TIP3   OH226118   2.815   0.761   0.467  1.2529 -0.2008 -0.3217
 1568TIP3    H126119   2.777   0.806   0.542  1.2568 -0.0765 -0.3943
 1568TIP3    H226120   2.845   0.832   0.409  2.3946 -0.2838  0.1362
 1569TIP3   OH226121   5.867   0.350   4.889  0.9091  0.2221  0.0862
 1569TIP3    H126122   5.792   0.402   4.861 -0.6246 -1.4865  0.8040
 1569TIP3    H226123   5.866   0.274   4.832  0.9124 -0.7551  1.3458
 1570TIP3   OH226124   1.335   4.611   0.698 -0.1058  0.1533 -0.5951
 1570TIP3    H126125   1.402   4.565   0.750 -1.4028  0.8420  1.8598
 1570TIP3    H226126   1.384   4.660   0.633  1.8020  0.5222  1.0287
 1571TIP3   OH226127   1.145   5.854  12.446  0.2826  0.5611  0.3921
 1571TIP3    H126128   1.206   5.879  12.516  0.2832  2.4065 -0.2236
 1571TIP3    H226129   1.200   5.810  12.381  0.2807 -1.1858  1.5024
 1572TIP3   OH226130   5.801   3.589   4.395 -0.0795 -0.7853  0.4652
 1572TIP3    H126131   5.737   3.527   4.359  1.1678 -2.5679  1.1953
 1572TIP3    H226132   5.750   3.668   4.412 -1.6506 -1.4410 -0.8742
 1573TIP3   OH226133   4.619   6.142   3.667 -0.0822 -0.0964 -0.0096
 1573TIP3    H126134   4.647   6.105   3.584 -1.8426 -1.1930 -0.1532
 1573TIP3    H226135   4.681   6.107   3.731  1.6674  1.2503 -0.8800
 1574TIP3   OH226136   1.080   3.731  17.076 -0.0890  0.3107 -0.1519
 1574TIP3    H126137   1.112   3.648  17.112  0.0626  1.1723  1.8331
 1574TIP3    H226138   1.118   3.736  16.988  0.1290 -1.5713 -0.1958
 1575TIP3   OH226139   5.562   6.261   0.841 -0.1006 -0.6427  0.1306
 1575TIP3    H126140   5.541   6.340   0.791 -1.1597 -1.3580 -0.6130
 1575TIP3    H226141   5.622   6.291   0.910  0.0980  0.6618 -0.5771
 1576TIP3   OH226142   6.433   5.529   5.615 -0.5362 -0.6963 -0.1172
 1576TIP3    H126143   6.408   5.465   5.549 -1.4551  0.8937 -1.3955
 1576TIP3    H226144   6.360   5.532   5.676  0.6716 -2.7876  1.5679
 1577TIP3   OH226145   0.357   5.697  16.524  0.1760 -0.2411  0.3103
 1577TIP3    H126146   0.275   5.746  16.522 -0.0437 -0.5269  1.4135
 1577TIP3    H226147   0.362   5.655  16.439  1.5304  3.4547 -1.6629
 1578TIP3   OH226148   0.117   4.557  15.916 -0.1368 -0.4464  0.4123
 1578TIP3    H126149   0.139   4.481  15.970  2.3818  0.4800  0.8563
 1578TIP3    H226150   0.133   4.632  15.974 -0.8024  0.4744 -0.5645
 1579TIP3   OH226151   0.272   5.685   4.398 -0.4765 -0.2305 -0.3536
 1579TIP3    H126152   0.240   5.774   4.383 -1.0344 -0.4962 -0.7757
 1579TIP3    H226153   0.199   5.629   4.373 -0.0145 -0.8179 -0.4039
 1580TIP3   OH226154   3.475   0.629   5.166 -0.1602 -0.0814  0.4100
 1580TIP3    H126155   3.524   0.557   5.126  1.8774  2.0901 -1.3040
 1580TIP3    H226156   3.534   0.664   5.233  0.8606  2.5562 -1.6595
 1581TIP3   OH226157   1.672   6.480   5.552  0.6806  0.1416  0.0331
 1581TIP3    H126158   1.615   6.557   5.551  0.5500  0.0538  0.5452
 1581TIP3    H226159   1.760   6.516   5.568  0.7257  0.2406 -0.3997
 1582TIP3   OH226160   4.692   0.786  16.048  0.6916  0.0121 -0.4587
 1582TIP3    H126161   4.623   0.814  16.107  1.1494 -2.9003  1.6585
 1582TIP3    H226162   4.765   0.846  16.065  0.2978  0.1314  0.8559
 1583TIP3   OH226163   2.530   2.752  11.245  0.4542  0.0388  0.1812
 1583TIP3    H126164   2.526   2.742  11.150 -1.0892  0.2271  0.1995
 1583TIP3    H226165   2.445   2.721  11.277  2.3266 -3.9561  1.9543
 1584TIP3   OH226166   3.047   5.339  16.347  0.2842 -0.3941  0.1088
 1584TIP3    H126167   3.039   5.244  16.340  0.7216 -0.3413 -1.5654
 1584TIP3    H226168   3.106   5.353  16.421 -0.0505 -1.4005  0.5923
 1585TIP3   OH226169   1.996   4.280   6.352 -0.0324 -0.6833 -0.8600
 1585TIP3    H126170   1.901   4.287   6.341 -0.7047 -2.7374  2.3374
 1585TIP3    H226171   2.028   4.368   6.335 -2.4589  0.0270 -2.2930
 1586TIP3   OH226172   2.293   3.765   1.733  0.0752  0.1634 -0.0002
 1586TIP3    H126173   2.309   3.800   1.646 -0.5751 -0.4421 -0.3721
 1586TIP3    H226174   2.324   3.833   1.793  1.1645  0.2923 -0.6933
 1587TIP3   OH226175   3.327   1.712   5.140 -0.2921 -0.2767 -0.4915
 1587TIP3    H126176   3.416   1.741   5.120 -0.1987  2.0260  2.5247
 1587TIP3    H226177   3.272   1.754   5.074  0.6109  0.5481 -0.7315
 1588TIP3   OH226178   5.519   4.142  10.730  0.0233  0.1694  0.3855
 1588TIP3    H126179   5.614   4.142  10.715  0.1931  1.3898  1.3361
 1588TIP3    H226180   5.509   4.158  10.824 -1.1321  1.2752  0.1041
 1589TIP3   OH226181   2.974   0.629   1.327  0.2215 -0.3325 -0.4930
 1589TIP3    H126182   3.004   0.613   1.416 -1.0496  0.5531  0.1218
 1589TIP3    H226183   3.044   0.595   1.272  1.2879 -0.3896  0.8446
 1590TIP3   OH226184   6.408   3.960  14.734 -0.2782  0.1242  0.5413
 1590TIP3    H126185   6.333   3.990  14.684  0.0941 -0.6881 -0.5624
 1590TIP3    H226186   6.475   3.942  14.668  0.5714 -0.0363  1.4180
 1591TIP3   OH226187   4.944   6.163  11.208  0.0798  0.1741 -0.3467
 1591TIP3    H126188   4.979   6.101  11.272  0.0686  1.5310  1.0518
 1591TIP3    H226189   4.861   6.125  11.180 -0.4466  0.0241  1.2911
 1592TIP3   OH226190   4.148   2.141  14.347  0.5443 -0.0845  0.5129
 1592TIP3    H126191   4.223   2.164  14.292  0.5701 -0.5001  0.3712
 1592TIP3    H226192   4.073   2.144  14.288  0.5753 -0.5561  0.4464
 1593TIP3   OH226193   2.776   0.489   2.700  0.2826 -0.7395 -0.2087
 1593TIP3    H126194   2.702   0.462   2.646 -0.2389  0.9385 -0.4000
 1593TIP3    H226195   2.834   0.535   2.640  1.7705 -2.4379 -0.1659
 1594TIP3   OH226196   6.653   6.723  14.170  0.2835  0.2688 -0.2814
 1594TIP3    H126197   6.612   6.637  14.184  1.3048 -0.0499  0.8957
 1594TIP3    H226198   6.579   6.784  14.162 -0.4477 -0.6513 -0.8016
 1595TIP3   OH226199   4.825   3.845   1.937 -0.4399  0.0789  0.3587
 1595TIP3    H126200   4.780   3.762   1.954  0.6400 -0.6756 -0.2812
 1595TIP3    H226201   4.902   3.820   1.884  1.7272  1.0471  2.8246
 1596TIP3   OH226202   5.131   6.354   0.173 -0.1535  0.0481  0.0811
 1596TIP3    H126203   5.042   6.388   0.162 -0.0453  0.2706 -0.0980
 1596TIP3    H226204   5.153   6.374   0.264 -1.1449 -2.0315  0.8520
 1597TIP3   OH226205   3.297   4.115   3.299  0.2437 -0.1743 -0.1586
 1597TIP3    H126206   3.236   4.165   3.354  1.1114 -0.1529  0.8126
 1597TIP3    H226207   3.281   4.024   3.322  0.5756 -0.1680  0.1064
 1598TIP3   OH226208   3.057   2.018  12.268  0.1454 -0.3379  0.0781
 1598TIP3    H126209   3.118   2.015  12.341  0.1728  1.9523  0.2318
 1598TIP3    H226210   3.007   1.937  12.275  0.9675 -0.7465  1.8885
 1599TIP3   OH226211   1.324   5.502   0.449 -0.6059 -0.4931 -0.4511
 1599TIP3    H126212   1.419   5.500   0.439 -0.5995 -0.4633 -0.3996
 1599TIP3    H226213   1.299   5.594   0.436 -0.5120 -0.3196  0.5081
 1600TIP3   OH226214   1.147   1.222  10.992  0.2480  0.2249 -0.0380
 1600TIP3    H126215   1.061   1.228  10.950  0.6160 -0.6035 -0.9567
 1600TIP3    H226216   1.133   1.165  11.068 -0.4751  1.9195  1.1693
 1601TIP3   OH226217   5.684   2.381  14.353  0.2760 -0.3065 -0.5696
 1601TIP3    H126218   5.637   2.377  14.437 -0.4805 -1.0660 -1.0177
 1601TIP3    H226219   5.743   2.455  14.363 -0.5454  0.2634  0.2634
 1602TIP3   OH226220   3.262   0.135  15.275 -0.5816  0.2513 -0.3143
 1602TIP3    H126221   3.340   0.188  15.291 -0.2850  0.7464 -2.9756
 1602TIP3    H226222   3.243   0.095  15.360  0.2599  3.1237  1.3919
 1603TIP3   OH226223   4.344   6.546  15.225 -0.6190  0.0503  0.3454
 1603TIP3    H126224   4.313   6.458  15.204 -0.6256  0.2926 -0.7190
 1603TIP3    H226225   4.285   6.604  15.177 -0.4170  0.6327  0.7853
 1604TIP3   OH226226   2.880   3.665   3.437  0.3480 -0.9964  0.2586
 1604TIP3    H126227   2.843   3.578   3.426 -2.4239  0.2591 -1.4472
 1604TIP3    H226228   2.834   3.701   3.513 -0.7745 -0.0198 -0.8438
 1605TIP3   OH226229   0.805   0.895  16.731 -0.2640 -0.0047 -0.4050
 1605TIP3    H126230   0.900   0.907  16.725 -0.0340 -1.7345 -0.8169
 1605TIP3    H226231   0.781   0.859  16.646 -0.7986 -2.3535  0.6567
 1606TIP3   OH226232   3.805   1.293   3.859 -0.2693 -0.0505  0.0490
 1606TIP3    H126233   3.762   1.377   3.876 -0.5184 -0.5249  2.1256
 1606TIP3    H226234   3.896   1.317   3.838 -0.2300  0.7625  1.0244
 1607TIP3   OH226235   4.245   2.744  15.147 -0.3144  0.0439 -0.3367
 1607TIP3    H126236   4.163   2.780  15.114 -0.3176  1.2400  0.8887
 1607TIP3    H226237   4.236   2.747  15.242  1.0521 -0.0251 -0.1839
 1608TIP3   OH226238   2.503   3.938  16.962  0.1355  0.0617 -0.5764
 1608TIP3    H126239   2.506   3.873  17.033 -0.6436  0.8014  0.1502
 1608TIP3    H226240   2.577   3.996  16.980  0.7695 -0.5533 -1.1671
 1609TIP3   OH226241   1.652   6.328   4.029 -0.1882 -0.1994  0.0605
 1609TIP3    H126242   1.603   6.406   4.054 -2.0740 -0.9692 -0.9934
 1609TIP3    H226243   1.683   6.291   4.112  1.8972  2.2737  0.5310
 1610TIP3   OH226244   4.172   4.757   5.750 -0.3279  0.5553 -0.2086
 1610TIP3    H126245   4.140   4.808   5.824  0.9155  0.3773  0.4877
 1610TIP3    H226246   4.266   4.776   5.747 -0.3284  0.4026 -1.6202
 1611TIP3   OH226247   5.630   4.095  16.546 -0.3179 -0.0593  0.4297
 1611TIP3    H126248   5.574   4.107  16.623  0.2537 -0.4238  0.9147
 1611TIP3    H226249   5.693   4.027  16.572  0.1926  0.1630 -0.1836
 1612TIP3   OH226250   0.542   2.961   1.887 -0.4544  0.1625  0.0967
 1612TIP3    H126251   0.516   2.882   1.934  0.4777 -0.2040  0.0067
 1612TIP3    H226252   0.459   3.000   1.858 -0.9937 -0.1625  1.1232
 1613TIP3   OH226253   2.489   1.264  11.276 -0.3785 -0.1526 -0.0642
 1613TIP3    H126254   2.555   1.210  11.319  0.4908 -0.4014 -1.6351
 1613TIP3    H226255   2.504   1.352  11.310  0.0956 -0.3919  0.3633
 1614TIP3   OH226256   0.409   6.330  14.098 -0.6849 -0.1668 -0.3595
 1614TIP3    H126257   0.501   6.352  14.083 -1.0802  0.2412 -2.4753
 1614TIP3    H226258   0.410   6.281  14.181  1.4887 -0.5647 -0.5479
 1615TIP3   OH226259   4.992   3.768   3.853 -0.2622  0.1413  0.0393
 1615TIP3    H126260   4.948   3.690   3.818  0.1789 -0.5943  1.1081
 1615TIP3    H226261   4.992   3.756   3.948  2.6369 -0.1125  0.0966
 1616TIP3   OH226262   3.957   2.678   1.483  0.3694  0.2607  0.3114
 1616TIP3    H126263   4.051   2.682   1.464  0.0990  1.6834 -0.9363
 1616TIP3    H226264   3.952   2.656   1.576  1.9427  0.8873  0.5743
 1617TIP3   OH226265   1.139   3.390  11.904 -0.1083 -0.0428  0.2636
 1617TIP3    H126266   1.133   3.484  11.924 -1.8415 -0.2997  1.1714
 1617TIP3    H226267   1.164   3.349  11.987 -2.8277 -0.6661  0.8881
 1618TIP3   OH226268   5.181   4.479  14.905 -0.2015 -0.0759  0.0539
 1618TIP3    H126269   5.152   4.565  14.874  0.4428 -0.5801 -2.1205
 1618TIP3    H226270   5.269   4.495  14.939 -0.5504  0.3221  0.7988
 1619TIP3   OH226271   4.144   6.721  15.196 -0.9250 -0.0614 -0.0631
 1619TIP3    H126272   4.074   6.750  15.255 -0.6536  0.2632  0.1029
 1619TIP3    H226273   4.132   6.774  15.117 -1.6517 -0.9057 -0.5477
 1620TIP3   OH226274   3.555   5.681   4.817  0.1235 -0.1126  0.5689
 1620TIP3    H126275   3.538   5.764   4.773  1.8510 -1.5282 -3.1252
 1620TIP3    H226276   3.630   5.699   4.874  0.2941  0.9186  0.0428
 1621TIP3   OH226277   2.311   5.748  15.704 -0.0591  0.2086 -0.7080
 1621TIP3    H126278   2.309   5.653  15.709  4.0475 -0.0324 -0.0405
 1621TIP3    H226279   2.329   5.767  15.612  1.7122  0.1105 -0.4162
 1622TIP3   OH226280   1.539   0.244   6.403 -0.3364 -0.1168  0.0939
 1622TIP3    H126281   1.443   0.243   6.397 -0.3583 -0.1450  0.4207
 1622TIP3    H226282   1.565   0.153   6.388 -0.6456 -1.0562  4.1198
 1623TIP3   OH226283   3.767   2.910  11.289 -0.2772 -0.6845 -0.1542
 1623TIP3    H126284   3.834   2.890  11.354  0.3697  0.7975 -0.3116
 1623TIP3    H226285   3.813   2.909  11.205 -0.5183 -0.0140 -0.3001
 1624TIP3   OH226286   2.478   5.524  12.397  0.6050  1.0291  0.6443
 1624TIP3    H126287   2.418   5.570  12.338 -0.0426 -0.1197  0.3819
 1624TIP3    H226288   2.451   5.432  12.392  1.9796  0.5886  1.0289
 1625TIP3   OH226289   0.459   6.754  16.398 -0.4318 -0.5826 -0.2235
 1625TIP3    H126290   0.487   6.702  16.473 -0.2760 -0.5392 -0.2503
 1625TIP3    H226291   0.411   6.693  16.342 -0.7032 -0.5730 -0.0042
 1626TIP3   OH226292   1.008   3.416  12.918  0.2076  0.4403  0.3532
 1626TIP3    H126293   0.924   3.416  12.965  0.5060 -0.8155  0.9116
 1626TIP3    H226294   1.027   3.324  12.902  0.9168  0.7645 -0.8321
 1627TIP3   OH226295   1.464   0.885  14.935 -0.2357 -0.0679  0.5428
 1627TIP3    H126296   1.457   0.981  14.935  0.1847 -0.0080  2.3658
 1627TIP3    H226297   1.506   0.864  14.852  1.6826  1.5160  1.0341
 1628TIP3   OH226298   0.661   0.999   0.910 -0.2272  0.3903  0.4775
 1628TIP3    H126299   0.712   0.920   0.925  0.2168  0.8493  1.4344
 1628TIP3    H226300   0.575   0.967   0.882  0.4127 -0.3924 -0.6529
 1629TIP3   OH226301   6.328   2.469   1.586  0.4893 -0.0341 -0.1005
 1629TIP3    H126302   6.399   2.525   1.555  0.3498  1.2242  1.6722
 1629TIP3    H226303   6.339   2.387   1.539  1.9420  0.7965 -1.2828
 1630TIP3   OH226304   5.836   3.373   2.646 -0.3061 -0.4135  0.3283
 1630TIP3    H126305   5.764   3.435   2.655 -0.4440 -0.5768  0.3464
 1630TIP3    H226306   5.820   3.328   2.563  0.6914  0.7340 -0.5290
 1631TIP3   OH226307   6.467   6.701  13.061  0.0824  0.2464 -0.4577
 1631TIP3    H126308   6.456   6.665  12.973 -0.9842 -0.6347  0.0190
 1631TIP3    H226309   6.379   6.702  13.098  0.6141 -0.0695  0.8541
 1632TIP3   OH226310   2.582   1.773  10.703  0.2618  0.1672 -0.5203
 1632TIP3    H126311   2.559   1.852  10.654 -0.7705  0.4912  0.4486
 1632TIP3    H226312   2.499   1.744  10.741  1.0521  0.0286  1.1735
 1633TIP3   OH226313   5.587   0.960  16.434  0.1615 -0.2232 -0.7614
 1633TIP3    H126314   5.583   0.886  16.374 -1.8844 -0.5133 -0.3737
 1633TIP3    H226315   5.596   0.921  16.521 -0.5808 -0.0363 -0.5867
 1634TIP3   OH226316   0.985   1.985   1.537  0.5155  0.5077 -0.2863
 1634TIP3    H126317   1.045   2.022   1.473 -1.8836  0.6551 -2.6133
 1634TIP3    H226318   0.922   2.054   1.554 -0.1002 -0.2493  0.6012
 1635TIP3   OH226319   1.435   4.533  11.762  0.3080  0.0455 -0.1379
 1635TIP3    H126320   1.402   4.511  11.675  1.2034 -0.7590 -0.2929
 1635TIP3    H226321   1.455   4.448  11.802  0.4214  0.4318  0.6455
 1636TIP3   OH226322   2.940   2.768   1.443 -0.1478  0.2325  0.2918
 1636TIP3    H126323   2.947   2.767   1.347  0.1002 -1.2907  0.2885
 1636TIP3    H226324   2.859   2.815   1.460  0.7106  2.1379 -0.5526
 1637TIP3   OH226325   0.445   2.489   3.231  0.0269  0.0465 -0.4468
 1637TIP3    H126326   0.497   2.549   3.178  1.1390 -0.9427 -0.5028
 1637TIP3    H226327   0.477   2.402   3.208 -0.9422 -0.5272  0.2864
 1638TIP3   OH226328   3.110   4.547   0.278  0.4684 -0.7934  0.7980
 1638TIP3    H126329   3.150   4.612   0.220 -2.2750 -0.1943 -0.5852
 1638TIP3    H226330   3.184   4.498   0.314  2.4132  0.2417 -1.5209
 1639TIP3   OH226331   6.302   5.813   5.840 -0.4764 -0.1428  0.0997
 1639TIP3    H126332   6.251   5.861   5.905 -0.6060 -2.4504  1.8231
 1639TIP3    H226333   6.274   5.722   5.850 -0.1449 -0.6823 -2.9159
 1640TIP3   OH226334   6.081   6.376   0.525 -0.5397  0.4929  0.0610
 1640TIP3    H126335   6.147   6.445   0.521 -1.7588  1.6727 -0.7784
 1640TIP3    H226336   6.004   6.419   0.561 -0.9792 -0.7600  0.6661
 1641TIP3   OH226337   4.668   6.314   0.040  0.0325 -0.1622 -0.1480
 1641TIP3    H126338   4.580   6.336   0.071 -0.4184 -4.9194  2.8540
 1641TIP3    H226339   4.655   6.237  -0.016  2.1565  0.2197 -1.2681
 1642TIP3   OH226340   5.788   3.748  13.294 -0.5914  0.3500  0.3367
 1642TIP3    H126341   5.722   3.711  13.352 -1.4541  2.3140  0.6801
 1642TIP3    H226342   5.761   3.839  13.280  1.6597  1.0439 -0.0651
 1643TIP3   OH226343   0.898   5.029  16.635  0.7799  0.2224  0.0156
 1643TIP3    H126344   0.892   5.124  16.622 -2.9997  0.1890  0.3968
 1643TIP3    H226345   0.925   5.019  16.726 -0.2650  1.0255  0.4436
 1644TIP3   OH226346   3.805   5.386   5.579  0.1170  0.2488 -0.0813
 1644TIP3    H126347   3.865   5.415   5.648  1.1045 -1.7272 -0.0584
 1644TIP3    H226348   3.746   5.461   5.566  1.1320  1.3879  1.5131
 1645TIP3   OH226349   6.559   4.270  10.228 -0.1439 -0.6234 -0.1491
 1645TIP3    H126350   6.495   4.335  10.198 -0.2813  1.4911  4.0288
 1645TIP3    H226351   6.509   4.211  10.284  0.9272 -1.2666  0.1504
 1646TIP3   OH226352   2.307   2.696  11.745 -0.2953 -0.2479 -0.3269
 1646TIP3    H126353   2.315   2.777  11.796 -1.8667 -1.0912  1.3883
 1646TIP3    H226354   2.236   2.714  11.683 -0.7446 -0.3285  0.1524
 1647TIP3   OH226355   3.712   4.867  14.452 -0.0210 -0.1187 -0.4132
 1647TIP3    H126356   3.726   4.931  14.522 -1.4050 -1.4395  1.1461
 1647TIP3    H226357   3.670   4.918  14.382  1.0521  1.1490 -0.1719
 1648TIP3   OH226358   1.595   3.175   0.636 -0.1812  0.7483 -0.2277
 1648TIP3    H126359   1.658   3.245   0.650 -1.0267  1.7160 -1.0804
 1648TIP3    H226360   1.512   3.220   0.621 -0.5330 -0.3792 -1.9320
 1649TIP3   OH226361   5.166   5.997   0.815 -0.1119  0.5397  0.4646
 1649TIP3    H126362   5.243   5.979   0.762 -0.8159 -1.0011 -0.1217
 1649TIP3    H226363   5.156   6.092   0.812  1.9536  0.8057  0.8787
 1650TIP3   OH226364   2.928   3.684  13.651  0.2581  0.3028 -0.3632
 1650TIP3    H126365   2.983   3.618  13.693  0.2540  0.2132 -0.4950
 1650TIP3    H226366   2.848   3.636  13.627 -0.0130  0.5039  0.1155
 1651TIP3   OH226367   3.582   0.396   1.233 -0.2726 -0.3684 -0.0870
 1651TIP3    H126368   3.669   0.362   1.211 -0.3186  0.5835 -1.9260
 1651TIP3    H226369   3.598   0.483   1.268 -0.5055  0.3284 -1.6140
 1652TIP3   OH226370   6.015   0.667  15.316 -0.3611  0.4212 -0.1886
 1652TIP3    H126371   6.022   0.636  15.406  0.4001  1.5764  0.1765
 1652TIP3    H226372   5.936   0.625  15.282 -0.0187 -0.9410  0.6353
 1653TIP3   OH226373   0.013   2.170   3.871  0.2100  0.1188 -0.5821
 1653TIP3    H126374   0.065   2.162   3.792  0.3153  1.8002 -0.7175
 1653TIP3    H226375   0.070   2.216   3.933 -0.4803  0.4086 -0.1446
 1654TIP3   OH226376   4.042   2.305   1.558 -0.6426 -0.1077 -0.0565
 1654TIP3    H126377   3.949   2.297   1.581 -0.8827 -1.0616 -1.2921
 1654TIP3    H226378   4.043   2.359   1.479  0.0206  1.4122  0.9370
 1655TIP3   OH226379   0.599   5.339   3.590  0.1545 -0.2022 -0.1243
 1655TIP3    H126380   0.557   5.320   3.506 -1.0703 -0.2202  0.4694
 1655TIP3    H226381   0.612   5.253   3.630 -1.9298 -0.1008  0.9257
 1656TIP3   OH226382   5.088   0.896  10.803 -0.5545 -0.3277  0.6748
 1656TIP3    H126383   5.017   0.918  10.864 -1.3491  0.6810 -0.5567
 1656TIP3    H226384   5.097   0.974  10.747 -0.7802 -1.6681 -1.3363
 1657TIP3   OH226385   1.872   5.617   1.901  0.2127  0.2806  0.2825
 1657TIP3    H126386   1.857   5.610   1.995 -1.2784  0.4857  0.0766
 1657TIP3    H226387   1.855   5.530   1.867  1.2709  0.0676  0.2399
 1658TIP3   OH226388   2.551   1.438  13.520 -0.6692 -0.0737  0.3012
 1658TIP3    H126389   2.556   1.358  13.467 -0.1026  0.3607 -0.3128
 1658TIP3    H226390   2.500   1.412  13.597 -1.3708 -0.7586 -0.3696
 1659TIP3   OH226391   4.915   3.351   6.208  0.6210 -0.4426  0.3037
 1659TIP3    H126392   4.837   3.312   6.248 -0.1511  0.3951 -0.3474
 1659TIP3    H226393   4.980   3.353   6.279  0.0578 -1.1570  0.8488
 1660TIP3   OH226394   5.817   3.038  13.488 -0.1738  0.1492  0.4292
 1660TIP3    H126395   5.854   2.950  13.483  0.9903  0.6536 -0.2790
 1660TIP3    H226396   5.857   3.076  13.566  0.8737  0.7049 -0.3530
 1661TIP3   OH226397   0.527   5.796  13.732  0.7298  0.5404  0.1235
 1661TIP3    H126398   0.489   5.818  13.647  2.0385 -0.3644 -0.7443
 1661TIP3    H226399   0.456   5.756  13.780  0.3330 -0.3410 -1.1340
 1662TIP3   OH226400   1.535   2.027   1.604 -0.5423 -0.0029 -0.7209
 1662TIP3    H126401   1.444   1.999   1.602 -0.2034 -1.1844 -0.6057
 1662TIP3    H226402   1.581   1.955   1.648  0.3696  0.7980 -0.3167
 1663TIP3   OH226403   3.644   0.838   1.010  0.3950 -0.1856  0.1949
 1663TIP3    H126404   3.683   0.924   0.998 -1.5104  0.5804 -1.0505
 1663TIP3    H226405   3.576   0.850   1.077  0.4586 -0.8288  0.3837
 1664TIP3   OH226406   2.479   0.223   2.385  0.2670  0.1033  0.3311
 1664TIP3    H126407   2.446   0.152   2.330 -0.0570  0.1984  0.4000
 1664TIP3    H226408   2.572   0.204   2.395  0.0317 -0.7894  1.0484
 1665TIP3   OH226409   0.673   1.324   4.090 -0.0284 -0.7428 -0.4459
 1665TIP3    H126410   0.679   1.281   4.005 -0.4447 -1.4885 -0.1097
 1665TIP3    H226411   0.716   1.264   4.151 -0.8669 -0.8307  0.0747
 1666TIP3   OH226412   3.553   6.472  13.509 -0.1313  0.1480  0.5213
 1666TIP3    H126413   3.539   6.494  13.417  1.3981  0.5143  0.3516
 1666TIP3    H226414   3.468   6.487  13.550 -1.0119 -0.5923 -0.9270
 1667TIP3   OH226415   4.082   5.342  11.750  0.2332  0.0045 -0.5165
 1667TIP3    H126416   4.143   5.315  11.681  1.1230 -1.2780  0.6982
 1667TIP3    H226417   4.056   5.260  11.792  1.7291  0.8263  2.2939
 1668TIP3   OH226418   1.135   0.968   3.462  0.1238  0.1622 -0.3178
 1668TIP3    H126419   1.099   0.960   3.374  1.5599  0.1093 -0.9306
 1668TIP3    H226420   1.121   0.883   3.502  0.0841 -0.0282 -0.7344
 1669TIP3   OH226421   5.858   2.782   4.669  0.4740  0.1382 -0.9992
 1669TIP3    H126422   5.822   2.748   4.750  1.1264 -0.7613 -1.0775
 1669TIP3    H226423   5.898   2.866   4.694 -0.3101  0.4127 -0.6261
 1670TIP3   OH226424   4.398   3.553  12.420  0.6622  0.1772  0.3724
 1670TIP3    H126425   4.395   3.511  12.507  3.9837  0.4018  0.7304
 1670TIP3    H226426   4.443   3.489  12.365 -0.5115  0.4666 -0.9487
 1671TIP3   OH226427   1.329   0.313   0.884 -0.3924 -0.0649 -0.1820
 1671TIP3    H126428   1.407   0.368   0.874  0.3706 -1.1929 -0.6573
 1671TIP3    H226429   1.310   0.282   0.795 -2.8006  2.0090 -0.5038
 1672TIP3   OH226430   5.542   4.111  10.379  0.2044 -0.7015  0.0350
 1672TIP3    H126431   5.506   4.103  10.467  0.1604  0.2517  0.1191
 1672TIP3    H226432   5.610   4.044  10.374  0.2965 -0.6734  0.8398
 1673TIP3   OH226433   1.337   0.812   0.659 -0.0696 -0.4541 -0.1626
 1673TIP3    H126434   1.328   0.756   0.582 -1.8289 -0.1512 -0.2130
 1673TIP3    H226435   1.363   0.897   0.622  1.8150 -0.9652 -0.1466
 1674TIP3   OH226436   6.467   6.516  12.494 -0.1506  0.0624 -0.0771
 1674TIP3    H126437   6.500   6.445  12.550  1.7452  1.4699  0.7238
 1674TIP3    H226438   6.496   6.493  12.406  0.3792 -0.2102  0.1626
 1675TIP3   OH226439   2.390   1.036  13.960 -0.4081  0.2670  0.4077
 1675TIP3    H126440   2.298   1.017  13.942  0.2132 -1.3637 -1.4322
 1675TIP3    H226441   2.413   0.977  14.031 -0.5846  0.0744  0.3059
 1676TIP3   OH226442   6.167   2.236   2.529  0.2562 -0.0461  0.4121
 1676TIP3    H126443   6.073   2.252   2.526  0.4532  1.3096  0.8103
 1676TIP3    H226444   6.176   2.159   2.585 -0.5453  0.4841  1.2952
 1677TIP3   OH226445   3.383   0.857   5.064 -0.0100 -0.0744  0.6214
 1677TIP3    H126446   3.325   0.895   5.130 -2.4368 -0.1827 -1.3009
 1677TIP3    H226447   3.414   0.775   5.103 -0.5623  0.3326  1.9792
 1678TIP3   OH226448   4.666   5.424  11.897 -0.7726 -0.6605 -0.0067
 1678TIP3    H126449   4.672   5.335  11.862 -0.5760 -0.4266 -0.5731
 1678TIP3    H226450   4.608   5.415  11.973 -0.6304 -1.2985  0.0347
 1679TIP3   OH226451   6.513   5.122  16.612 -0.1606 -0.4821  0.4579
 1679TIP3    H126452   6.542   5.212  16.604 -3.1369  0.4800 -1.2466
 1679TIP3    H226453   6.430   5.127  16.659  0.5516 -2.6104  2.1076
 1680TIP3   OH226454   1.449   0.154   1.105 -0.1267 -0.0404 -0.4505
 1680TIP3    H126455   1.418   0.180   1.019 -0.2884 -1.3807 -0.8300
 1680TIP3    H226456   1.518   0.089   1.087 -0.5685 -0.7834  0.4240
 1681TIP3   OH226457   3.279   4.131  16.665  0.1454 -0.5757  0.6234
 1681TIP3    H126458   3.334   4.121  16.587 -0.0041  0.4463  0.3717
 1681TIP3    H226459   3.193   4.101  16.638 -0.2210  0.9721 -0.0205
 1682TIP3   OH226460   3.706   5.922  16.047 -0.8372  0.3155 -0.0251
 1682TIP3    H126461   3.689   5.989  16.113 -1.6513  1.0852 -0.9860
 1682TIP3    H226462   3.791   5.946  16.010 -1.4447  1.2797 -0.8646
 1683TIP3   OH226463   3.342   1.203   2.793  0.2761  0.2816 -0.1417
 1683TIP3    H126464   3.298   1.261   2.730  0.9608  1.2971  0.2883
 1683TIP3    H226465   3.376   1.131   2.739 -2.7337 -1.1245 -0.3718
 1684TIP3   OH226466   5.000   3.055   2.024 -0.9648  0.6538  0.7221
 1684TIP3    H126467   4.910   3.023   2.021 -0.5289 -1.1580  3.4101
 1684TIP3    H226468   5.018   3.085   1.935 -3.0506 -2.2732 -0.8553
 1685TIP3   OH226469   6.337   3.722  11.861 -0.4643  0.5307  1.4061
 1685TIP3    H126470   6.268   3.784  11.884  0.0279  0.9244  1.8325
 1685TIP3    H226471   6.290   3.639  11.846 -1.2882  1.2719 -0.4411
 1686TIP3   OH226472   6.244   1.800  10.528 -0.0723 -0.1095 -0.0627
 1686TIP3    H126473   6.216   1.818  10.438 -0.2875  1.9812  0.3719
 1686TIP3    H226474   6.340   1.804  10.525 -0.1095  1.5185  0.0481
 1687TIP3   OH226475   1.361   1.622   3.662 -0.1610 -0.1349 -0.4968
 1687TIP3    H126476   1.292   1.558   3.645  0.6642 -0.9527 -0.8940
 1687TIP3    H226477   1.315   1.702   3.685 -1.2329 -0.8593 -0.0294
 1688TIP3   OH226478   4.439   6.397   2.460 -0.2465  0.8191  0.0645
 1688TIP3    H126479   4.405   6.458   2.395 -2.9087 -0.9303 -0.3593
 1688TIP3    H226480   4.492   6.335   2.411 -0.7419  0.5659 -0.1575
 1689TIP3   OH226481   2.932   0.702  13.704  0.2275  0.1129  0.4981
 1689TIP3    H126482   3.014   0.742  13.732  0.4255  0.1682 -0.1442
 1689TIP3    H226483   2.951   0.608  13.701 -0.0639  0.0078  1.4201
 1690TIP3   OH226484   2.074   3.358   3.837  0.1306 -0.1002  0.5754
 1690TIP3    H126485   2.036   3.277   3.871  1.1715 -0.5365  0.7317
 1690TIP3    H226486   2.045   3.426   3.898 -0.0571 -0.4892  0.9243
 1691TIP3   OH226487   4.155   0.344  10.986 -0.0842  0.0677  0.3338
 1691TIP3    H126488   4.192   0.427  10.957  1.3106 -0.2597  1.1063
 1691TIP3    H226489   4.179   0.281  10.917  0.0278  0.0298  0.4079
 1692TIP3   OH226490   0.153   1.748   4.348  0.0969  0.1436 -0.2816
 1692TIP3    H126491   0.147   1.666   4.398  1.0865 -0.1691 -0.6575
 1692TIP3    H226492   0.216   1.729   4.279  0.6528  1.3554 -0.1326
 1693TIP3   OH226493   2.163   1.000  14.306  0.3323  0.1604 -0.8948
 1693TIP3    H126494   2.258   0.985  14.306  0.3234  0.0440  0.2364
 1693TIP3    H226495   2.127   0.927  14.357 -0.4401 -0.1646 -1.8719
 1694TIP3   OH226496   5.484   3.638  11.128 -0.0868  0.4881 -0.1918
 1694TIP3    H126497   5.518   3.600  11.047  0.1909  1.6230 -0.6302
 1694TIP3    H226498   5.540   3.604  11.197  1.6793  1.9599 -0.8439
 1695TIP3   OH226499   3.894   5.307  16.413 -0.6774 -0.0410 -0.0177
 1695TIP3    H126500   3.939   5.380  16.455 -3.7055  2.2108 -0.3036
 1695TIP3    H226501   3.899   5.327  16.319 -2.7565  0.7080 -0.0184
 1696TIP3   OH226502   3.593   2.471  12.945  0.3216  0.3134 -0.4575
 1696TIP3    H126503   3.664   2.409  12.929 -0.6095 -1.2355  0.9911
 1696TIP3    H226504   3.527   2.450  12.879  0.1351 -0.0705 -0.1579
 1697TIP3   OH226505   6.102   2.220   0.497  0.0275 -0.0328 -0.7100
 1697TIP3    H126506   6.087   2.255   0.585  2.2813  0.4041 -0.4459
 1697TIP3    H226507   6.032   2.156   0.484 -1.7039  1.5496  0.4597
 1698TIP3   OH226508   2.120   3.210   5.687  0.2951  0.6484  0.2478
 1698TIP3    H126509   2.117   3.118   5.716  1.7293  0.1652 -1.0082
 1698TIP3    H226510   2.029   3.231   5.665  0.1355 -0.9054 -0.7155
 1699TIP3   OH226511   6.245   3.817   3.671  0.2250  0.1176  0.0258
 1699TIP3    H126512   6.238   3.739   3.617  1.4870 -0.1863  0.2695
 1699TIP3    H226513   6.338   3.841   3.667 -0.0407  1.2663  0.4135
 1700TIP3   OH226514   5.523   4.457   4.475 -0.1975  0.2533 -0.1417
 1700TIP3    H126515   5.432   4.459   4.504 -0.0699 -0.6536  0.3529
 1700TIP3    H226516   5.535   4.369   4.440  0.6175  0.2080  0.2268
 1701TIP3   OH226517   0.543   6.507  14.463  0.4085 -0.4149 -0.6833
 1701TIP3    H126518   0.546   6.597  14.430  0.0616  0.6182  1.9178
 1701TIP3    H226519   0.538   6.454  14.384 -1.2073  1.9131 -2.2952
 1702TIP3   OH226520   6.350   4.904   2.060  0.7268 -0.2563  0.0810
 1702TIP3    H126521   6.394   4.946   1.985 -0.5300 -0.8390 -1.0247
 1702TIP3    H226522   6.330   4.815   2.029 -1.2520 -0.0031  0.5095
 1703TIP3   OH226523   1.807   3.840   4.097 -0.6141  0.1944  0.1658
 1703TIP3    H126524   1.828   3.818   4.006  0.0099  0.7966  0.1588
 1703TIP3    H226525   1.715   3.865   4.094 -1.1968 -1.7721  0.0730
 1704TIP3   OH226526   3.209   6.025   1.366  0.5810 -0.0242 -0.4089
 1704TIP3    H126527   3.298   5.993   1.351  1.1318  0.4638  1.4973
 1704TIP3    H226528   3.216   6.120   1.355  0.1957 -0.0259 -0.6735
 1705TIP3   OH226529   1.541   0.761   1.836 -0.4363  0.3011 -0.0795
 1705TIP3    H126530   1.607   0.768   1.905  0.7887 -1.9322 -0.9220
 1705TIP3    H226531   1.590   0.736   1.757 -1.8635  2.1162 -1.6632
 1706TIP3   OH226532   2.744   1.433   3.893  0.5064  0.2257  0.1715
 1706TIP3    H126533   2.813   1.444   3.958  1.1267  1.1997 -0.6099
 1706TIP3    H226534   2.782   1.467   3.812  0.3444 -2.3709 -1.1107
 1707TIP3   OH226535   6.328   0.605  15.882 -0.8582 -0.5184 -0.3608
 1707TIP3    H126536   6.373   0.554  15.815 -0.6007 -1.0683  0.2207
 1707TIP3    H226537   6.344   0.558  15.963  1.9218  1.9656  0.7473
 1708TIP3   OH226538   1.206   4.341   1.983 -0.1331  0.4127 -0.1805
 1708TIP3    H126539   1.158   4.310   2.059 -1.6609  0.6400 -1.0135
 1708TIP3    H226540   1.193   4.273   1.916  1.0185  0.3082 -0.3239
 1709TIP3   OH226541   6.308   6.549  14.807  0.8127  0.0044  0.0002
 1709TIP3    H126542   6.350   6.475  14.851  0.5391  0.1227  0.4626
 1709TIP3    H226543   6.240   6.510  14.753 -1.7951  0.1017  2.9583
 1710TIP3   OH226544   3.771   0.326   3.274 -0.4330 -0.1061  0.4315
 1710TIP3    H126545   3.849   0.283   3.309 -1.2718 -1.3521  0.8225
 1710TIP3    H226546   3.806   0.399   3.223  0.9506 -0.1140  1.2964
 1711TIP3   OH226547   5.170   4.485   4.112 -0.1899  0.5182  0.0626
 1711TIP3    H126548   5.169   4.436   4.030 -1.5880  1.1130 -0.2935
 1711TIP3    H226549   5.176   4.576   4.084 -0.5553  0.7143  0.6340
 1712TIP3   OH226550   3.092   5.202  13.392  0.0310  0.4849 -0.5169
 1712TIP3    H126551   3.016   5.155  13.428  0.6914 -0.7864 -0.7403
 1712TIP3    H226552   3.056   5.285  13.361 -0.9159  0.7636  1.2094
 1713TIP3   OH226553   2.597   4.765   0.659  0.1022 -1.0085  0.3704
 1713TIP3    H126554   2.668   4.827   0.640  1.2188 -2.0946  0.9280
 1713TIP3    H226555   2.616   4.689   0.604 -0.3067 -1.5343  0.9435
 1714TIP3   OH226556   2.246   2.334   3.428 -0.3903  0.0861 -0.3069
 1714TIP3    H126557   2.154   2.337   3.402  0.4384  1.8146 -3.7472
 1714TIP3    H226558   2.280   2.421   3.406  2.5994 -1.2592 -1.6897
 1715TIP3   OH226559   3.154   5.431  16.595 -0.0613  0.2141  0.3738
 1715TIP3    H126560   3.163   5.376  16.672  1.4805 -1.0761 -0.6605
 1715TIP3    H226561   3.060   5.441  16.583 -0.3486 -1.1200  1.3388
 1716TIP3   OH226562   4.225   6.040  16.754 -1.0008 -0.0149  0.5477
 1716TIP3    H126563   4.218   5.967  16.816 -1.8605 -1.6880 -1.3891
 1716TIP3    H226564   4.319   6.054  16.744 -0.7813 -1.6272  0.1486
 1717TIP3   OH226565   5.398   2.623   3.889  0.5140  0.3038  0.3729
 1717TIP3    H126566   5.493   2.620   3.901  0.4225  0.3818  1.1988
 1717TIP3    H226567   5.371   2.531   3.898  0.4534  0.3521  0.6999
 1718TIP3   OH226568   3.363   1.433   0.434 -0.7454  0.0227  0.7197
 1718TIP3    H126569   3.343   1.356   0.381 -0.4169  0.6032 -0.2808
 1718TIP3    H226570   3.448   1.463   0.402 -1.7877  2.0230 -0.4316
 1719TIP3   OH226571   3.412   2.904  14.792  0.4387 -0.0479  0.7853
 1719TIP3    H126572   3.431   2.994  14.820  0.3564  0.1985  0.0628
 1719TIP3    H226573   3.319   2.905  14.771  0.5545 -0.1519  0.2418
 1720TIP3   OH226574   1.847   4.863   4.439  0.2009  0.0280  0.6036
 1720TIP3    H126575   1.931   4.907   4.427  0.3160 -0.2210  0.4904
 1720TIP3    H226576   1.803   4.913   4.507  1.2591 -0.9967  2.1147
 1721TIP3   OH226577   0.470   5.933   6.468  0.1174 -0.3733  0.6373
 1721TIP3    H126578   0.558   5.957   6.494  0.2632 -0.4381  0.2139
 1721TIP3    H226579   0.428   5.903   6.549  0.3346  0.0873  0.9222
 1722TIP3   OH226580   4.016   6.397   2.472  0.6671 -0.0372 -0.1126
 1722TIP3    H126581   4.069   6.324   2.441 -0.2288 -0.3486 -0.9596
 1722TIP3    H226582   4.080   6.466   2.493  1.5065 -0.9936  0.5703
 1723TIP3   OH226583   4.817   0.306  14.056 -0.1825  0.6838  0.0575
 1723TIP3    H126584   4.905   0.322  14.090 -0.3771  0.2139  0.7915
 1723TIP3    H226585   4.768   0.385  14.079 -1.0380 -0.6427  3.3370
 1724TIP3   OH226586   0.542   4.084  16.180 -0.4407  0.2985 -0.3882
 1724TIP3    H126587   0.484   4.046  16.247 -1.4625  0.9516 -0.8759
 1724TIP3    H226588   0.616   4.024  16.176 -0.2421  0.3540  1.4819
 1725TIP3   OH226589   4.758   5.588   4.827 -0.0233 -0.3532  0.0476
 1725TIP3    H126590   4.843   5.616   4.794 -0.1145 -0.9808 -0.7486
 1725TIP3    H226591   4.713   5.552   4.750 -1.9566  2.1120 -0.0994
 1726TIP3   OH226592   0.181   6.517   1.991 -0.4466 -0.0840 -0.1565
 1726TIP3    H126593   0.241   6.576   1.945 -0.1593 -0.1783  0.1021
 1726TIP3    H226594   0.214   6.513   2.080 -0.2654 -0.9063 -0.2552
 1727TIP3   OH226595   1.355   2.556   4.660 -0.0252 -0.1443 -0.0559
 1727TIP3    H126596   1.334   2.505   4.582 -0.2275 -0.7632  0.4015
 1727TIP3    H226597   1.428   2.509   4.701  0.5627  0.5762 -0.2470
 1728TIP3   OH226598   2.008   6.553   3.613 -0.2936  0.2516  0.2671
 1728TIP3    H126599   1.965   6.479   3.655 -0.7527  0.0183 -0.5895
 1728TIP3    H226600   1.982   6.629   3.665  1.4692 -0.3337  2.1341
 1729TIP3   OH226601   2.860   1.935   5.600 -0.1830 -0.3400 -0.0314
 1729TIP3    H126602   2.867   2.005   5.665 -0.3191 -1.9497  1.8196
 1729TIP3    H226603   2.858   1.854   5.652 -0.0435 -1.7310 -2.0715
 1730TIP3   OH226604   3.390   0.249  14.612 -0.0548 -0.5390 -0.4823
 1730TIP3    H126605   3.426   0.253  14.701 -1.6086 -0.6047  0.1817
 1730TIP3    H226606   3.296   0.237  14.625 -0.3646 -0.1208 -2.1434
 1731TIP3   OH226607   4.288   3.288   4.902  0.2541 -0.7082  0.0495
 1731TIP3    H126608   4.213   3.341   4.930  1.1197  0.8149 -0.3868
 1731TIP3    H226609   4.248   3.211   4.861 -1.0854  0.0462 -0.1373
 1732TIP3   OH226610   3.882   0.627  16.787 -0.8618 -0.4400 -0.3555
 1732TIP3    H126611   3.901   0.650  16.696  0.5528  0.4507  0.1188
 1732TIP3    H226612   3.789   0.646  16.798 -0.6557  1.2164 -1.1434
 1733TIP3   OH226613   2.511   1.808  11.575 -0.5298  0.2115  0.2360
 1733TIP3    H126614   2.548   1.889  11.541 -0.5823  0.6098  1.1003
 1733TIP3    H226615   2.586   1.748  11.582 -0.0369  0.9620  1.8361
 1734TIP3   OH226616   1.942   2.470  16.889 -0.1747 -0.2813 -0.0090
 1734TIP3    H126617   1.867   2.442  16.941 -0.8702 -0.2893 -0.9772
 1734TIP3    H226618   1.903   2.507  16.809  0.8133  0.7552 -0.0410
 1735TIP3   OH226619   6.474   6.632   0.990 -0.1038  0.4405  0.3952
 1735TIP3    H126620   6.491   6.561   1.052  0.2356 -2.6051 -2.8315
 1735TIP3    H226621   6.561   6.662   0.963 -0.2113  0.5155  0.1272
 1736TIP3   OH226622   1.757   4.492   2.670  0.0824  0.0598  0.2818
 1736TIP3    H126623   1.851   4.489   2.684 -0.1510  1.9568  3.3690
 1736TIP3    H226624   1.720   4.494   2.759 -2.9126 -1.1840 -0.8001
 1737TIP3   OH226625   0.013   4.398  13.164  0.1974 -0.1311  0.0244
 1737TIP3    H126626   0.076   4.449  13.215 -0.0292 -0.1593  0.3390
 1737TIP3    H226627   0.064   4.362  13.092  0.2499  1.0027 -0.5336
 1738TIP3   OH226628   3.917   5.303  12.224  0.0661 -0.0272  0.1118
 1738TIP3    H126629   3.872   5.221  12.245 -0.7165  0.6932  1.3687
 1738TIP3    H226630   3.853   5.371  12.242  1.0422  0.9334  0.0606
 1739TIP3   OH226631   3.401   3.285   3.440 -0.2250  0.1900 -0.6257
 1739TIP3    H126632   3.404   3.321   3.528 -0.7712 -0.6484 -0.2547
 1739TIP3    H226633   3.481   3.317   3.398  1.5180 -1.7372  1.0626
 1740TIP3   OH226634   2.086   3.572   1.939  0.2345 -0.0482 -0.1852
 1740TIP3    H126635   2.114   3.505   2.002  0.5267  0.7803  0.5781
 1740TIP3    H226636   2.161   3.582   1.879 -0.0304 -0.8101 -0.6612
 1741TIP3   OH226637   1.737   3.936   5.039 -0.0962  0.3610 -0.2279
 1741TIP3    H126638   1.777   3.938   5.126  0.3587  1.1255 -0.4433
 1741TIP3    H226639   1.804   3.899   4.982 -0.3649 -0.0662 -0.2654
 1742TIP3   OH226640   4.538   2.315   3.777 -0.2245  0.1323  0.3677
 1742TIP3    H126641   4.509   2.391   3.828  1.5216  0.3629  1.1204
 1742TIP3    H226642   4.633   2.327   3.770  0.0375 -1.7877  0.1830
 1743TIP3   OH226643   6.139   1.664   1.929  0.4950 -0.3909 -0.4137
 1743TIP3    H126644   6.087   1.634   1.855 -0.1051  1.6213 -0.8813
 1743TIP3    H226645   6.112   1.608   2.002 -0.0538 -1.3786 -1.3490
 1744TIP3   OH226646   1.066   0.235   5.102  0.3914 -0.0377 -0.4054
 1744TIP3    H126647   1.084   0.256   5.011  0.8289  0.7047 -0.1561
 1744TIP3    H226648   0.975   0.206   5.103 -0.1169  1.4722 -0.8491
 1745TIP3   OH226649   1.208   2.112  16.509 -0.3041  0.2916 -0.1636
 1745TIP3    H126650   1.193   2.025  16.472  0.2376  1.1007 -2.4946
 1745TIP3    H226651   1.132   2.163  16.482 -0.3581  0.6836  0.7125
 1746TIP3   OH226652   0.821   1.057   3.933 -0.3957  0.3432 -0.0606
 1746TIP3    H126653   0.835   1.049   4.027  0.9467 -0.5379 -0.3057
 1746TIP3    H226654   0.727   1.044   3.921 -0.5816  0.4964  1.1547
 1747TIP3   OH226655   4.220   1.025   5.179  0.0623  0.3751 -0.2914
 1747TIP3    H126656   4.197   1.118   5.185 -0.3921  0.3182 -0.9956
 1747TIP3    H226657   4.225   0.996   5.270  2.1552  1.5457  0.0416
 1748TIP3   OH226658   0.333   5.509   0.634 -0.6207 -0.1915  0.3730
 1748TIP3    H126659   0.354   5.505   0.540 -0.9622  1.9233  0.1536
 1748TIP3    H226660   0.244   5.476   0.640 -0.1981 -1.4297  0.1418
 1749TIP3   OH226661   2.414   3.588   0.273  0.1642 -0.3707 -0.0421
 1749TIP3    H126662   2.368   3.555   0.196 -0.3823 -0.1977  0.2051
 1749TIP3    H226663   2.492   3.534   0.279  2.2765  2.0179 -2.9476
 1750TIP3   OH226664   4.143   6.078   4.715 -0.3119 -0.4698  0.1529
 1750TIP3    H126665   4.157   6.172   4.703 -1.3143 -0.5331 -1.8494
 1750TIP3    H226666   4.112   6.046   4.630 -1.2708 -2.3831  1.1338
 1751TIP3   OH226667   0.250   3.757   1.640  0.1584  0.0281 -0.3983
 1751TIP3    H126668   0.333   3.722   1.608 -0.9340 -1.2499 -1.9626
 1751TIP3    H226669   0.232   3.707   1.720  0.8204  0.2606 -0.0912
 1752TIP3   OH226670   2.164   5.504  15.446 -0.1139  0.1448  0.2969
 1752TIP3    H126671   2.173   5.586  15.397  0.4074 -0.6159 -0.9469
 1752TIP3    H226672   2.103   5.524  15.516  1.3183  2.0458  1.0674
 1753TIP3   OH226673   4.528   4.655   2.347  0.3528  0.1595  0.1253
 1753TIP3    H126674   4.487   4.653   2.260 -0.5401  0.2252  0.5318
 1753TIP3    H226675   4.462   4.696   2.403  0.6358 -0.5435  0.9896
 1754TIP3   OH226676   0.250   0.807  15.079 -0.2249 -0.3373 -0.2952
 1754TIP3    H126677   0.331   0.836  15.121 -0.6043  0.4313 -0.0650
 1754TIP3    H226678   0.229   0.724  15.121 -1.1065  0.8460  1.7778
 1755TIP3   OH226679   4.085   5.512   1.676  0.0011  0.9036  0.4610
 1755TIP3    H126680   4.094   5.597   1.633 -1.0489  0.1855 -1.2830
 1755TIP3    H226681   4.173   5.476   1.677  0.4457  1.9592  1.1534
 1756TIP3   OH226682   0.370   1.361   2.287 -0.0791  0.1183 -0.7375
 1756TIP3    H126683   0.284   1.362   2.245 -0.5512 -0.7820  0.1307
 1756TIP3    H226684   0.428   1.319   2.224 -1.1467 -2.8197  0.0439
 1757TIP3   OH226685   2.947   6.493   1.118  0.4161  0.5233 -0.6007
 1757TIP3    H126686   2.978   6.423   1.060  0.5258 -0.8663  1.0426
 1757TIP3    H226687   2.858   6.467   1.141  0.7931  0.3896  0.7822
 1758TIP3   OH226688   3.995   1.068  10.907 -0.5199  0.4747 -0.0006
 1758TIP3    H126689   3.979   1.136  10.842  1.2788  3.5619  2.4724
 1758TIP3    H226690   4.086   1.042  10.893  0.0022  1.4334  1.3844
 1759TIP3   OH226691   2.062   4.886   5.620  0.4601 -0.0007 -0.0865
 1759TIP3    H126692   2.057   4.838   5.702 -2.0715  0.5046  0.1389
 1759TIP3    H226693   2.074   4.977   5.647 -1.1826  0.2726 -0.1932
 1760TIP3   OH226694   6.405   4.313   1.910  0.3664 -0.1991 -0.4832
 1760TIP3    H126695   6.484   4.367   1.917 -0.1588  0.3590  1.6027
 1760TIP3    H226696   6.427   4.232   1.956  0.2069 -0.6670 -1.2103
 1761TIP3   OH226697   6.416   2.329   4.922 -0.1545  0.1432  0.2109
 1761TIP3    H126698   6.489   2.375   4.964 -1.2607  0.9713  1.3010
 1761TIP3    H226699   6.338   2.375   4.953 -1.2030 -1.3169 -0.1725
 1762TIP3   OH226700   6.805   0.225   2.216  0.1825 -0.2318 -0.3349
 1762TIP3    H126701   6.818   0.174   2.296 -1.2789  0.5612  0.4414
 1762TIP3    H226702   6.742   0.292   2.240 -0.7029 -0.2989 -2.3016
 1763TIP3   OH226703   6.507   6.758   5.763 -0.7069 -0.3422 -0.0957
 1763TIP3    H126704   6.444   6.738   5.693 -0.5655  1.6207 -0.8348
 1763TIP3    H226705   6.455   6.759   5.843 -1.4472  0.2952 -0.5734
 1764TIP3   OH226706   3.112   0.574   1.073  0.4021 -0.4941  0.5853
 1764TIP3    H126707   3.202   0.556   1.100 -0.1167 -1.3729  1.8412
 1764TIP3    H226708   3.082   0.491   1.036 -0.0147 -0.3319  0.5565
 1765TIP3   OH226709   1.262   0.563   5.387 -0.1854 -0.6412 -0.5273
 1765TIP3    H126710   1.299   0.645   5.420 -0.8536 -0.7803  0.6156
 1765TIP3    H226711   1.198   0.591   5.321  0.4737 -0.3150 -1.0456
 1766TIP3   OH226712   5.139   4.852  15.258 -0.1280 -0.2806 -0.2618
 1766TIP3    H126713   5.220   4.811  15.227 -0.4214 -0.2004 -1.1591
 1766TIP3    H226714   5.070   4.794  15.226 -0.4020 -0.7738  1.1647
 1767TIP3   OH226715   0.589   1.595   3.527 -0.4694  0.4216 -0.1451
 1767TIP3    H126716   0.678   1.560   3.533 -0.5240  0.4629  1.2121
 1767TIP3    H226717   0.578   1.617   3.434  1.2645  1.3022 -0.1810
 1768TIP3   OH226718   0.525   4.891   3.108 -0.0400 -0.0816  0.3800
 1768TIP3    H126719   0.588   4.931   3.168  0.4451 -1.8082  1.0957
 1768TIP3    H226720   0.577   4.863   3.033 -0.4913  1.2322 -0.4402
 1769TIP3   OH226721   5.455   4.306   1.389  0.7045  0.1432 -0.3763
 1769TIP3    H126722   5.498   4.258   1.459 -0.7566 -0.3032  0.2395
 1769TIP3    H226723   5.464   4.398   1.414 -0.5395 -0.0465  0.8661
 1770TIP3   OH226724   4.416   1.308  10.833  0.1279  0.0374 -0.0641
 1770TIP3    H126725   4.435   1.387  10.883  0.9779 -0.5396  0.5523
 1770TIP3    H226726   4.375   1.340  10.753 -1.1362  0.9890  0.9311
 1771TIP3   OH226727   4.860   0.122  16.117  0.3119 -0.3068  0.1957
 1771TIP3    H126728   4.892   0.060  16.183  1.1181 -0.3876 -0.2598
 1771TIP3    H226729   4.780   0.157  16.154  0.9287 -0.1033  1.3732
 1772TIP3   OH226730   4.171   3.591  11.397 -0.2352 -0.3903  0.0141
 1772TIP3    H126731   4.232   3.597  11.470  0.0545  1.1328 -0.3365
 1772TIP3    H226732   4.151   3.497  11.391 -0.6022 -0.5092  2.3042
 1773TIP3   OH226733   5.556   1.588   2.275  0.3898  0.2339  0.2472
 1773TIP3    H126734   5.622   1.534   2.317 -0.0893  0.6332  1.5481
 1773TIP3    H226735   5.604   1.664   2.242  0.7278  0.0317  0.2754
 1774TIP3   OH226736   5.996   0.226   5.113  0.0262  0.7876 -0.0518
 1774TIP3    H126737   5.961   0.282   5.043  0.0155  0.3790 -0.3730
 1774TIP3    H226738   5.958   0.263   5.193 -0.1664  1.1021 -0.2831
 1775TIP3   OH226739   0.108   2.201   5.622 -0.1317 -0.0084  0.4986
 1775TIP3    H126740   0.193   2.191   5.666  0.5847 -1.2865 -1.0743
 1775TIP3    H226741   0.045   2.207   5.694  1.0006 -1.8557  1.7379
 1776TIP3   OH226742   5.096   1.922   5.546 -0.0291 -0.2390  0.3930
 1776TIP3    H126743   5.136   2.008   5.536 -2.1217  0.7759  0.1647
 1776TIP3    H226744   5.100   1.884   5.459 -1.1229  0.6038 -0.0449
 1777TIP3   OH226745   1.237   4.387  14.108 -0.1477  0.1353  0.0611
 1777TIP3    H126746   1.162   4.345  14.150  1.4118 -0.7603  2.0706
 1777TIP3    H226747   1.247   4.470  14.155  1.8579 -1.0533  1.9053
 1778TIP3   OH226748   5.197   5.522   3.520  0.1750  0.6187 -0.6488
 1778TIP3    H126749   5.135   5.519   3.447  1.3725  1.4807 -1.7437
 1778TIP3    H226750   5.164   5.456   3.581 -1.5860  0.7689 -1.3567
 1779TIP3   OH226751   2.552   0.865   3.130  0.2789  0.1454 -0.3730
 1779TIP3    H126752   2.520   0.776   3.112  0.0235 -0.3153  2.0788
 1779TIP3    H226753   2.629   0.853   3.184 -1.3711  1.3458  2.4903
 1780TIP3   OH226754   1.942   3.305  10.965  0.5063  0.4123 -0.2066
 1780TIP3    H126755   1.852   3.273  10.964  0.4542  0.5513  0.1450
 1780TIP3    H226756   1.972   3.294  10.874  0.7399 -1.3491  0.0425
 1781TIP3   OH226757   6.700   1.559   3.326  0.2071 -0.4786 -0.0839
 1781TIP3    H126758   6.631   1.613   3.365 -0.1705 -0.1133 -1.2271
 1781TIP3    H226759   6.730   1.503   3.398 -0.2787  0.3607  0.7965
 1782TIP3   OH226760   3.622   3.096   0.326 -1.4494 -0.0164  0.6691
 1782TIP3    H126761   3.626   3.153   0.249  0.6458 -2.2468 -1.0199
 1782TIP3    H226762   3.651   3.151   0.399 -0.4144  1.3345 -0.7160
 1783TIP3   OH226763   0.874   3.845  14.518 -0.2003 -0.2942  0.2608
 1783TIP3    H126764   0.809   3.866  14.451  0.5947  0.0972 -0.3988
 1783TIP3    H226765   0.882   3.925  14.570  1.1259  0.3222 -0.8291
 1784TIP3   OH226766   3.220   6.349  12.430  0.2948  0.9238 -0.1766
 1784TIP3    H126767   3.229   6.330  12.524 -0.1147 -0.8670 -0.4627
 1784TIP3    H226768   3.310   6.361  12.399  0.5215  0.3821  0.2471
 1785TIP3   OH226769   5.237   4.030  11.320  0.4453  0.1111  0.2400
 1785TIP3    H126770   5.319   4.078  11.306 -0.6351  1.6934 -1.0120
 1785TIP3    H226771   5.240   3.959  11.255  0.6361  0.4350 -0.1098
 1786TIP3   OH226772   6.352   0.253   4.682  0.0646 -0.6303 -0.3326
 1786TIP3    H126773   6.440   0.219   4.670 -0.1598 -0.7539 -1.8261
 1786TIP3    H226774   6.364   0.332   4.736  0.7533 -2.0838  1.7621
 1787TIP3   OH226775   0.513   2.807  15.972 -0.3859 -0.0098  0.5418
 1787TIP3    H126776   0.569   2.837  16.044  0.0006  0.7966 -0.0828
 1787TIP3    H226777   0.574   2.782  15.903 -0.7546 -0.7634  0.4815
 1788TIP3   OH226778   2.342   0.349  16.373 -0.4732  0.0232  0.0354
 1788TIP3    H126779   2.290   0.383  16.446 -0.3263  1.5231 -0.5245
 1788TIP3    H226780   2.423   0.401  16.375  0.0451 -0.7459 -0.4625
 1789TIP3   OH226781   2.114   0.398  11.711  0.5809  0.1099 -0.0652
 1789TIP3    H126782   2.075   0.420  11.796  0.1004  0.6678 -0.4244
 1789TIP3    H226783   2.171   0.324  11.730 -1.2635 -1.2724  0.3116
 1790TIP3   OH226784   1.438   6.301  16.639 -0.3763 -0.5238 -0.3645
 1790TIP3    H126785   1.418   6.241  16.567 -0.2030 -1.5134  0.3822
 1790TIP3    H226786   1.529   6.326  16.624  0.2009 -2.0491  0.3966
 1791TIP3   OH226787   0.197   0.248   2.022  0.1561 -0.0645  0.0713
 1791TIP3    H126788   0.134   0.245   1.951  2.1024  1.9912 -1.9316
 1791TIP3    H226789   0.145   0.263   2.101 -1.9023  0.4497 -1.3178
 1792TIP3   OH226790   2.582   1.632   2.174 -0.3666  0.4221  0.3354
 1792TIP3    H126791   2.600   1.705   2.115 -1.7894  0.5152 -0.0330
 1792TIP3    H226792   2.659   1.626   2.230  1.0087  0.4041 -1.4488
 1793TIP3   OH226793   2.242   0.752   3.342  0.0488 -0.5358  0.3574
 1793TIP3    H126794   2.321   0.729   3.293  1.1387 -0.0315  1.8234
 1793TIP3    H226795   2.192   0.671   3.345  0.5628 -0.9080 -0.4581
 1794TIP3   OH226796   5.474   5.187   5.592 -0.0071 -0.0777 -0.1585
 1794TIP3    H126797   5.542   5.255   5.589 -0.6682  0.5914 -0.3294
 1794TIP3    H226798   5.479   5.144   5.507 -1.1554  1.3456 -0.9879
 1795TIP3   OH226799   1.055   0.219  14.138  0.6702  0.6390  0.2413
 1795TIP3    H126800   1.019   0.207  14.226  2.0512  0.6096  0.8254
 1795TIP3    H226801   1.103   0.302  14.142  0.6235  0.7162 -0.5336
 1796TIP3   OH226802   3.829   2.823   5.576 -0.3711  0.2109  0.7857
 1796TIP3    H126803   3.822   2.739   5.530 -0.1481  1.5960 -1.9372
 1796TIP3    H226804   3.881   2.878   5.518 -0.7551  2.3635  2.3672
 1797TIP3   OH226805   1.999   6.634  11.446 -0.1099 -0.4931 -0.1901
 1797TIP3    H126806   1.962   6.555  11.408  1.5298 -1.2267 -0.3649
 1797TIP3    H226807   2.079   6.604  11.490  0.8135  1.1209 -0.6664
 1798TIP3   OH226808   0.319   3.712  15.018 -0.2094  0.1077  0.3234
 1798TIP3    H126809   0.248   3.771  14.993  0.9082  2.0597  1.5092
 1798TIP3    H226810   0.395   3.769  15.028  1.7996 -2.0002 -1.7014
 1799TIP3   OH226811   2.209   0.063  11.678  0.1458  0.3430 -0.0827
 1799TIP3    H126812   2.298   0.031  11.663 -0.0938  0.3834 -1.8240
 1799TIP3    H226813   2.174   0.006  11.746  0.6942 -1.2571 -1.1017
 1800TIP3   OH226814   0.259   2.921  16.020  0.1444 -0.0964  0.4474
 1800TIP3    H126815   0.275   2.898  16.111 -0.7919  1.7181  1.1155
 1800TIP3    H226816   0.339   2.896  15.974  0.9852 -0.1755  1.9211
 1801TIP3   OH226817   5.733   6.236   3.199  0.2089  0.0752 -0.0862
 1801TIP3    H126818   5.811   6.183   3.218  0.2714 -0.2617 -1.2071
 1801TIP3    H226819   5.747   6.268   3.110  0.1838  2.0482  0.5760
 1802TIP3   OH226820   0.726   5.666   0.321 -0.1880  0.3099 -0.2627
 1802TIP3    H126821   0.699   5.648   0.411  0.3065  0.1887 -0.1312
 1802TIP3    H226822   0.730   5.762   0.316  2.1181  0.3396  0.6039
 1803TIP3   OH226823   4.062   6.618   1.651  1.0672 -0.2523  0.1833
 1803TIP3    H126824   4.042   6.593   1.741  0.1400 -0.0760  0.0346
 1803TIP3    H226825   4.034   6.543   1.598  0.4346  0.1383 -0.0569
 1804TIP3   OH226826   3.572   2.893  16.043 -0.2864  0.0286  0.1924
 1804TIP3    H126827   3.514   2.864  15.973 -0.5555 -0.2767  0.5410
 1804TIP3    H226828   3.655   2.912  15.999 -0.1354 -1.1682 -0.0531
 1805TIP3   OH226829   6.634   3.420  12.359  0.3422 -0.1856  0.9702
 1805TIP3    H126830   6.598   3.418  12.447 -1.0737  0.4754  0.4419
 1805TIP3    H226831   6.720   3.460  12.368  0.0301  0.2659  1.9868
 1806TIP3   OH226832   3.958   4.959  12.904  0.2279  0.2720  0.3046
 1806TIP3    H126833   3.867   4.985  12.911  0.6155  1.2775  2.2550
 1806TIP3    H226834   3.979   4.921  12.990  2.2710  2.3045  0.8049
 1807TIP3   OH226835   3.792   2.729  14.859  0.0373  0.2624 -0.0014
 1807TIP3    H126836   3.796   2.818  14.825 -1.6961 -0.2019 -1.6004
 1807TIP3    H226837   3.723   2.732  14.925 -1.4633 -0.2427 -1.4652
 1808TIP3   OH226838   2.015   1.506  12.306  0.2329  0.5389 -0.2329
 1808TIP3    H126839   2.006   1.444  12.234 -0.4878 -0.5254  0.7499
 1808TIP3    H226840   1.927   1.541  12.319 -0.1368 -0.8785  1.4880
 1809TIP3   OH226841   5.826   2.335  16.932  0.4077 -0.4228  0.5748
 1809TIP3    H126842   5.879   2.261  16.900  0.1522  0.0872 -1.1423
 1809TIP3    H226843   5.866   2.412  16.892 -0.5620  0.1613  0.6959
 1810TIP3   OH226844   4.738   4.735   0.313  0.1794  0.9289 -0.4616
 1810TIP3    H126845   4.716   4.746   0.406 -1.8295 -0.0689 -0.7722
 1810TIP3    H226846   4.653   4.729   0.269  1.0938  1.4953 -2.3956
 1811TIP3   OH226847   1.788   2.049   1.265 -0.2511  0.2926 -0.3682
 1811TIP3    H126848   1.778   2.119   1.329 -0.7989 -0.5596  0.5105
 1811TIP3    H226849   1.700   2.033   1.233  0.0079  0.6589 -1.3049
 1812TIP3   OH226850   4.870   4.908   3.978 -0.0382 -0.7470 -0.1926
 1812TIP3    H126851   4.836   4.955   3.902  0.9552 -0.5645 -0.5345
 1812TIP3    H226852   4.824   4.825   3.977 -2.8421  0.6416  1.1772
 1813TIP3   OH226853   3.458   6.076  16.915 -0.5581  0.4192  0.5637
 1813TIP3    H126854   3.410   6.095  16.834  2.9861  2.2527 -1.3178
 1813TIP3    H226855   3.500   5.992  16.899  2.3959  2.0361 -0.8319
 1814TIP3   OH226856   0.433   3.897  13.883  0.3961  0.0405 -0.3521
 1814TIP3    H126857   0.419   3.961  13.953  0.6039 -0.6997  0.3957
 1814TIP3    H226858   0.529   3.887  13.879  0.4270  0.6843 -1.3162
 1815TIP3   OH226859   2.902   2.942   2.392  0.0562 -0.2056  0.1988
 1815TIP3    H126860   2.926   2.965   2.302  0.0448 -3.1202 -0.6634
 1815TIP3    H226861   2.985   2.941   2.439  0.6509 -2.2482 -0.7658
 1816TIP3   OH226862   5.529   5.113  16.430 -0.3438 -0.0055  0.4540
 1816TIP3    H126863   5.446   5.157  16.413 -0.5859 -0.6377 -0.0473
 1816TIP3    H226864   5.526   5.035  16.374 -0.1091 -0.8707  1.6253
 1817TIP3   OH226865   3.757   0.866  10.684  0.3289  0.2353  0.3037
 1817TIP3    H126866   3.776   0.956  10.711  2.2949 -0.8899  3.1977
 1817TIP3    H226867   3.791   0.861  10.594  2.6890  1.7497  1.0045
 1818TIP3   OH226868   3.788   5.670  11.950 -0.4597  0.1093 -0.3288
 1818TIP3    H126869   3.793   5.765  11.936 -1.3982  0.1309 -0.6013
 1818TIP3    H226870   3.865   5.635  11.907  1.6552  0.9968  2.4373
 1819TIP3   OH226871   2.050   2.569   4.158 -0.4866  0.4814 -0.6241
 1819TIP3    H126872   1.989   2.544   4.228 -0.7970 -0.4755 -1.2185
 1819TIP3    H226873   2.133   2.531   4.184 -0.6279  0.0302 -0.8246
 1820TIP3   OH226874   3.483   6.070   0.119  0.0886  0.5101 -0.4971
 1820TIP3    H126875   3.466   6.062   0.025 -2.5948 -0.5978 -0.0263
 1820TIP3    H226876   3.409   6.026   0.160  1.2462  0.8504  2.1675
 1821TIP3   OH226877   4.166   5.959   0.104  0.1745 -0.5184  0.0813
 1821TIP3    H126878   4.185   5.975   0.196  1.5646 -0.2296 -0.2347
 1821TIP3    H226879   4.121   6.039   0.075 -2.5566 -1.5839  1.0631
 1822TIP3   OH226880   5.149   4.418   3.654  0.2584 -0.0802 -0.2143
 1822TIP3    H126881   5.140   4.509   3.682 -2.8631 -0.2175 -0.3300
 1822TIP3    H226882   5.143   4.368   3.736 -0.7133 -0.2145 -0.3499
 1823TIP3   OH226883   6.459   0.774   4.069  0.5945 -0.5171 -0.1380
 1823TIP3    H126884   6.386   0.836   4.066 -0.6090 -1.8177  0.8868
 1823TIP3    H226885   6.477   0.755   3.977 -0.1505  0.0624 -0.4201
 1824TIP3   OH226886   6.090   5.441  11.738 -0.3984 -0.2579  0.1292
 1824TIP3    H126887   6.150   5.511  11.766 -0.2916 -0.4625  0.4105
 1824TIP3    H226888   6.025   5.436  11.808 -2.2282  1.6807 -1.2964
 1825TIP3   OH226889   3.894   0.245   3.871  0.1551  0.7335 -0.0210
 1825TIP3    H126890   3.843   0.249   3.790 -0.3723 -1.2946  0.1384
 1825TIP3    H226891   3.983   0.224   3.843  0.6502  2.8454 -0.2049
 1826TIP3   OH226892   3.111   3.545  12.047 -0.4942  0.0935  0.8193
 1826TIP3    H126893   3.100   3.510  12.135 -0.6915  0.5627  0.9855
 1826TIP3    H226894   3.188   3.501  12.013 -0.1103  0.2912  1.4209
 1827TIP3   OH226895   3.042   5.820   2.798 -0.0079 -0.6018 -0.1051
 1827TIP3    H126896   3.130   5.841   2.767  0.0119  0.0759  0.3856
 1827TIP3    H226897   2.993   5.902   2.792 -0.2827 -0.6921  0.6812
 1828TIP3   OH226898   4.251   5.766  15.394  0.4620  0.1436 -0.9038
 1828TIP3    H126899   4.310   5.822  15.443 -0.5110  0.1847  0.2620
 1828TIP3    H226900   4.245   5.807  15.308  1.5512  0.5353 -0.8022
 1829TIP3   OH226901   3.913   2.045  17.009 -0.0122 -0.0749  0.6550
 1829TIP3    H126902   3.847   1.976  17.002  1.7149 -1.6473 -1.0654
 1829TIP3    H226903   3.997   1.998  17.011  1.3182  1.9647 -2.0828
 1830TIP3   OH226904   4.390   6.462  10.892 -0.4276 -0.3947 -0.2357
 1830TIP3    H126905   4.349   6.461  10.806  0.1276 -0.5531 -0.5011
 1830TIP3    H226906   4.398   6.369  10.916  1.0098 -0.4451 -0.7907
 1831TIP3   OH226907   1.151   0.789  16.305 -0.0711  0.2427 -0.3216
 1831TIP3    H126908   1.062   0.819  16.322  0.2800  0.3867  1.5155
 1831TIP3    H226909   1.188   0.854  16.245 -0.6127  1.2469  0.4067
 1832TIP3   OH226910   0.431   0.575   5.543  0.0945  0.2032 -0.6839
 1832TIP3    H126911   0.525   0.594   5.549  0.1498  0.0396 -1.0333
 1832TIP3    H226912   0.394   0.649   5.495 -0.0301  0.4988 -0.1375
 1833TIP3   OH226913   2.879   0.474  11.479 -0.5297 -0.4317  0.8939
 1833TIP3    H126914   2.888   0.400  11.538 -3.4189 -0.5933  1.2730
 1833TIP3    H226915   2.816   0.445  11.413 -0.1163  0.9757 -0.1841
 1834TIP3   OH226916   3.518   6.364  10.800  0.0949  0.5303  0.5719
 1834TIP3    H126917   3.551   6.383  10.712 -1.7270 -1.3674 -0.6069
 1834TIP3    H226918   3.469   6.442  10.825  0.5256  1.0401 -0.1374
 1835TIP3   OH226919   4.836   3.092  14.063 -0.0002 -0.7796 -0.5961
 1835TIP3    H126920   4.850   3.116  13.971  0.5676 -2.0316 -0.8636
 1835TIP3    H226921   4.827   3.176  14.109  0.6522 -0.1089 -1.6488
 1836TIP3   OH226922   5.671   6.414  13.466 -0.4468 -0.1314 -0.0747
 1836TIP3    H126923   5.581   6.430  13.493 -0.4271  1.1759 -0.7162
 1836TIP3    H226924   5.667   6.408  13.371  0.1422 -0.1371 -0.1020
 1837TIP3   OH226925   3.752   2.839   5.833  0.3661 -0.3740 -0.3341
 1837TIP3    H126926   3.813   2.872   5.899  0.5435  2.1052 -1.6000
 1837TIP3    H226927   3.807   2.822   5.756 -0.2934  0.2223 -0.9484
 1838TIP3   OH226928   3.448   1.538   6.174  0.2470  0.0317 -0.0430
 1838TIP3    H126929   3.464   1.586   6.255  0.2802  1.1579 -0.6811
 1838TIP3    H226930   3.397   1.599   6.120 -0.8966 -1.1791 -0.3780
 1839TIP3   OH226931   3.877   2.222   4.035  0.1621 -0.0895  0.0562
 1839TIP3    H126932   3.790   2.220   4.076 -1.0398 -0.9034 -2.3577
 1839TIP3    H226933   3.906   2.313   4.045 -1.6680  0.5999 -0.3806
 1840TIP3   OH226934   1.485   3.192  16.447  0.4909 -0.1141 -0.5431
 1840TIP3    H126935   1.572   3.189  16.407  1.6148  0.2388  1.7366
 1840TIP3    H226936   1.444   3.109  16.421  2.7900 -1.8326  1.0050
 1841TIP3   OH226937   2.556   6.533   4.212  0.2191 -0.5024  0.3481
 1841TIP3    H126938   2.479   6.560   4.262  0.0288  1.3491 -0.8398
 1841TIP3    H226939   2.628   6.534   4.275 -0.5859 -1.5921  1.3198
 1842TIP3   OH226940   0.144   4.648  11.320 -0.0935  0.0337  1.1127
 1842TIP3    H126941   0.138   4.737  11.355  0.1682  0.4836  0.0633
 1842TIP3    H226942   0.090   4.650  11.241 -0.4027 -0.8558  1.2887
 1843TIP3   OH226943   4.704   3.876  12.396  0.7063 -0.2538 -0.4681
 1843TIP3    H126944   4.798   3.891  12.383  0.4309  1.1321 -1.1237
 1843TIP3    H226945   4.686   3.796  12.347  1.3661  0.0270 -1.1961
 1844TIP3   OH226946   6.617   2.948   0.972  0.7374  0.4928  0.2913
 1844TIP3    H126947   6.646   2.984   1.056  1.1686  0.0846  0.3211
 1844TIP3    H226948   6.634   2.854   0.979 -2.2433 -0.1211  0.9910
 1845TIP3   OH226949   6.001   2.518  11.812  0.9391 -0.5637  0.4576
 1845TIP3    H126950   6.057   2.591  11.837  3.1086 -1.2331 -1.9912
 1845TIP3    H226951   5.969   2.540  11.724 -1.2736 -1.0411  1.0641
 1846TIP3   OH226952   4.100   1.340   3.981 -0.0408 -0.2005  0.7486
 1846TIP3    H126953   4.147   1.284   4.044  1.0237  1.1039  1.1651
 1846TIP3    H226954   4.116   1.429   4.013 -0.8153  0.3966 -0.4910
 1847TIP3   OH226955   2.447   0.955   3.947 -0.1622 -0.5838 -0.3647
 1847TIP3    H126956   2.518   0.896   3.970  0.4545 -0.1569 -1.1016
 1847TIP3    H226957   2.488   1.021   3.890 -0.5325  1.3135  1.4519
 1848TIP3   OH226958   1.801   4.823  14.001 -0.2825 -0.1607 -0.2678
 1848TIP3    H126959   1.726   4.766  13.986  0.3741 -0.6991 -1.6593
 1848TIP3    H226960   1.866   4.796  13.936  0.8949  0.6969  0.4965
 1849TIP3   OH226961   4.338   1.411  13.754 -0.1856  0.1337  0.0165
 1849TIP3    H126962   4.298   1.496  13.774 -1.0583 -0.2664  0.0262
 1849TIP3    H226963   4.365   1.376  13.839  0.1689  0.3868  0.0137
 1850TIP3   OH226964   5.842   2.439   1.264  0.4304  0.2376  0.6811
 1850TIP3    H126965   5.810   2.425   1.174  1.4461  0.9842  0.1881
 1850TIP3    H226966   5.791   2.514   1.295  0.6630  0.5133  0.4122
 1851TIP3   OH226967   3.687   5.693  14.912  0.2475 -0.0892  0.0163
 1851TIP3    H126968   3.642   5.754  14.853 -1.7459 -1.2036  0.2960
 1851TIP3    H226969   3.636   5.697  14.994  3.2515  1.8486  2.0107
 1852TIP3   OH226970   4.363   6.624   3.845  0.2699  0.1834 -0.2483
 1852TIP3    H126971   4.366   6.528   3.849  1.3729  0.0452 -2.5743
 1852TIP3    H226972   4.437   6.652   3.898 -0.3231 -0.2012  0.8201
 1853TIP3   OH226973   2.071   5.087  14.443 -0.1826  0.0358  0.0202
 1853TIP3    H126974   2.094   5.028  14.515 -1.8805 -0.3247  0.2995
 1853TIP3    H226975   2.155   5.111  14.404  0.5629 -2.5837 -0.1418
 1854TIP3   OH226976   4.237   2.843   4.462  0.0314  0.9012  0.1832
 1854TIP3    H126977   4.237   2.917   4.522  0.8467  0.6404  0.5252
 1854TIP3    H226978   4.236   2.766   4.519 -0.8329  0.6408 -0.1669
 1855TIP3   OH226979   2.173   2.469  11.357 -0.1451  0.1005 -0.1522
 1855TIP3    H126980   2.105   2.515  11.306 -0.7983  1.6180  1.9619
 1855TIP3    H226981   2.129   2.445  11.438  2.1334  2.4284  1.9382
 1856TIP3   OH226982   3.116   5.978   6.131 -0.0722  0.4041  0.1050
 1856TIP3    H126983   3.172   5.947   6.202  0.3691 -1.2628 -0.9291
 1856TIP3    H226984   3.031   5.991   6.172  0.3514  0.1666  1.0855
 1857TIP3   OH226985   6.614   2.285  14.114  0.0433  0.2761  0.3429
 1857TIP3    H126986   6.702   2.302  14.148  0.2307 -0.4226  0.2268
 1857TIP3    H226987   6.602   2.191  14.125  0.0395  0.0483 -1.3267
 1858TIP3   OH226988   2.591   5.700  11.214 -0.4323  0.1770 -0.0390
 1858TIP3    H126989   2.540   5.696  11.295 -1.1375  0.8786 -0.4299
 1858TIP3    H226990   2.578   5.790  11.182 -1.2503 -0.4385 -1.5942
 1859TIP3   OH226991   1.759   1.570  14.579  0.0996  0.2724 -0.3915
 1859TIP3    H126992   1.722   1.619  14.506 -0.9184 -1.5424 -1.1597
 1859TIP3    H226993   1.704   1.492  14.586  0.3249  0.2504  2.1662
 1860TIP3   OH226994   0.806   2.723  14.072  0.4519 -0.7215  0.5117
 1860TIP3    H126995   0.858   2.799  14.045 -0.3879 -0.4733 -0.4968
 1860TIP3    H226996   0.850   2.649  14.031 -0.1856 -0.4676 -0.6711
 1861TIP3   OH226997   2.203   2.287  15.767  0.2127  0.5430  0.4239
 1861TIP3    H126998   2.122   2.246  15.739 -0.3266  1.0250  1.2440
 1861TIP3    H226999   2.251   2.305  15.686 -0.0826 -0.5720 -0.0083
 1862TIP3   OH227000   1.834   1.345   3.007  0.4916  0.0633 -0.3137
 1862TIP3    H127001   1.829   1.431   3.047  0.4565 -0.9017  1.9304
 1862TIP3    H227002   1.922   1.313   3.028  0.7997 -0.1463 -1.8279
 1863TIP3   OH227003   4.855   0.994   4.902 -0.1288  0.3592  0.2107
 1863TIP3    H127004   4.846   1.081   4.862  1.6969  0.6249  0.2647
 1863TIP3    H227005   4.766   0.965   4.918 -0.7918  2.0104 -0.2945
 1864TIP3   OH227006   6.691   5.352   4.428 -0.0726 -0.5734 -0.7594
 1864TIP3    H127007   6.749   5.296   4.375  0.5645 -1.0841  0.4278
 1864TIP3    H227008   6.689   5.309   4.514 -1.0962  0.2171 -0.3737
 1865TIP3   OH227009   2.717   5.816  16.032 -0.1186 -0.1210 -0.3537
 1865TIP3    H127010   2.768   5.763  15.971 -1.3724 -0.7403 -0.9194
 1865TIP3    H227011   2.630   5.775  16.033 -1.0227  1.6662 -0.4848
 1866TIP3   OH227012   2.856   2.458   2.109  0.2232  0.2244  0.2655
 1866TIP3    H127013   2.857   2.428   2.018  1.0399  0.9997  0.0025
 1866TIP3    H227014   2.763   2.465   2.130  0.0128 -1.7257  0.1126
 1867TIP3   OH227015   1.492   3.870  13.902 -0.4667 -0.0291 -0.1297
 1867TIP3    H127016   1.414   3.832  13.942 -1.3182  1.1314 -0.6328
 1867TIP3    H227017   1.460   3.913  13.823  0.6716  0.5601 -0.2887
 1868TIP3   OH227018   3.751   4.820   4.415 -0.4814 -0.6328  0.1583
 1868TIP3    H127019   3.724   4.850   4.502 -2.1245 -0.8273 -0.2460
 1868TIP3    H227020   3.846   4.836   4.412 -0.6179  0.6271  1.4797
 1869TIP3   OH227021   2.380   3.281  16.874  0.3591  0.5358  0.1473
 1869TIP3    H127022   2.388   3.267  16.969 -1.3445  0.8313  0.3646
 1869TIP3    H227023   2.299   3.235  16.850  1.1895 -0.2085 -1.3270
 1870TIP3   OH227024   4.582   6.744   6.149 -0.0284  0.1528 -0.3884
 1870TIP3    H127025   4.506   6.686   6.157 -0.0163  0.3157  1.0531
 1870TIP3    H227026   4.649   6.703   6.204  0.2104  1.1489  0.0758
 1871TIP3   OH227027   2.904   5.645   2.497  0.4875  0.0216 -0.4740
 1871TIP3    H127028   2.810   5.630   2.510  0.7014 -1.2171 -0.2337
 1871TIP3    H227029   2.908   5.712   2.429 -0.5752  1.2213  0.5860
 1872TIP3   OH227030   3.681   6.221   3.950 -0.8559  0.8024  0.2936
 1872TIP3    H127031   3.728   6.217   4.033  1.4234  2.8388 -0.7686
 1872TIP3    H227032   3.639   6.307   3.950 -0.5196  0.9873 -0.7798
 1873TIP3   OH227033   4.026   0.656  10.222  0.1130 -0.0285  0.2499
 1873TIP3    H127034   4.040   0.699  10.138  1.9751 -0.7524  0.1365
 1873TIP3    H227035   3.931   0.658  10.235 -0.0073  2.8642 -0.3795
 1874TIP3   OH227036   3.500   2.919   5.739 -0.2481  0.3451  0.3887
 1874TIP3    H127037   3.581   2.870   5.755  0.0395  0.9091  0.6644
 1874TIP3    H227038   3.432   2.852   5.737  0.1854 -0.1033  0.4481
 1875TIP3   OH227039   4.166   0.178   0.642  0.5507 -0.1069  0.5751
 1875TIP3    H127040   4.224   0.137   0.707 -0.2053 -1.0118  0.7009
 1875TIP3    H227041   4.094   0.214   0.693  1.9353  2.8534  0.6472
 1876TIP3   OH227042   6.020   0.727   3.562 -0.3413 -0.7777  0.4147
 1876TIP3    H127043   5.961   0.729   3.638 -1.2342 -0.1511 -0.2681
 1876TIP3    H227044   5.966   0.690   3.492 -0.4922  1.2956 -0.6493
 1877TIP3   OH227045   3.499   0.952  14.228 -0.5589  0.8337 -0.1447
 1877TIP3    H127046   3.561   0.884  14.202 -2.7590 -1.1808 -0.3978
 1877TIP3    H227047   3.498   0.949  14.323 -1.0430  0.1005 -0.1654
 1878TIP3   OH227048   5.432   3.669  13.690  0.5492 -0.3327  0.4416
 1878TIP3    H127049   5.384   3.740  13.734 -0.4557 -0.7303  0.0274
 1878TIP3    H227050   5.438   3.600  13.756 -2.6690 -1.7032 -0.4936
 1879TIP3   OH227051   5.679   2.275  12.952  0.1210 -0.2664  0.1011
 1879TIP3    H127052   5.656   2.368  12.951  0.3437 -0.2077  0.3912
 1879TIP3    H227053   5.605   2.232  12.995 -0.0847 -0.2532 -0.2345
 1880TIP3   OH227054   5.379   4.912  10.557 -0.0047 -0.0564  0.5198
 1880TIP3    H127055   5.353   5.004  10.552  1.3876  0.4083  1.2048
 1880TIP3    H227056   5.430   4.897  10.478 -0.6723 -0.3959  0.1499
 1881TIP3   OH227057   6.687   1.906  14.442  0.0418  0.0298  0.0725
 1881TIP3    H127058   6.688   1.810  14.449  1.3200  0.0655  0.7323
 1881TIP3    H227059   6.596   1.931  14.460 -0.5810 -1.1202 -1.2888
 1882TIP3   OH227060   5.118   4.287   3.891  0.3924  0.0927  0.1444
 1882TIP3    H127061   5.063   4.212   3.912  0.1311  0.2695  0.0873
 1882TIP3    H227062   5.208   4.253   3.895  0.2829 -0.1740  0.3118
 1883TIP3   OH227063   0.650   6.211   2.581  0.2211 -0.1461  0.1732
 1883TIP3    H127064   0.731   6.161   2.583  0.3448  0.0706  0.5809
 1883TIP3    H227065   0.651   6.256   2.496  0.5396 -0.1223  0.1890
 1884TIP3   OH227066   3.378   3.678   3.060 -0.0453  0.1851  0.5226
 1884TIP3    H127067   3.305   3.618   3.044 -1.0049  1.5058 -0.2385
 1884TIP3    H227068   3.401   3.711   2.973 -1.3108  2.8991  1.1178
 1885TIP3   OH227069   5.428   1.262   1.269 -0.0513  0.5343 -0.3287
 1885TIP3    H127070   5.378   1.344   1.277 -2.4691 -0.8801  0.1613
 1885TIP3    H227071   5.364   1.198   1.238  0.7828 -2.0064  2.6822
 1886TIP3   OH227072   1.284   5.914  15.269  0.1121  0.7122  0.0805
 1886TIP3    H127073   1.327   5.995  15.243 -0.4453  0.3801 -2.0822
 1886TIP3    H227074   1.193   5.925  15.240  0.3721 -1.2387 -1.6732
 1887TIP3   OH227075   1.066   3.649  15.078  0.4147 -0.5017  0.1216
 1887TIP3    H127076   1.100   3.699  15.004 -0.5796 -0.4769 -0.3402
 1887TIP3    H227077   0.996   3.704  15.113 -0.0199 -1.1195  0.2269
 1888TIP3   OH227078   2.460   3.850  16.136  0.1797 -0.3345  0.0369
 1888TIP3    H127079   2.400   3.883  16.203 -0.8140  1.1058 -1.4821
 1888TIP3    H227080   2.532   3.914  16.134  0.0060 -0.1493 -0.5185
 1889TIP3   OH227081   1.341   4.893  13.996 -0.7275  0.0005 -0.2994
 1889TIP3    H127082   1.414   4.832  14.007  0.9774  1.9889  0.1424
 1889TIP3    H227083   1.266   4.837  13.976  0.5009 -2.2757  1.0124
 1890TIP3   OH227084   2.784   2.946  13.788  0.5261 -0.1409 -0.1355
 1890TIP3    H127085   2.726   2.874  13.763 -1.7134  1.7605 -0.7935
 1890TIP3    H227086   2.795   2.936  13.883 -0.9079 -0.5934  0.0072
 1891TIP3   OH227087   6.736   2.472   4.242 -0.1540 -0.0804  0.4635
 1891TIP3    H127088   6.680   2.395   4.235  0.5442 -0.6361  0.7626
 1891TIP3    H227089   6.683   2.536   4.289 -0.7297 -0.3936  0.2535
 1892TIP3   OH227090   4.650   5.654  16.465 -0.0378 -0.7325  0.1331
 1892TIP3    H127091   4.583   5.590  16.441  1.1893 -1.1665 -2.5071
 1892TIP3    H227092   4.733   5.612  16.443  0.9395  0.8471  0.5908
 1893TIP3   OH227093   6.356   0.484   0.350 -0.1858 -0.1112  0.7611
 1893TIP3    H127094   6.329   0.398   0.382  0.4686 -0.5857  0.0647
 1893TIP3    H227095   6.307   0.496   0.269 -2.5994  1.5114  2.3078
 1894TIP3   OH227096   4.977   4.785  15.735  0.4096 -0.0590  0.2855
 1894TIP3    H127097   5.017   4.714  15.684  1.1779 -0.3180  1.2277
 1894TIP3    H227098   5.041   4.857  15.730  0.5771 -0.1509  1.0316
 1895TIP3   OH227099   3.425   3.271  14.618  0.0805 -0.0545  0.2716
 1895TIP3    H127100   3.453   3.208  14.551 -0.4513  0.2021 -0.1967
 1895TIP3    H227101   3.330   3.278  14.607  0.2666  1.7884 -0.5477
 1896TIP3   OH227102   2.790   3.911  11.954 -0.6894  0.2320  0.1358
 1896TIP3    H127103   2.862   3.871  12.003 -0.8491  1.2477  1.2609
 1896TIP3    H227104   2.774   3.851  11.881  2.6517  0.9918 -1.3870
 1897TIP3   OH227105   3.113   4.520   4.586 -0.0898 -0.4131 -0.4618
 1897TIP3    H127106   3.170   4.572   4.529  0.1884 -0.8301 -0.5718
 1897TIP3    H227107   3.171   4.451   4.621 -0.2470 -0.1436  0.3547
 1898TIP3   OH227108   0.482   4.407   1.916  0.1462  0.4618  0.4006
 1898TIP3    H127109   0.401   4.376   1.876  0.1926 -0.8399  1.2443
 1898TIP3    H227110   0.454   4.468   1.984 -0.1631 -0.4320  1.0784
 1899TIP3   OH227111   5.729   5.831   2.246 -0.0332  0.4668  0.5332
 1899TIP3    H127112   5.644   5.843   2.288  0.0708  0.8764  0.6285
 1899TIP3    H227113   5.780   5.907   2.271  0.5903 -0.0936  1.0046
 1900TIP3   OH227114   1.078   4.243   5.508 -0.2899 -0.2703 -0.3369
 1900TIP3    H127115   1.154   4.301   5.500 -1.7245  2.4524  2.9570
 1900TIP3    H227116   1.104   4.179   5.574 -0.3657 -0.1926 -0.2300
 1901TIP3   OH227117   4.839   3.040  15.280 -0.5585  0.5014 -0.0321
 1901TIP3    H127118   4.774   3.028  15.210 -0.6420 -0.9390  0.2660
 1901TIP3    H227119   4.811   2.981  15.350 -0.1266  1.4699  0.9835
 1902TIP3   OH227120   4.607   0.834  10.217 -0.0873 -0.1379 -1.0584
 1902TIP3    H127121   4.614   0.890  10.139  0.5660  0.9575 -0.2385
 1902TIP3    H227122   4.656   0.881  10.285  1.7681 -2.4124 -0.7007
 1903TIP3   OH227123   5.918   0.371  14.676 -0.2402 -0.4272 -0.1637
 1903TIP3    H127124   5.972   0.292  14.683 -1.4799 -1.2659  0.2124
 1903TIP3    H227125   5.946   0.412  14.594  2.9179  0.6870  1.3265
 1904TIP3   OH227126   3.718   1.536   6.586  0.0430  0.2341  0.4699
 1904TIP3    H127127   3.676   1.599   6.645  0.7280  0.4297  0.7665
 1904TIP3    H227128   3.665   1.538   6.506 -1.3254 -0.5568  1.3165
 1905TIP3   OH227129   6.537   0.957   0.222  0.4227  0.5511 -0.3057
 1905TIP3    H127130   6.477   0.882   0.228  0.1433  0.7834 -0.1828
 1905TIP3    H227131   6.565   0.958   0.130  1.4278 -0.4731 -0.0309
 1906TIP3   OH227132   2.230   6.434  12.776  0.4327  0.1657 -0.3868
 1906TIP3    H127133   2.175   6.371  12.823 -0.8487  1.8952  0.5491
 1906TIP3    H227134   2.181   6.453  12.696  1.3053 -0.7303 -1.1659
 1907TIP3   OH227135   2.288   2.100  12.644  0.3781 -0.0346  0.0712
 1907TIP3    H127136   2.249   2.049  12.573 -2.0963 -1.5206  2.2942
 1907TIP3    H227137   2.295   2.189  12.610 -1.2101 -0.5878 -1.8485
 1908TIP3   OH227138   0.571   3.140   4.740  0.4926 -0.8574  0.3836
 1908TIP3    H127139   0.616   3.223   4.761 -0.1283 -0.5038  0.3401
 1908TIP3    H227140   0.620   3.074   4.789  0.3301 -0.3173  1.3020
 1909TIP3   OH227141   6.242   0.856   4.497  0.4803  0.1798 -0.3461
 1909TIP3    H127142   6.229   0.949   4.478 -0.2578  0.1675  0.0678
 1909TIP3    H227143   6.168   0.832   4.551  1.6934 -0.1765  1.2354
 1910TIP3   OH227144   1.490   0.699  11.022  0.2516  0.4402  0.7109
 1910TIP3    H127145   1.453   0.629  10.967 -1.0470 -0.1859  2.2751
 1910TIP3    H227146   1.509   0.770  10.961  0.0438 -0.6741 -0.7066
 1911TIP3   OH227147   1.327   2.959  12.220 -0.0060 -0.1180  0.3585
 1911TIP3    H127148   1.360   3.048  12.205  0.1199 -0.3035 -0.5154
 1911TIP3    H227149   1.233   2.966  12.202  0.1393 -0.3329 -0.5390
 1912TIP3   OH227150   3.564   6.104   4.302 -0.2586 -0.0160 -0.0672
 1912TIP3    H127151   3.483   6.062   4.273 -0.3583 -0.7314  1.1952
 1912TIP3    H227152   3.545   6.134   4.391  0.2408  1.5877 -0.4581
 1913TIP3   OH227153   3.318   4.240   0.296 -0.0611 -0.3083  0.2480
 1913TIP3    H127154   3.315   4.246   0.201 -0.5092  3.1481  0.3573
 1913TIP3    H227155   3.249   4.177   0.318 -1.5126  0.5139 -1.6417
 1914TIP3   OH227156   0.933   3.847   4.642 -0.3820  0.2851 -0.0508
 1914TIP3    H127157   0.904   3.844   4.733  0.0652  0.4185  0.1015
 1914TIP3    H227158   1.021   3.810   4.644 -1.2258 -1.8877 -0.8052
 1915TIP3   OH227159   6.112   0.338  11.685 -0.8095 -0.5741  0.2524
 1915TIP3    H127160   6.133   0.247  11.706 -0.9556 -0.0648  2.8489
 1915TIP3    H227161   6.198   0.381  11.682 -0.8747 -0.2831  1.8251
 1916TIP3   OH227162   0.054   2.066  14.572  0.0707 -0.0683  0.2542
 1916TIP3    H127163   0.043   2.151  14.531 -1.1418 -0.7402 -0.8808
 1916TIP3    H227164   0.031   2.003  14.504  0.3354 -1.2886  1.2524
 1917TIP3   OH227165   3.121   4.885   3.009  0.5154 -0.1884  0.1715
 1917TIP3    H127166   3.109   4.832   2.930  0.1434 -0.4914  0.4260
 1917TIP3    H227167   3.147   4.971   2.977 -0.6741  0.0008 -0.3365
 1918TIP3   OH227168   6.654   6.274   4.852  0.0106 -0.1495  0.9032
 1918TIP3    H127169   6.589   6.317   4.796  1.2502  0.1051 -0.3938
 1918TIP3    H227170   6.732   6.266   4.796  1.4350  0.4442  2.7097
 1919TIP3   OH227171   2.768   2.787  13.090  0.1348  0.4588  0.2689
 1919TIP3    H127172   2.748   2.855  13.026  1.5438  1.5849  0.9570
 1919TIP3    H227173   2.723   2.710  13.058 -0.8091  1.4941 -1.0105
 1920TIP3   OH227174   0.725   0.292   1.176 -0.1764 -0.4492 -0.7965
 1920TIP3    H127175   0.752   0.382   1.158 -3.1543  0.9444  0.9196
 1920TIP3    H227176   0.787   0.261   1.242 -0.4418  1.2603  0.3447
 1921TIP3   OH227177   6.623   1.362   0.502  0.3831  0.0930  0.2066
 1921TIP3    H127178   6.584   1.309   0.432 -0.3927  0.0912  0.6298
 1921TIP3    H227179   6.676   1.301   0.551  0.4655 -0.0320 -0.0346
 1922TIP3   OH227180   1.836   5.451   1.012 -0.1211  0.1793  0.3397
 1922TIP3    H127181   1.779   5.484   0.943  0.0590 -2.9132 -1.4164
 1922TIP3    H227182   1.797   5.367   1.038  2.2444 -0.8473  0.8276
 1923TIP3   OH227183   1.199   3.286  15.324 -0.5737 -0.4183  0.3950
 1923TIP3    H127184   1.132   3.351  15.303 -1.4905 -0.7058  2.1804
 1923TIP3    H227185   1.259   3.332  15.383  0.2337 -0.4684 -0.3727
 1924TIP3   OH227186   3.542   5.992  15.062  0.5848  0.4403  0.0545
 1924TIP3    H127187   3.589   6.030  14.987 -1.9050  2.3358 -0.7008
 1924TIP3    H227188   3.509   6.068  15.110 -0.7405 -0.7733  1.1513
 1925TIP3   OH227189   3.873   1.545  15.461 -0.5877 -0.1762 -0.5286
 1925TIP3    H127190   3.881   1.468  15.517 -2.1181 -0.7058 -0.9917
 1925TIP3    H227191   3.907   1.617  15.514 -0.2222 -0.9731  0.3460
 1926TIP3   OH227192   4.119   2.994   0.078  0.4491  0.3578  0.3620
 1926TIP3    H127193   4.176   3.065   0.049 -0.0542 -0.4258 -2.8952
 1926TIP3    H227194   4.032   3.033   0.084  0.5164  0.4665  0.6890
 1927TIP3   OH227195   1.937   5.080   4.766 -0.2524  0.1587 -0.9227
 1927TIP3    H127196   1.987   5.096   4.846 -0.2806 -1.0171 -0.6411
 1927TIP3    H227197   1.991   5.018   4.717 -0.8188 -0.0923 -1.2336
 1928TIP3   OH227198   3.362   1.231  15.840  0.2977 -0.0968  0.1655
 1928TIP3    H127199   3.410   1.194  15.766  0.8195 -0.6351  0.7543
 1928TIP3    H227200   3.271   1.207  15.825  0.2239  0.7849 -0.8792
 1929TIP3   OH227201   1.884   4.204   1.952  0.1260 -0.1167  0.2232
 1929TIP3    H127202   1.897   4.175   1.862 -0.0868  0.8489 -0.1406
 1929TIP3    H227203   1.971   4.206   1.991  0.2153 -0.5487  0.0470
 1930TIP3   OH227204   1.683   4.567   2.170 -0.3268 -0.2886  0.2811
 1930TIP3    H127205   1.672   4.481   2.131  2.0303 -0.8696  0.7094
 1930TIP3    H227206   1.660   4.555   2.262 -0.2429 -0.4106  0.2867
 1931TIP3   OH227207   4.247   6.395  15.468 -0.0741 -0.0588  0.3458
 1931TIP3    H127208   4.304   6.459  15.425  1.5655 -1.9875 -0.5019
 1931TIP3    H227209   4.292   6.373  15.549  0.3915 -1.5402 -0.2907
 1932TIP3   OH227210   3.144   4.612  15.517 -0.0279  0.0000 -0.4881
 1932TIP3    H127211   3.181   4.657  15.442 -1.1750  0.0512 -1.0518
 1932TIP3    H227212   3.179   4.523  15.512 -0.6410 -0.2047 -1.5155
 1933TIP3   OH227213   0.579   3.048  14.869  0.1572 -0.0471  0.1744
 1933TIP3    H127214   0.528   3.129  14.875 -1.3307 -1.0026  1.1457
 1933TIP3    H227215   0.525   2.990  14.815  0.3716 -0.9802  0.9380
 1934TIP3   OH227216   4.691   5.467   0.273 -0.7570 -0.0904 -0.0562
 1934TIP3    H127217   4.784   5.481   0.256 -0.8322 -0.1951 -0.5849
 1934TIP3    H227218   4.648   5.542   0.233 -0.9413 -0.3458 -0.3424
 1935TIP3   OH227219   4.851   6.373   1.086 -0.3438 -0.2077  0.0853
 1935TIP3    H127220   4.878   6.281   1.093 -0.7499 -0.2448  1.3085
 1935TIP3    H227221   4.845   6.403   1.177  1.1914  1.4518 -0.3020
 1936TIP3   OH227222   3.243   6.059   4.216  0.0699  0.0604 -1.1666
 1936TIP3    H127223   3.176   6.069   4.149 -2.6336 -1.6109  1.0918
 1936TIP3    H227224   3.260   6.148   4.248 -1.4883  0.4724 -1.4322
 1937TIP3   OH227225   5.955   0.909  10.781  0.0548 -0.4533 -0.3121
 1937TIP3    H127226   6.047   0.910  10.806  0.0774  1.1212 -0.3475
 1937TIP3    H227227   5.918   0.833  10.827  1.5302 -1.6547 -1.0148
 1938TIP3   OH227228   5.771   0.930  13.801  0.1196 -0.1371  0.3742
 1938TIP3    H127229   5.755   0.981  13.722 -1.6282 -2.1724 -0.6819
 1938TIP3    H227230   5.778   0.995  13.871 -2.3530  1.5523 -0.8200
 1939TIP3   OH227231   1.224   5.121  11.901 -0.1929  0.2381 -0.3063
 1939TIP3    H127232   1.156   5.174  11.859 -0.6883  0.1473  0.3721
 1939TIP3    H227233   1.305   5.151  11.860 -0.4094  1.8458  0.3796
 1940TIP3   OH227234   1.932   0.827   1.416  0.0910 -0.8715 -0.1288
 1940TIP3    H127235   1.889   0.834   1.502 -0.0483 -1.1596 -0.1716
 1940TIP3    H227236   1.895   0.747   1.378 -1.6272  0.4834 -1.4508
 1941TIP3   OH227237   3.428   4.200   4.338 -0.8434  0.5399 -0.4089
 1941TIP3    H127238   3.413   4.185   4.245 -0.1111  1.1594 -0.6416
 1941TIP3    H227239   3.356   4.155   4.382 -1.1736  0.2069 -1.2698
 1942TIP3   OH227240   2.517   6.122  14.130  0.2123 -0.0731  0.3234
 1942TIP3    H127241   2.533   6.209  14.166  0.6797 -1.2452  3.2710
 1942TIP3    H227242   2.423   6.120  14.111 -0.2085  0.4649  2.1672
 1943TIP3   OH227243   4.505   1.862   2.348 -0.9086 -0.4235 -0.2151
 1943TIP3    H127244   4.423   1.906   2.371 -0.2063  0.1221  1.3503
 1943TIP3    H227245   4.519   1.800   2.420  0.0664 -0.4991 -0.4681
 1944TIP3   OH227246   2.924   6.223  16.771  0.0001  0.4008 -0.0637
 1944TIP3    H127247   2.995   6.243  16.709 -0.1793  1.0364 -0.0661
 1944TIP3    H227248   2.865   6.165  16.722  0.8535 -0.6967  0.1587
 1945TIP3   OH227249   6.105   0.686  11.336  0.0826  0.1370  0.8124
 1945TIP3    H127250   6.114   0.781  11.335  1.5951  0.0154  0.8247
 1945TIP3    H227251   6.175   0.654  11.280 -1.0756 -0.9573 -0.0778
 1946TIP3   OH227252   4.363   2.997   3.849 -0.1958 -0.4082 -0.4125
 1946TIP3    H127253   4.324   3.015   3.763  2.0666 -1.7755 -1.8016
 1946TIP3    H227254   4.373   3.084   3.889  0.3049  0.4270 -2.2637
 1947TIP3   OH227255   5.292   4.756   3.502  0.1575 -0.0415 -0.1242
 1947TIP3    H127256   5.210   4.804   3.510  0.7783  0.8049  1.5534
 1947TIP3    H227257   5.335   4.767   3.587  0.9098 -2.5299 -0.0981
 1948TIP3   OH227258   5.704   1.045  13.545  0.4238 -0.2196 -0.5597
 1948TIP3    H127259   5.734   1.008  13.462  0.5644  2.7223 -1.9844
 1948TIP3    H227260   5.609   1.049  13.537  0.2292 -2.0988  0.4819
 1949TIP3   OH227261   3.602   1.188  14.962 -0.5215  0.3216 -0.1566
 1949TIP3    H127262   3.531   1.181  15.026  0.2493  1.0459  0.8066
 1949TIP3    H227263   3.677   1.217  15.013  1.3300 -3.2092 -0.5215
 1950TIP3   OH227264   0.457   2.002   1.589  0.1130  0.8760  0.4348
 1950TIP3    H127265   0.418   1.992   1.502  1.0096  2.7633 -0.2334
 1950TIP3    H227266   0.389   2.042   1.642 -0.7199 -1.0105  0.8963
 1951TIP3   OH227267   3.994   2.618  14.724  0.2732  0.3833 -0.1833
 1951TIP3    H127268   3.913   2.665  14.744 -1.0923 -2.1462  0.6110
 1951TIP3    H227269   4.000   2.551  14.792  3.4810  0.9374  0.2353
 1952TIP3   OH227270   4.613   5.564  12.329  0.1726 -0.2494 -0.4195
 1952TIP3    H127271   4.673   5.495  12.302  1.2587  0.4221  0.1865
 1952TIP3    H227272   4.555   5.522  12.392  1.5399 -0.3903  0.8083
 1953TIP3   OH227273   4.604   0.304   4.691 -0.2959  0.5911  0.2701
 1953TIP3    H127274   4.538   0.260   4.744 -0.1672  1.1105  0.8807
 1953TIP3    H227275   4.649   0.234   4.645 -1.0924  0.2145  0.0646
 1954TIP3   OH227276   4.460   5.880  11.533  0.3229 -0.0454  0.2108
 1954TIP3    H127277   4.410   5.812  11.577  0.6392  0.0087  0.6739
 1954TIP3    H227278   4.403   5.957  11.534 -0.4922 -0.5990 -1.3470
 1955TIP3   OH227279   4.580   2.378   2.578  0.2494 -0.5636 -0.0609
 1955TIP3    H127280   4.486   2.365   2.569 -0.5311  0.9516  3.8847
 1955TIP3    H227281   4.596   2.465   2.539 -0.5876  0.4139  1.6745
 1956TIP3   OH227282   2.755   4.612   4.974 -0.5046 -0.2449  0.5536
 1956TIP3    H127283   2.816   4.576   5.039 -0.5386  0.5895  1.0570
 1956TIP3    H227284   2.770   4.558   4.896  1.7945  0.7134  0.2455
 1957TIP3   OH227285   2.759   5.021  16.548 -0.4835 -0.2385 -0.2866
 1957TIP3    H127286   2.842   5.068  16.560 -0.4948  0.5927 -2.8153
 1957TIP3    H227287   2.721   5.017  16.636  0.3301  3.0426  0.3606
 1958TIP3   OH227288   2.588   6.068  14.795  0.0371 -0.3392 -0.2492
 1958TIP3    H127289   2.557   6.156  14.816  0.6310  0.1540 -1.3594
 1958TIP3    H227290   2.608   6.029  14.880 -0.8526  0.3604  0.2921
 1959TIP3   OH227291   3.024   2.083   1.845 -0.0888  0.2412 -0.0931
 1959TIP3    H127292   3.018   1.987   1.848 -0.0822  0.1886 -1.3082
 1959TIP3    H227293   2.982   2.106   1.762  0.0710  1.2818  0.1130
 1960TIP3   OH227294   1.190   4.455   0.543 -0.8372 -0.3358  0.0247
 1960TIP3    H127295   1.238   4.375   0.521 -0.3606 -0.1780  0.4830
 1960TIP3    H227296   1.232   4.487   0.623 -1.6614 -0.1648  0.4019
 1961TIP3   OH227297   0.448   2.334  16.030 -0.4005  0.4086  0.4008
 1961TIP3    H127298   0.439   2.413  16.084 -0.1389  0.8068 -0.1306
 1961TIP3    H227299   0.373   2.337  15.971 -1.2756 -0.5792  1.4253
 1962TIP3   OH227300   1.864   1.137   0.265  0.0855  0.1845  0.0548
 1962TIP3    H127301   1.807   1.136   0.342 -3.1974  1.3360 -2.1091
 1962TIP3    H227302   1.889   1.229   0.255 -0.9308  0.3710 -1.0922
 1963TIP3   OH227303   3.163   1.568  12.987 -0.3136  0.3157  0.3957
 1963TIP3    H127304   3.223   1.551  12.914  1.8761  0.8510  1.9452
 1963TIP3    H227305   3.150   1.482  13.027  0.5221  0.3626  0.8052
 1964TIP3   OH227306   6.705   3.440   3.710  0.6418  0.1094 -0.4718
 1964TIP3    H127307   6.619   3.476   3.730  0.5176 -0.1298 -0.5729
 1964TIP3    H227308   6.698   3.407   3.620  1.0838  0.8266 -0.7790
 1965TIP3   OH227309   6.562   1.246   5.478 -0.4796  0.1584 -0.3378
 1965TIP3    H127310   6.578   1.338   5.495 -1.0242 -0.0837  1.7581
 1965TIP3    H227311   6.535   1.243   5.386  1.0975  1.8450 -0.9218
 1966TIP3   OH227312   1.840   0.869   4.641  0.4726 -0.0914  0.2060
 1966TIP3    H127313   1.751   0.883   4.674  1.1764  2.5729  1.2582
 1966TIP3    H227314   1.835   0.787   4.591 -2.2806 -0.6075  1.1512
 1967TIP3   OH227315   4.447   3.689  12.051  0.5922  0.5230  1.0780
 1967TIP3    H127316   4.493   3.691  12.135 -1.0768 -3.3888  2.3171
 1967TIP3    H227317   4.360   3.724  12.071  0.0607 -0.7887  1.1258
 1968TIP3   OH227318   4.731   0.497  16.187  0.2975  0.3558  0.2510
 1968TIP3    H127319   4.710   0.590  16.196 -0.5044  0.3116 -0.9278
 1968TIP3    H227320   4.803   0.482  16.249  0.1236  1.6453  0.7928
 1969TIP3   OH227321   0.897   4.677   3.935 -0.1117 -0.3575  0.5543
 1969TIP3    H127322   0.933   4.720   4.013  1.5335  1.0569 -0.8855
 1969TIP3    H227323   0.973   4.636   3.894 -0.4690  0.8092 -1.4319
 1970TIP3   OH227324   1.465   0.308  15.442 -0.0750 -0.6076 -0.3343
 1970TIP3    H127325   1.405   0.234  15.439 -0.5652 -0.3559  1.5742
 1970TIP3    H227326   1.507   0.309  15.357 -1.6075 -1.7771 -1.1522
 1971TIP3   OH227327   0.865   5.064   2.966 -0.5641  0.6099 -0.1990
 1971TIP3    H127328   0.852   5.146   2.920  1.1892  0.9432 -0.1651
 1971TIP3    H227329   0.959   5.050   2.965 -0.3261  0.8344  3.5675
 1972TIP3   OH227330   5.537   6.326   5.589 -0.1189 -0.1170 -0.0120
 1972TIP3    H127331   5.496   6.413   5.584 -1.0193 -0.6017 -2.3705
 1972TIP3    H227332   5.504   6.288   5.670 -0.0453  1.5608  0.8419
 1973TIP3   OH227333   4.256   1.271  16.033 -0.9018 -0.5832 -0.1491
 1973TIP3    H127334   4.292   1.183  16.018  2.0997  0.6966 -1.0375
 1973TIP3    H227335   4.331   1.325  16.056 -2.2933  2.2314 -1.6272
 1974TIP3   OH227336   6.505   5.945  14.692  0.2774 -0.3316  0.0645
 1974TIP3    H127337   6.436   5.940  14.626  2.0197  0.2990 -1.9236
 1974TIP3    H227338   6.541   5.856  14.696 -0.6556 -0.6789  1.1573
 1975TIP3   OH227339   6.217   0.236  15.138 -0.0483  0.1896 -0.1883
 1975TIP3    H127340   6.191   0.234  15.230  0.8559 -0.5325  0.0674
 1975TIP3    H227341   6.291   0.175  15.133 -1.5257 -1.5615 -1.8534
 1976TIP3   OH227342   0.431   0.347  15.132 -0.1875 -0.5361  0.1998
 1976TIP3    H127343   0.512   0.330  15.084 -0.1883  4.0273 -1.9727
 1976TIP3    H227344   0.461   0.379  15.218  0.2763  0.1359 -0.2069
 1977TIP3   OH227345   0.802   6.338   5.319  0.0924 -0.2658  0.3254
 1977TIP3    H127346   0.879   6.358   5.371  0.7119 -2.5108  0.4004
 1977TIP3    H227347   0.749   6.418   5.321  1.8364  0.9203  1.2665
 1978TIP3   OH227348   2.490   0.349   3.360  0.1247  0.6399 -0.2965
 1978TIP3    H127349   2.430   0.307   3.298 -1.9718  3.0727 -0.1174
 1978TIP3    H227350   2.539   0.277   3.399  0.6208 -1.1187 -3.7534
 1979TIP3   OH227351   0.051   5.312  11.589  0.3075 -0.0494  0.0923
 1979TIP3    H127352   0.034   5.396  11.633  0.7751 -0.8679  1.9334
 1979TIP3    H227353   0.087   5.256  11.658  2.0894 -1.1102 -1.5968
 1980TIP3   OH227354   1.717   3.402   0.699 -0.2119  0.2398  0.5930
 1980TIP3    H127355   1.810   3.417   0.714 -0.4141  1.4210  0.7275
 1980TIP3    H227356   1.694   3.461   0.627 -0.9181  0.1767  0.7583
 1981TIP3   OH227357   6.291   0.203   2.782  0.1481  0.2268 -0.4144
 1981TIP3    H127358   6.252   0.257   2.714  0.3229 -0.8514 -1.4144
 1981TIP3    H227359   6.384   0.197   2.757  0.0476 -0.8746 -0.5802
 1982TIP3   OH227360   2.945   5.229   3.379  0.6553  0.2018 -0.0910
 1982TIP3    H127361   2.856   5.203   3.402  1.1258 -0.8420  0.6131
 1982TIP3    H227362   2.938   5.322   3.355 -0.8277 -0.1906 -1.3172
 1983TIP3   OH227363   1.639   5.986   0.001  0.4638  0.1223  0.0998
 1983TIP3    H127364   1.673   5.928   0.069  0.6899  0.3341  0.1670
 1983TIP3    H227365   1.554   6.015   0.035  1.1505  1.2740  0.9100
 1984TIP3   OH227366   2.999   4.420   1.548  0.0137  0.0768 -0.4001
 1984TIP3    H127367   2.972   4.451   1.461 -1.2033 -1.4480 -0.6006
 1984TIP3    H227368   2.969   4.330   1.552  0.9481 -0.2054  1.2465
 1985TIP3   OH227369   1.141   1.975  13.210  0.3472 -0.6306 -0.5569
 1985TIP3    H127370   1.220   1.920  13.204  0.1129 -0.9526 -0.6871
 1985TIP3    H227371   1.072   1.923  13.169 -0.1857 -0.8181  0.5334
 1986TIP3   OH227372   0.536   3.632  13.696  0.0832 -0.0070  0.3576
 1986TIP3    H127373   0.441   3.619  13.687  0.2185  0.0544 -1.6915
 1986TIP3    H227374   0.544   3.717  13.738 -0.7593 -0.3721  1.3126
 1987TIP3   OH227375   2.482   5.482   5.450 -0.3550 -0.3936  0.3610
 1987TIP3    H127376   2.545   5.464   5.520  0.2382 -1.2532 -0.3649
 1987TIP3    H227377   2.404   5.513   5.495 -0.2161 -1.5547  1.4458
 1988TIP3   OH227378   6.367   2.088  16.305 -0.5325 -0.8470 -0.7517
 1988TIP3    H127379   6.304   2.057  16.240  0.8544 -0.8647 -2.1250
 1988TIP3    H227380   6.313   2.111  16.381 -2.3150  0.0998 -2.2176
 1989TIP3   OH227381   2.782   1.779   0.028  0.3406 -0.4020 -0.3706
 1989TIP3    H127382   2.711   1.822   0.075  0.6070  0.3823 -0.6680
 1989TIP3    H227383   2.848   1.761   0.096  1.0261  1.3503 -0.5007
 1990TIP3   OH227384   0.932   6.420  10.976  0.3393 -0.9342 -0.3082
 1990TIP3    H127385   0.971   6.351  10.922 -0.5109 -0.0495 -2.1249
 1990TIP3    H227386   0.972   6.501  10.944  0.3666 -0.4458  0.9224
 1991TIP3   OH227387   5.938   2.810  13.552  0.2897 -0.0611 -0.0976
 1991TIP3    H127388   5.964   2.868  13.624 -1.0542 -0.2743  0.5978
 1991TIP3    H227389   5.961   2.722  13.584 -0.8095 -0.2106  0.3469
 1992TIP3   OH227390   6.734   4.939  16.835 -0.7850 -0.0872  0.2973
 1992TIP3    H127391   6.807   4.999  16.850  0.1721 -0.7617 -1.4312
 1992TIP3    H227392   6.774   4.853  16.824 -2.1254 -1.1140  2.6133
 1993TIP3   OH227393   5.759   1.635   3.729 -0.4342 -0.3760  0.2815
 1993TIP3    H127394   5.796   1.565   3.675 -1.1361 -0.2451 -0.3960
 1993TIP3    H227395   5.833   1.691   3.751 -0.0265 -0.8116  0.0329
 1994TIP3   OH227396   6.361   6.343   2.206 -1.1116  0.1720 -0.6317
 1994TIP3    H127397   6.370   6.283   2.280 -0.2230 -0.6090 -1.3480
 1994TIP3    H227398   6.410   6.421   2.233  0.7110 -0.7745 -1.0541
 1995TIP3   OH227399   2.259   4.100   2.472 -0.2272  0.3648  0.3409
 1995TIP3    H127400   2.349   4.122   2.448 -0.7494  0.7648 -1.3673
 1995TIP3    H227401   2.234   4.169   2.535  0.7703  0.0126  1.1513
 1996TIP3   OH227402   5.941   6.748  12.341  0.6625 -0.5242  0.0768
 1996TIP3    H127403   6.018   6.791  12.302 -1.2259  0.9038 -2.3324
 1996TIP3    H227404   5.875   6.817  12.345 -0.7339 -1.8876  1.4473
 1997TIP3   OH227405   2.770   4.715  16.381  0.6940 -0.5096  0.5251
 1997TIP3    H127406   2.835   4.660  16.425  2.1950  1.2997  0.6937
 1997TIP3    H227407   2.774   4.799  16.427  1.5723  1.1368 -2.3020
 1998TIP3   OH227408   6.494   1.602   0.929  0.4474  0.2560  0.3831
 1998TIP3    H127409   6.575   1.637   0.967  0.6862 -1.2261  1.3418
 1998TIP3    H227410   6.428   1.669   0.947  0.5885 -0.2683  3.3815
 1999TIP3   OH227411   3.737   0.084  15.787  0.2628  0.7329 -0.7561
 1999TIP3    H127412   3.794   0.067  15.712  0.9066 -0.8358  0.0343
 1999TIP3    H227413   3.797   0.086  15.862 -0.4945  1.1304 -0.1503
 2000TIP3   OH227414   0.750   5.491  13.974 -0.1648 -0.7394 -0.2734
 2000TIP3    H127415   0.785   5.417  14.023  0.1255 -1.1940 -1.1456
 2000TIP3    H227416   0.687   5.531  14.034  1.3763 -0.2708  1.0833
 2001TIP3   OH227417   5.542   2.839   2.627 -0.4349  0.6696 -0.2939
 2001TIP3    H127418   5.512   2.924   2.594 -3.5687 -0.1417  0.1515
 2001TIP3    H227419   5.465   2.782   2.621  0.9008 -1.5245  1.5939
 2002TIP3   OH227420   0.316   1.318  13.429  0.1322  0.0623  0.2225
 2002TIP3    H127421   0.389   1.257  13.418  0.1203  0.0585  0.1609
 2002TIP3    H227422   0.259   1.300  13.354 -0.4330 -0.6239  0.7942
 2003TIP3   OH227423   2.934   4.801  14.872  0.5419  0.3848  0.1690
 2003TIP3    H127424   2.961   4.797  14.780  3.8930  1.4538  0.9958
 2003TIP3    H227425   2.932   4.709  14.900 -1.8885 -0.0737 -1.2139
 2004TIP3   OH227426   5.550   4.134  15.379  0.0041 -0.4386 -0.0001
 2004TIP3    H127427   5.565   4.073  15.307  0.0308 -2.3800  1.5634
 2004TIP3    H227428   5.637   4.168  15.399 -0.0853  0.5927 -1.2384
 2005TIP3   OH227429   4.507   4.031  11.392 -0.1746  0.3306  0.1612
 2005TIP3    H127430   4.572   4.093  11.426  1.8728 -0.9312 -1.2316
 2005TIP3    H227431   4.480   4.069  11.308  0.2554 -0.0992 -0.1767
 2006TIP3   OH227432   2.682   0.809   4.059  0.5398 -0.2424  0.2351
 2006TIP3    H127433   2.745   0.865   4.105  1.2799 -1.0884  0.2842
 2006TIP3    H227434   2.642   0.757   4.129 -0.0301  0.1022  0.1726
 2007TIP3   OH227435   1.458   5.147   5.077 -0.3895  0.1470 -0.1380
 2007TIP3    H127436   1.535   5.180   5.032  1.2355  0.1829  2.4548
 2007TIP3    H227437   1.390   5.213   5.060  1.3542  2.3245  0.8455
 2008TIP3   OH227438   1.818   3.864   2.763  0.4160 -0.7244  0.1570
 2008TIP3    H127439   1.825   3.803   2.689 -2.3407  0.6432 -1.3709
 2008TIP3    H227440   1.819   3.951   2.723  1.9040  0.2301  2.0744
 2009TIP3   OH227441   4.777   4.482   4.505 -0.0409  0.1539 -0.5873
 2009TIP3    H127442   4.839   4.553   4.490  1.8950 -1.3453 -0.2591
 2009TIP3    H227443   4.820   4.426   4.570 -3.0509  0.4779  1.9052
 2010TIP3   OH227444   4.154   2.001  12.744  0.2319 -0.2574 -0.2926
 2010TIP3    H127445   4.205   2.080  12.730 -0.2002  0.4273  1.7561
 2010TIP3    H227446   4.211   1.944  12.796  0.9292 -1.7945 -2.5370
 2011TIP3   OH227447   5.666   0.381   5.782 -0.1296  0.3617 -0.2310
 2011TIP3    H127448   5.699   0.295   5.755  0.3162  0.6030 -0.4653
 2011TIP3    H227449   5.582   0.391   5.736 -1.4500 -1.0171  1.7214
 2012TIP3   OH227450   1.026   3.237  16.483  0.2659 -0.3249 -0.2034
 2012TIP3    H127451   1.075   3.319  16.484 -1.0861  0.6310 -2.5638
 2012TIP3    H227452   1.018   3.216  16.390 -0.9792 -2.1915  0.2764
 2013TIP3   OH227453   5.981   2.075  15.469  0.2077  0.0894 -0.2260
 2013TIP3    H127454   5.893   2.087  15.431  0.4081 -3.0821 -2.0368
 2013TIP3    H227455   6.040   2.108  15.401  0.5258  1.4055  0.6344
 2014TIP3   OH227456   0.943   5.031  14.103 -0.3270 -0.1537  1.3340
 2014TIP3    H127457   0.964   4.941  14.127  0.8140 -0.4577 -0.5463
 2014TIP3    H227458   0.974   5.039  14.012 -1.6627  1.7190  0.9812
 2015TIP3   OH227459   5.910   4.772  13.808 -0.7057 -0.0448 -0.1965
 2015TIP3    H127460   6.002   4.783  13.785 -0.4878 -1.6930 -0.2297
 2015TIP3    H227461   5.887   4.851  13.855  0.5547  0.6651 -0.7265
 2016TIP3   OH227462   3.815   5.080  11.119 -0.0509  0.2453  0.1568
 2016TIP3    H127463   3.723   5.053  11.124 -0.0507  0.4257  1.6996
 2016TIP3    H227464   3.865   5.004  11.149  0.1917  0.6569  0.8201
 2017TIP3   OH227465   2.024   5.292   3.674 -0.6101  0.3409 -0.2712
 2017TIP3    H127466   2.024   5.196   3.669 -0.0781  0.3487 -0.4957
 2017TIP3    H227467   1.956   5.319   3.613 -1.7810  0.0633  0.8666
 2018TIP3   OH227468   4.584   3.524  15.576 -0.0756 -0.5258  0.1944
 2018TIP3    H127469   4.669   3.534  15.620 -0.7608 -0.7716  1.6488
 2018TIP3    H227470   4.521   3.518  15.648 -1.8487  3.4422 -0.7601
 2019TIP3   OH227471   0.357   4.275   5.498 -0.4388  0.5742  0.2550
 2019TIP3    H127472   0.346   4.282   5.592 -0.9653  1.3749  0.1378
 2019TIP3    H227473   0.452   4.281   5.484 -0.1033 -1.9170  0.8988
 2020TIP3   OH227474   5.516   2.308   1.330  0.4001 -0.2041  0.2800
 2020TIP3    H127475   5.571   2.331   1.405  2.5281  0.0901 -1.2660
 2020TIP3    H227476   5.571   2.250   1.277 -0.5544  0.5536 -1.6462
 2021TIP3   OH227477   3.164   1.516   4.200 -0.1780  0.2873  0.4568
 2021TIP3    H127478   3.196   1.489   4.113 -1.2859 -0.1751  0.1808
 2021TIP3    H227479   3.155   1.611   4.193  1.1335  0.4363  0.5498
 2022TIP3   OH227480   3.307   4.123   1.227  0.3902 -0.6327 -0.1731
 2022TIP3    H127481   3.309   4.180   1.150 -1.4012  0.0451  0.2263
 2022TIP3    H227482   3.287   4.182   1.299  2.9608 -1.1105  1.0213
 2023TIP3   OH227483   2.385   1.763  14.142  0.2383 -0.2984 -0.2009
 2023TIP3    H127484   2.367   1.694  14.078 -1.7834  0.4173 -0.4815
 2023TIP3    H227485   2.299   1.785  14.178  0.6483  2.8094 -0.8849
 2024TIP3   OH227486   1.410   3.049  10.432 -0.5023  0.1950  0.2652
 2024TIP3    H127487   1.422   3.000  10.513  1.2233 -0.4243 -0.3184
 2024TIP3    H227488   1.490   3.102  10.424 -1.8031  2.2899  0.2839
 2025TIP3   OH227489   2.220   5.407  16.261  0.0604  0.0650  0.0070
 2025TIP3    H127490   2.132   5.370  16.249 -0.4762  1.7355 -1.9769
 2025TIP3    H227491   2.277   5.349  16.211 -0.2010 -0.0529 -0.1579
 2026TIP3   OH227492   4.979   0.048   0.400 -0.6876  0.0305  0.1617
 2026TIP3    H127493   5.011   0.028   0.488 -0.2474  1.6065  0.3846
 2026TIP3    H227494   4.979  -0.037   0.355  0.7928 -0.5225  1.1201
 2027TIP3   OH227495   2.442   5.539  14.964  0.2979  0.1730  0.7990
 2027TIP3    H127496   2.434   5.547  15.059 -3.0373 -1.1679  0.7609
 2027TIP3    H227497   2.504   5.608  14.940 -0.3477  1.9690  3.7258
 2028TIP3   OH227498   5.368   0.178  10.918 -0.2310  0.7067  0.2652
 2028TIP3    H127499   5.333   0.145  11.001 -2.2058 -1.5709 -1.3109
 2028TIP3    H227500   5.308   0.248  10.892  1.0412  2.2078  1.2212
 2029TIP3   OH227501   3.943   6.657   0.678 -0.3990 -0.0228  0.5750
 2029TIP3    H127502   4.020   6.613   0.715  0.2138  1.1965  0.7968
 2029TIP3    H227503   3.932   6.618   0.592 -0.5682 -1.4103  1.1913
 2030TIP3   OH227504   0.568   1.070  12.165  1.1476 -0.0411  0.3352
 2030TIP3    H127505   0.589   1.052  12.257 -0.1076  1.5753  0.9862
 2030TIP3    H227506   0.631   1.138  12.140  1.7709 -0.7869 -0.1507
 2031TIP3   OH227507   1.865   6.426  15.754  0.5566 -0.0550 -0.0394
 2031TIP3    H127508   1.937   6.419  15.691 -0.5026 -0.1649 -1.2805
 2031TIP3    H227509   1.861   6.340  15.796  0.1559 -0.5731 -1.1025
 2032TIP3   OH227510   6.443   3.745  10.492 -0.0766 -0.1255  0.3588
 2032TIP3    H127511   6.511   3.783  10.436  1.3106 -2.0301  0.6497
 2032TIP3    H227512   6.383   3.703  10.430 -0.2292  0.3519  0.1746
 2033TIP3   OH227513   5.936   4.113  13.891  0.9184 -0.4393  0.0307
 2033TIP3    H127514   5.881   4.153  13.825  1.2581  0.2848  0.1817
 2033TIP3    H227515   5.957   4.184  13.952  1.9365 -0.7171  0.0251
 2034TIP3   OH227516   3.858   4.288  11.972 -0.5069 -0.0230 -0.0641
 2034TIP3    H127517   3.917   4.212  11.967  0.0106  0.3456  0.2950
 2034TIP3    H227518   3.900   4.354  11.917 -2.0980 -0.7145 -2.2570
 2035TIP3   OH227519   5.220   0.723  12.983  0.0735 -0.0224 -0.1752
 2035TIP3    H127520   5.150   0.688  13.038 -0.1451  0.5064 -0.1128
 2035TIP3    H227521   5.283   0.760  13.045 -0.0122  0.2753 -0.2642
 2036TIP3   OH227522   0.660   6.399  14.687  0.1611  0.3583  0.5435
 2036TIP3    H127523   0.633   6.443  14.606 -1.5073 -1.2687  0.1473
 2036TIP3    H227524   0.597   6.427  14.753  0.0475 -0.1821  0.6714
 2037TIP3   OH227525   3.256   5.141   3.211  0.5520  0.2640 -0.3107
 2037TIP3    H127526   3.300   5.215   3.170  1.5701 -1.4716 -2.5053
 2037TIP3    H227527   3.207   5.100   3.140  1.6064 -2.3137  0.3537
 2038TIP3   OH227528   4.716   6.127  16.896 -0.3258 -0.4778  0.3903
 2038TIP3    H127529   4.751   6.199  16.843 -2.0024  0.3251  0.2811
 2038TIP3    H227530   4.789   6.099  16.950  0.9276 -0.0686 -1.0342
 2039TIP3   OH227531   0.765   3.597   6.053  0.1584  0.1354 -0.6451
 2039TIP3    H127532   0.728   3.513   6.081  0.8003  0.5334  1.6267
 2039TIP3    H227533   0.856   3.578   6.033  0.0141  0.0979 -1.3042
 2040TIP3   OH227534   1.647   5.409   5.661  0.0099 -0.6940  0.2456
 2040TIP3    H127535   1.563   5.414   5.706 -0.4901 -0.0524 -0.7359
 2040TIP3    H227536   1.680   5.498   5.661 -0.6439 -0.3884 -1.8114
 2041TIP3   OH227537   2.122   4.260  14.163  0.2043  0.4509  0.2511
 2041TIP3    H127538   2.052   4.265  14.228 -0.0456  2.8221 -0.1198
 2041TIP3    H227539   2.080   4.225  14.085 -0.5032  1.4649  0.1605
 2042TIP3   OH227540   2.864   6.780  11.475 -0.3099  0.0088 -0.0253
 2042TIP3    H127541   2.879   6.863  11.430  1.6978 -0.2346  0.1372
 2042TIP3    H227542   2.931   6.777  11.543 -0.9878 -1.3053  0.6151
 2043TIP3   OH227543   5.366   3.497  12.259 -0.2341  0.2291  0.2736
 2043TIP3    H127544   5.405   3.554  12.325  1.0737 -0.4824  0.1517
 2043TIP3    H227545   5.359   3.411  12.302 -2.7385  0.5433  0.6657
 2044TIP3   OH227546   3.005   3.092  15.418  0.1585 -0.2509  0.2653
 2044TIP3    H127547   2.918   3.117  15.387  0.2745 -0.0092  0.1376
 2044TIP3    H227548   3.041   3.171  15.457 -0.3646 -0.7755  1.9092
 2045TIP3   OH227549   3.207   2.079  14.777  0.4349  0.4172  0.2268
 2045TIP3    H127550   3.180   2.045  14.862  0.2980  1.0952  0.4610
 2045TIP3    H227551   3.131   2.067  14.720  0.8110 -0.8229 -0.0422
 2046TIP3   OH227552   4.400   5.279   5.090  0.7043 -0.4332 -0.1672
 2046TIP3    H127553   4.382   5.254   5.181  1.9478 -0.8511 -0.0182
 2046TIP3    H227554   4.320   5.322   5.061  0.2174 -0.4632  1.0678
 2047TIP3   OH227555   2.144   1.977  15.619  0.3993  0.1616  0.1108
 2047TIP3    H127556   2.161   1.968  15.526  1.4687 -1.2853  0.4109
 2047TIP3    H227557   2.137   1.887  15.651 -1.2099  0.6335  1.2232
 2048TIP3   OH227558   5.368   2.076   3.176 -0.3339 -0.2381  0.4244
 2048TIP3    H127559   5.325   2.161   3.171 -1.9307 -0.9017  1.6107
 2048TIP3    H227560   5.460   2.096   3.193  0.0008  1.2579 -2.6201
 2049TIP3   OH227561   5.892   2.348  10.779  0.5830 -0.5089 -0.5368
 2049TIP3    H127562   5.842   2.315  10.705  2.0014  0.3103 -1.9311
 2049TIP3    H227563   5.877   2.285  10.849 -1.7479 -0.6796 -1.1173
 2050TIP3   OH227564   5.450   0.181  15.194  0.7460 -0.2793  0.3887
 2050TIP3    H127565   5.530   0.187  15.141 -0.3578 -0.5140 -1.4044
 2050TIP3    H227566   5.434   0.270  15.223  1.6861 -0.2378  0.8275
 2051TIP3   OH227567   4.739   6.500   4.699  0.2080  0.3416  0.2746
 2051TIP3    H127568   4.829   6.522   4.677  0.3096  0.6367  0.9346
 2051TIP3    H227569   4.737   6.502   4.795 -0.3136 -0.4238  0.2926
 2052TIP3   OH227570   2.071   3.323  12.596 -0.0429  0.3638  0.0002
 2052TIP3    H127571   2.153   3.277  12.582  0.6905  1.1843  1.3437
 2052TIP3    H227572   2.045   3.300  12.685  0.4628  2.6248  0.7994
 2053TIP3   OH227573   1.687   2.638   0.980 -0.1578 -0.5646 -0.0862
 2053TIP3    H127574   1.632   2.574   0.935 -2.5847  1.6161 -0.4936
 2053TIP3    H227575   1.633   2.669   1.053  1.7341 -0.3951  1.3053
 2054TIP3   OH227576   4.424   2.756   0.150 -0.4298 -0.1924  0.3828
 2054TIP3    H127577   4.366   2.716   0.086 -1.1934  1.5854 -0.0920
 2054TIP3    H227578   4.382   2.739   0.234 -0.1625 -1.3091  0.3027
 2055TIP3   OH227579   3.097   6.316  15.828  0.4275 -0.1649 -0.1647
 2055TIP3    H127580   3.129   6.402  15.801 -1.9076  0.7889 -0.1258
 2055TIP3    H227581   3.152   6.254  15.780  1.8677  1.3403 -0.5495
 2056TIP3   OH227582   0.537   1.656   5.114 -0.2707  0.4667 -0.3084
 2056TIP3    H127583   0.526   1.745   5.079 -1.7922 -0.0486 -1.2322
 2056TIP3    H227584   0.464   1.606   5.077  2.0866 -1.9147 -2.1755
 2057TIP3   OH227585   2.513   0.141   0.913 -0.0547  0.3375 -0.2779
 2057TIP3    H127586   2.562   0.082   0.857 -1.1582 -1.3953  0.5125
 2057TIP3    H227587   2.578   0.203   0.945  1.4516 -1.3269  0.0349
 2058TIP3   OH227588   0.324   2.889  10.485 -0.5445  0.0135  0.4672
 2058TIP3    H127589   0.278   2.920  10.406 -0.9482 -0.6901  0.4183
 2058TIP3    H227590   0.353   2.969  10.529  0.0322  0.4107 -0.5959
 2059TIP3   OH227591   4.746   0.110  14.221  0.3417 -0.5080  0.2990
 2059TIP3    H127592   4.776   0.027  14.186  0.7208 -0.4373  0.4511
 2059TIP3    H227593   4.768   0.174  14.153 -0.3510 -0.5884 -0.0120
 2060TIP3   OH227594   6.644   2.893   3.752  0.1714 -0.1820  0.1188
 2060TIP3    H127595   6.566   2.838   3.761 -0.9055  1.1978 -0.3799
 2060TIP3    H227596   6.717   2.833   3.764 -0.9650 -1.4789  0.8313
 2061TIP3   OH227597   4.038   4.643   3.404 -0.0142  0.3692  0.2145
 2061TIP3    H127598   3.954   4.676   3.435 -0.2902  0.0308 -0.1692
 2061TIP3    H227599   4.097   4.719   3.409 -0.8076  1.1191 -1.3177
 2062TIP3   OH227600   2.812   3.504  13.464  0.8395 -0.6551  0.1336
 2062TIP3    H127601   2.822   3.551  13.381  2.9915  0.2953  0.8728
 2062TIP3    H227602   2.722   3.470  13.461  0.1906  1.0204 -1.7127
 2063TIP3   OH227603   0.129   3.603  15.268  0.3416  0.6467  0.0294
 2063TIP3    H127604   0.111   3.697  15.277 -1.8996  0.0724  3.2150
 2063TIP3    H227605   0.218   3.592  15.299  1.2400  1.8254 -1.9217
 2064TIP3   OH227606   0.201   1.053  11.699  0.4248 -0.4658  0.6064
 2064TIP3    H127607   0.151   1.133  11.686 -0.8140 -1.0943  1.3054
 2064TIP3    H227608   0.224   1.024  11.611  2.0072  1.3039  0.3739
 2065TIP3   OH227609   1.407   3.570   3.488  0.2376  0.2404 -0.2772
 2065TIP3    H127610   1.415   3.647   3.544  0.9805 -1.1175  1.5668
 2065TIP3    H227611   1.496   3.538   3.479 -0.0547 -0.3566 -1.1067
 2066TIP3   OH227612   2.794   5.850   0.339  0.0618 -0.2268  0.1814
 2066TIP3    H127613   2.806   5.925   0.397  2.7097  0.0902 -0.6656
 2066TIP3    H227614   2.839   5.778   0.384 -0.1723 -0.6471 -0.2485
 2067TIP3   OH227615   1.018   4.344  14.309  0.4070  0.0686  0.1158
 2067TIP3    H127616   0.975   4.373  14.389  2.2989  2.8217  0.2739
 2067TIP3    H227617   1.018   4.249  14.315 -3.2689 -0.0340  1.2449
 2068TIP3   OH227618   0.606   5.147  13.567 -0.5717  0.5224 -0.3634
 2068TIP3    H127619   0.645   5.108  13.489  2.2766  2.2177  0.0688
 2068TIP3    H227620   0.679   5.189  13.613 -2.4329  1.1829  2.2803
 2069TIP3   OH227621   4.848   0.227   5.956 -0.4936 -0.1960  0.2620
 2069TIP3    H127622   4.766   0.204   6.000 -0.0722  0.6595  1.5784
 2069TIP3    H227623   4.914   0.175   6.002 -0.3392 -1.2666 -1.1289
 2070TIP3   OH227624   5.888   3.240   5.772 -0.8252 -0.9202  0.5385
 2070TIP3    H127625   5.971   3.272   5.808 -1.5148  2.1689 -0.3225
 2070TIP3    H227626   5.837   3.213   5.849  0.3569 -1.3067  1.2032
 2071TIP3   OH227627   4.585   5.917   6.083 -0.5848 -0.1073 -0.2391
 2071TIP3    H127628   4.569   5.982   6.152  0.2673 -1.0490  0.9078
 2071TIP3    H227629   4.648   5.959   6.024  0.3656 -0.0344  0.7808
 2072TIP3   OH227630   0.041   4.078  11.759 -0.5061  0.0390 -0.0235
 2072TIP3    H127631  -0.029   4.035  11.807 -0.4569 -0.9414 -0.8049
 2072TIP3    H227632  -0.002   4.151  11.714 -1.3486 -1.4047 -1.6542
 2073TIP3   OH227633   3.537   1.994  14.446  0.2050 -0.3111 -0.1106
 2073TIP3    H127634   3.509   2.031  14.530  1.8043  0.6587  0.0329
 2073TIP3    H227635   3.471   2.024  14.383 -0.5703 -0.3842  0.6447
 2074TIP3   OH227636   3.430   2.705   6.430 -0.5011 -0.9693 -0.0098
 2074TIP3    H127637   3.336   2.724   6.440 -0.8188 -1.8370 -1.1628
 2074TIP3    H227638   3.440   2.616   6.463 -0.1394 -0.9879 -0.1665
 2075TIP3   OH227639   4.317   6.059  14.537  0.2206  0.0951  0.8885
 2075TIP3    H127640   4.267   6.103  14.606 -0.4315 -1.4293  1.4455
 2075TIP3    H227641   4.251   6.020  14.480  0.7598 -0.4903  0.6487
 2076TIP3   OH227642   5.946   3.083  16.055 -0.7694  0.3181  0.3747
 2076TIP3    H127643   5.911   3.114  16.138  2.0613 -0.2810  1.9393
 2076TIP3    H227644   5.949   2.988  16.064  0.6688  0.3099  0.1348
 2077TIP3   OH227645   3.106   0.730   2.946 -0.3502  0.7077  0.0817
 2077TIP3    H127646   3.165   0.761   3.015  0.0848 -1.8671  0.9759
 2077TIP3    H227647   3.018   0.749   2.980 -0.1274 -0.0199  1.1079
 2078TIP3   OH227648   0.628   0.415  12.127  0.2910  0.1911 -0.3798
 2078TIP3    H127649   0.690   0.342  12.133 -1.9628 -1.6973  2.3688
 2078TIP3    H227650   0.643   0.466  12.206  0.1974  1.3346 -1.0876
 2079TIP3   OH227651   6.331   2.661  14.518  0.2729  0.4635  0.0997
 2079TIP3    H127652   6.252   2.607  14.513  0.7174 -0.1441 -0.6178
 2079TIP3    H227653   6.306   2.736  14.571 -0.1001 -0.8844  1.9130
 2080TIP3   OH227654   1.614   5.994   0.882  0.1088 -0.4259 -0.6174
 2080TIP3    H127655   1.680   5.943   0.930  0.9858 -0.5827 -1.9222
 2080TIP3    H227656   1.540   6.001   0.942  1.2125 -0.4834  0.7980
 2081TIP3   OH227657   4.378   2.954  15.028  0.5908 -0.0869 -0.3699
 2081TIP3    H127658   4.320   2.889  15.068  1.0147 -0.5204 -0.4548
 2081TIP3    H227659   4.323   2.999  14.964 -0.2394  0.9601  1.0410
 2082TIP3   OH227660   2.897   3.281  10.187 -0.2752 -0.4034  0.1372
 2082TIP3    H127661   2.849   3.354  10.224  1.3216  1.3957 -1.1297
 2082TIP3    H227662   2.971   3.268  10.246  0.4254  0.2433 -0.5672
 2083TIP3   OH227663   3.409   6.693   3.467 -0.4163 -0.0651 -0.1432
 2083TIP3    H127664   3.465   6.633   3.418 -0.4077  0.3365 -0.6334
 2083TIP3    H227665   3.391   6.764   3.406  0.0651  0.7339  0.6146
 2084TIP3   OH227666   4.738   1.576  15.633  0.0440 -0.1035  0.0838
 2084TIP3    H127667   4.807   1.520  15.599  0.7403 -0.1563  1.5233
 2084TIP3    H227668   4.657   1.540  15.595  0.6766 -0.7801 -0.6551
 2085TIP3   OH227669   0.346   5.208  16.149  0.1941  0.5205 -0.0633
 2085TIP3    H127670   0.423   5.153  16.157 -0.1689 -0.0978 -0.6945
 2085TIP3    H227671   0.379   5.297  16.151  0.8054  0.2833  0.8467
 2086TIP3   OH227672   2.790   3.848   4.254  0.4814 -0.4531  0.3699
 2086TIP3    H127673   2.705   3.887   4.237  1.3761  1.7576  0.6180
 2086TIP3    H227674   2.777   3.754   4.238 -2.0278 -0.2246  0.6676
 2087TIP3   OH227675   1.845   3.186   3.054  0.0605  0.8642  0.3537
 2087TIP3    H127676   1.888   3.265   3.086  0.9958 -0.1981  1.8651
 2087TIP3    H227677   1.870   3.180   2.962  1.1891  1.5429  0.6021
 2088TIP3   OH227678   2.851   4.864  11.678 -0.0895  0.2293  0.1962
 2088TIP3    H127679   2.894   4.845  11.761  0.2471  0.3758  0.0565
 2088TIP3    H227680   2.824   4.779  11.644 -0.0151  0.1473  0.3438
 2089TIP3   OH227681   3.747   4.561  10.985  0.2406  0.2164  0.5639
 2089TIP3    H127682   3.815   4.564  10.918  1.0495 -2.4446  1.1482
 2089TIP3    H227683   3.667   4.586  10.938  1.0647  0.1657 -0.9446
 2090TIP3   OH227684   0.775   5.282   2.019 -0.2573  0.5488  0.3726
 2090TIP3    H127685   0.730   5.205   2.054 -2.7762  2.2813  1.2571
 2090TIP3    H227686   0.709   5.326   1.964  1.5563  1.3611 -1.2935
 2091TIP3   OH227687   3.627   5.813   5.213 -0.2087  0.1038  0.1229
 2091TIP3    H127688   3.687   5.746   5.182 -0.7235 -0.3282  0.0462
 2091TIP3    H227689   3.665   5.896   5.184 -0.1144 -0.2243 -0.6977
 2092TIP3   OH227690   4.674   1.862  13.476 -0.2167 -0.2710 -0.4946
 2092TIP3    H127691   4.682   1.767  13.484 -0.1284 -0.2509 -0.3364
 2092TIP3    H227692   4.750   1.889  13.424  0.2311 -0.1913  0.1799
 2093TIP3   OH227693   1.254   5.192  15.069 -0.0256  0.4332 -0.0836
 2093TIP3    H127694   1.300   5.256  15.123  0.9618 -1.1140  1.0249
 2093TIP3    H227695   1.252   5.113  15.123  1.2122 -1.2868 -2.4005
 2094TIP3   OH227696   1.758   4.679  15.543 -0.2820  0.4459 -0.5256
 2094TIP3    H127697   1.807   4.758  15.521  0.9136 -0.8210 -2.9087
 2094TIP3    H227698   1.808   4.639  15.614  0.3155  0.8168 -0.7241
 2095TIP3   OH227699   1.503   2.449  11.706 -0.0918  0.2199 -0.2367
 2095TIP3    H127700   1.526   2.457  11.613 -0.2907 -3.3213 -0.7170
 2095TIP3    H227701   1.411   2.423  11.706 -0.1414  0.3227  0.9740
 2096TIP3   OH227702   5.025   2.345   3.892 -0.2051  0.0529 -0.5838
 2096TIP3    H127703   4.992   2.280   3.829 -0.6380 -0.3031 -0.0032
 2096TIP3    H227704   5.001   2.309   3.978  1.2171  0.0675 -0.1538
 2097TIP3   OH227705   2.331   1.023  16.045  0.2894  0.0872 -0.2724
 2097TIP3    H127706   2.365   1.106  16.012  1.0362 -0.3681 -0.6447
 2097TIP3    H227707   2.300   1.044  16.134  0.5380  0.7464 -0.3383
 2098TIP3   OH227708   2.713   6.311  10.946 -0.8635  0.1409 -0.1725
 2098TIP3    H127709   2.637   6.306  11.003 -1.1781 -1.1462 -0.6672
 2098TIP3    H227710   2.680   6.288  10.859 -0.3465  1.8099 -0.8709
 2099TIP3   OH227711   5.944   1.275   1.739 -0.1108 -0.0956 -0.3475
 2099TIP3    H127712   5.921   1.273   1.646  2.4707  0.1567 -1.0599
 2099TIP3    H227713   5.973   1.186   1.759  2.9582  0.6943 -0.8648
 2100TIP3   OH227714   5.949   1.721   6.470 -0.0978 -0.3013  0.0367
 2100TIP3    H127715   5.919   1.809   6.451  2.0416 -0.0561 -2.9311
 2100TIP3    H227716   6.044   1.730   6.483  0.1610 -2.1109 -0.2909
 2101TIP3   OH227717   2.469   4.158   3.542  0.3976  0.5835 -0.3978
 2101TIP3    H127718   2.418   4.078   3.554  0.2885  0.3048 -2.3834
 2101TIP3    H227719   2.417   4.226   3.585 -0.4742 -0.0754 -0.3738
 2102TIP3   OH227720   3.339   5.586   2.294  0.3096  0.2008 -0.2100
 2102TIP3    H127721   3.267   5.526   2.315 -1.2924  1.4973 -1.7314
 2102TIP3    H227722   3.348   5.640   2.373 -0.1494 -0.1926  0.1229
 2103TIP3   OH227723   6.014   2.436   3.936  0.1635  0.3911 -0.5118
 2103TIP3    H127724   6.072   2.382   3.990  0.5832  0.0095 -1.3153
 2103TIP3    H227725   6.015   2.522   3.978  1.7215  0.5305 -0.7781
 2104TIP3   OH227726   3.685   1.621   0.611 -0.0892 -0.0878 -0.3991
 2104TIP3    H127727   3.716   1.648   0.698 -0.3064 -2.3355  0.4188
 2104TIP3    H227728   3.729   1.538   0.594 -2.9891 -1.6783 -0.7008
 2105TIP3   OH227729   4.793   2.297  15.190  0.1811  0.7289 -0.0093
 2105TIP3    H127730   4.709   2.305  15.146  0.9407  1.6174 -1.3753
 2105TIP3    H227731   4.828   2.386  15.192  0.2214  0.7209  2.3893
 2106TIP3   OH227732   3.482   1.189   3.153  0.3292 -0.4546 -0.2952
 2106TIP3    H127733   3.502   1.265   3.208 -0.0131 -1.3240  1.0797
 2106TIP3    H227734   3.565   1.141   3.149 -0.3264 -1.9905  2.1093
 2107TIP3   OH227735   0.272   3.892  14.579 -0.0902 -0.1873 -0.3122
 2107TIP3    H127736   0.215   3.951  14.628  1.0636  0.5640  0.1885
 2107TIP3    H227737   0.243   3.804  14.602  0.1179  0.1530  1.3838
 2108TIP3   OH227738   3.607   5.371  15.438  0.6884  0.7686 -0.5120
 2108TIP3    H127739   3.575   5.298  15.490  1.8331 -0.6576 -1.7040
 2108TIP3    H227740   3.588   5.449  15.490 -2.0321 -0.2049  0.0806
 2109TIP3   OH227741   4.983   2.720   3.564  0.1687  0.7196  0.0243
 2109TIP3    H127742   5.058   2.661   3.556 -0.2114  0.1125  0.7796
 2109TIP3    H227743   4.973   2.733   3.658 -1.7485 -0.6654  0.0773
 2110TIP3   OH227744   6.278   5.518   3.555  0.1072 -0.0667  0.2421
 2110TIP3    H127745   6.240   5.537   3.641 -0.1837  0.3186  0.0341
 2110TIP3    H227746   6.287   5.604   3.514  0.8514 -0.1854  0.1345
 2111TIP3   OH227747   1.382   5.640   4.388  0.7253  0.6817  0.4290
 2111TIP3    H127748   1.476   5.658   4.385  0.9642 -0.4985  0.3349
 2111TIP3    H227749   1.367   5.604   4.476  0.3485  0.9253  0.4675
 2112TIP3   OH227750   3.366   5.377  15.815 -0.2841  0.3464 -0.5218
 2112TIP3    H127751   3.421   5.425  15.877 -0.4207  0.2676 -0.3380
 2112TIP3    H227752   3.302   5.441  15.785 -1.1523  0.0127  0.5529
 2113TIP3   OH227753   6.466   0.598   3.105  0.2982  0.0099 -0.0262
 2113TIP3    H127754   6.387   0.614   3.157 -1.5462 -1.3668 -2.2337
 2113TIP3    H227755   6.482   0.681   3.060 -0.2466  0.1016 -0.0512
 2114TIP3   OH227756   3.523   2.581   3.320 -0.1204  0.1929  0.4903
 2114TIP3    H127757   3.585   2.595   3.391 -0.7382  1.8695  0.7471
 2114TIP3    H227758   3.449   2.538   3.361  0.8481 -1.9027  0.1646
 2115TIP3   OH227759   3.399   4.870   3.569  0.1555  0.3313 -0.2592
 2115TIP3    H127760   3.416   4.900   3.658  0.0294 -0.6540  0.1113
 2115TIP3    H227761   3.306   4.848   3.568  0.3653 -0.6100 -0.3267
 2116TIP3   OH227762   0.718   0.494  15.637  0.3539  0.0884  0.3767
 2116TIP3    H127763   0.789   0.441  15.600  0.2052  0.1450 -0.0044
 2116TIP3    H227764   0.720   0.575  15.586 -0.5859 -0.2861 -0.3077
 2117TIP3   OH227765   4.892   2.602  13.956 -0.1434  0.0328 -0.1169
 2117TIP3    H127766   4.927   2.690  13.967 -0.9808  0.0599  4.4517
 2117TIP3    H227767   4.815   2.599  14.013 -0.6812 -3.3769 -0.7883
 2118TIP3   OH227768   0.080   2.081   3.436 -0.9656 -0.4112 -0.1623
 2118TIP3    H127769   0.069   2.062   3.529 -0.5446 -0.1443 -0.0583
 2118TIP3    H227770   0.020   2.154   3.419 -0.4887  0.0324  0.0635
 2119TIP3   OH227771   3.406   0.997   2.148 -0.0977 -0.0153  0.5589
 2119TIP3    H127772   3.337   1.001   2.081  1.1861 -1.6695 -0.9572
 2119TIP3    H227773   3.450   1.082   2.142 -1.0851  0.5090  0.5417
 2120TIP3   OH227774   4.300   2.157  16.780  0.0762  0.8093  0.4766
 2120TIP3    H127775   4.205   2.170  16.780  0.0700  0.7925 -0.3905
 2120TIP3    H227776   4.322   2.141  16.689  1.1391  2.5099  0.3884
 2121TIP3   OH227777   1.891   3.905   5.845  0.0565  0.1142 -0.2245
 2121TIP3    H127778   1.845   3.940   5.922  0.0662  1.0615 -0.6408
 2121TIP3    H227779   1.821   3.888   5.782 -0.1935 -2.4833  0.6209
 2122TIP3   OH227780   3.360   2.121  16.696  0.0484 -0.2577  0.9431
 2122TIP3    H127781   3.454   2.130  16.714 -0.0506 -0.6775  1.7168
 2122TIP3    H227782   3.336   2.038  16.738 -0.4491 -0.6839 -0.1619
 2123TIP3   OH227783   2.708   1.777   3.697  0.0997 -0.4715  0.0135
 2123TIP3    H127784   2.648   1.792   3.771  0.1654  3.2706 -0.5002
 2123TIP3    H227785   2.660   1.809   3.621  1.3992 -0.8576 -0.9946
 2124TIP3   OH227786   6.230   0.479  14.964  0.3608  0.1500  0.0307
 2124TIP3    H127787   6.208   0.567  14.996 -1.4218  0.0492 -0.7610
 2124TIP3    H227788   6.216   0.422  15.039  0.3880  0.4116  0.2371
 2125TIP3   OH227789   3.306   0.657   3.837  0.2039 -0.1595  0.3121
 2125TIP3    H127790   3.336   0.566   3.829  1.1738  0.1424  0.4048
 2125TIP3    H227791   3.298   0.687   3.747 -0.7628 -0.5332  0.2634
 2126TIP3   OH227792   1.159   5.009  16.766  0.7961 -0.3829 -0.3970
 2126TIP3    H127793   1.142   4.917  16.748 -0.2521  0.1215 -2.2555
 2126TIP3    H227794   1.152   5.052  16.681 -2.5676  2.0024  0.8824
 2127TIP3   OH227795   2.587   0.425   5.058  0.0582  0.0554  0.2917
 2127TIP3    H127796   2.536   0.426   4.976  1.1229 -1.0814 -0.4145
 2127TIP3    H227797   2.533   0.375   5.119 -0.8104  1.0296  0.3427
 2128TIP3   OH227798   6.016   6.773   5.135  0.2081 -0.1487 -0.2446
 2128TIP3    H127799   6.032   6.867   5.123  0.3998 -0.2700 -1.0262
 2128TIP3    H227800   5.927   6.759   5.104 -0.0323 -0.1285  0.4307
 2129TIP3   OH227801   1.531   4.056   0.266  0.1226 -0.5156  0.1630
 2129TIP3    H127802   1.537   4.147   0.240  0.5303 -0.6129 -0.0991
 2129TIP3    H227803   1.611   4.039   0.315 -0.1988 -0.5903  0.6685
 2130TIP3   OH227804   3.632   6.165  10.373 -0.5468 -0.0346 -0.0422
 2130TIP3    H127805   3.548   6.191  10.409 -0.8756  0.6887 -1.2929
 2130TIP3    H227806   3.654   6.084  10.420  0.5238  2.3250  3.9973
 2131TIP3   OH227807   6.087   2.420   3.282 -0.8756  0.4987 -0.1045
 2131TIP3    H127808   6.034   2.483   3.331  0.4587  1.2307  0.4774
 2131TIP3    H227809   6.106   2.464   3.199 -1.7271 -0.0429 -0.5980
 2132TIP3   OH227810   4.465   1.592   0.443  0.9016  0.1284 -0.1372
 2132TIP3    H127811   4.416   1.652   0.387  1.1884 -0.2171 -0.7657
 2132TIP3    H227812   4.514   1.649   0.503 -0.5393  0.4772  0.7502
 2133TIP3   OH227813   3.454   0.783  12.243 -0.6287 -0.0383  0.0489
 2133TIP3    H127814   3.529   0.796  12.185 -0.7330 -0.9034 -0.2853
 2133TIP3    H227815   3.389   0.847  12.212 -0.7845 -0.6669 -0.9863
 2134TIP3   OH227816   0.325   3.252  11.285 -0.1327 -0.0372 -0.0646
 2134TIP3    H127817   0.395   3.225  11.345 -1.8039 -2.0392  1.0998
 2134TIP3    H227818   0.321   3.347  11.295  0.2777 -0.1971  2.3291
 2135TIP3   OH227819   4.633   5.699   2.036 -0.9989 -0.1178  0.0920
 2135TIP3    H127820   4.623   5.659   2.122  1.3763 -2.2580 -0.5187
 2135TIP3    H227821   4.569   5.653   1.981 -1.2618 -0.0209  0.3137
 2136TIP3   OH227822   0.677   6.069  12.295 -0.5255 -0.3999  0.4576
 2136TIP3    H127823   0.635   6.139  12.345 -1.4229 -0.0635 -0.7288
 2136TIP3    H227824   0.623   6.059  12.217  1.6120  0.0871 -1.1863
 2137TIP3   OH227825   3.536   5.480   5.878 -0.3306 -0.7001  0.3152
 2137TIP3    H127826   3.475   5.423   5.832  0.6767 -1.0693 -0.6189
 2137TIP3    H227827   3.543   5.441   5.966 -0.6588 -1.2418  0.1096
 2138TIP3   OH227828   0.623   2.507   2.028 -0.4739  0.7839  0.0527
 2138TIP3    H127829   0.604   2.447   2.100  1.9009 -0.0422  0.0821
 2138TIP3    H227830   0.582   2.466   1.952 -0.3259  0.0118  0.3790
 2139TIP3   OH227831   4.531   1.233   3.916  0.2821  0.2579  0.1247
 2139TIP3    H127832   4.583   1.154   3.930  1.3531  0.6023 -1.5143
 2139TIP3    H227833   4.549   1.287   3.993 -0.2773 -0.9808  1.1430
 2140TIP3   OH227834   0.272   4.278   3.241  0.4059 -0.4652 -0.1431
 2140TIP3    H127835   0.366   4.292   3.228  0.3411  1.6413  1.0731
 2140TIP3    H227836   0.230   4.322   3.167  0.3627 -0.5821 -0.1880
 2141TIP3   OH227837   4.456   5.217  16.754  0.2936  0.2220  0.1545
 2141TIP3    H127838   4.409   5.179  16.680 -0.5925 -1.6296  1.5803
 2141TIP3    H227839   4.531   5.262  16.715 -0.5414 -0.0666 -1.8866
 2142TIP3   OH227840   2.159   0.923  13.472  0.2356  0.1273 -0.0387
 2142TIP3    H127841   2.217   0.907  13.398 -2.3709 -2.3130 -1.7517
 2142TIP3    H227842   2.176   0.851  13.532  0.1517  0.3558  0.2624
 2143TIP3   OH227843   4.062   6.456   0.503  0.2421 -0.0670 -0.0064
 2143TIP3    H127844   4.077   6.501   0.420  0.7454 -0.0273  0.1024
 2143TIP3    H227845   4.138   6.398   0.513 -1.3331 -2.4936 -1.1553
 2144TIP3   OH227846   0.613   0.543  13.229 -0.1445 -0.0438 -0.1420
 2144TIP3    H127847   0.648   0.615  13.281  0.7357 -0.1685 -0.5501
 2144TIP3    H227848   0.675   0.471  13.241  0.0358 -0.1075 -1.2677
 2145TIP3   OH227849   4.252   3.691   4.771 -0.6599  0.2696 -0.9721
 2145TIP3    H127850   4.192   3.629   4.731  0.7861 -2.3913  0.7036
 2145TIP3    H227851   4.202   3.773   4.778 -3.5529 -1.3724 -0.9557
 2146TIP3   OH227852   0.155   2.538  14.038  0.0515 -0.5988  0.0238
 2146TIP3    H127853   0.076   2.582  14.067  0.2548 -1.8646  2.7686
 2146TIP3    H227854   0.215   2.609  14.015 -1.6478  0.3755 -1.6364
 2147TIP3   OH227855   0.193   3.449   4.346 -0.0110 -0.6432 -0.3544
 2147TIP3    H127856   0.226   3.359   4.350 -0.9935 -1.0109 -0.3330
 2147TIP3    H227857   0.151   3.463   4.430  1.7745  0.5157  0.4021
 2148TIP3   OH227858   2.849   2.645   4.569  0.3293 -0.0439 -0.3252
 2148TIP3    H127859   2.891   2.730   4.554 -1.9034  1.0782 -0.6300
 2148TIP3    H227860   2.918   2.591   4.608  1.4230  2.3733  1.3549
 2149TIP3   OH227861   6.209   4.019  11.860 -0.2282  0.4602 -0.3004
 2149TIP3    H127862   6.174   3.965  11.931 -3.5866  0.0320 -2.0659
 2149TIP3    H227863   6.192   4.109  11.888  0.5504  0.4081  0.3772
 2150TIP3   OH227864   5.810   0.978  12.592 -0.6288  0.1526  0.5220
 2150TIP3    H127865   5.882   1.040  12.603 -0.4262  0.9043 -3.4671
 2150TIP3    H227866   5.732   1.034  12.589 -0.9163 -0.2299  0.8317
 2151TIP3   OH227867   1.290   1.291   6.020 -0.0249  0.2252 -0.2284
 2151TIP3    H127868   1.253   1.377   6.042 -0.1357  0.8772 -2.6245
 2151TIP3    H227869   1.385   1.303   6.028 -0.0575  0.4730 -0.1919
 2152TIP3   OH227870   1.955   2.230  15.697  0.4858 -0.1010  0.3046
 2152TIP3    H127871   1.938   2.140  15.668  1.8267 -0.5765  0.9550
 2152TIP3    H227872   1.891   2.245  15.767  2.1625 -1.6600  2.3083
 2153TIP3   OH227873   3.506   1.530  13.903  0.2128 -0.3349 -0.9507
 2153TIP3    H127874   3.537   1.528  13.993  1.1184 -0.3707 -1.2548
 2153TIP3    H227875   3.523   1.619  13.874 -0.7403 -0.1165 -0.8680
 2154TIP3   OH227876   6.616   0.827  10.885  0.1554 -0.4592  0.1008
 2154TIP3    H127877   6.618   0.922  10.872  0.8167 -0.4398  0.3167
 2154TIP3    H227878   6.525   0.808  10.907  0.0893  0.1736  0.3993
 2155TIP3   OH227879   2.536   2.274   2.473 -0.6014  0.4274 -0.4964
 2155TIP3    H127880   2.471   2.337   2.441 -0.9404 -0.1206 -0.9074
 2155TIP3    H227881   2.563   2.226   2.395 -1.7473 -1.2131  0.0649
 2156TIP3   OH227882   4.545   2.895   2.700 -0.2206 -0.5145 -0.1078
 2156TIP3    H127883   4.507   2.875   2.615  1.1287  2.2095 -1.4934
 2156TIP3    H227884   4.494   2.969   2.733 -2.1548 -2.8635  2.6240
 2157TIP3   OH227885   4.030   0.362  13.647 -0.0983  0.1005 -0.2057
 2157TIP3    H127886   3.988   0.318  13.721 -0.6883 -2.0196 -1.7051
 2157TIP3    H227887   4.114   0.316  13.637  0.1018  0.5559 -0.6857
 2158TIP3   OH227888   2.084   2.685  14.061  0.6363  0.2480  0.1608
 2158TIP3    H127889   2.051   2.770  14.032  0.4159 -0.4219 -1.6967
 2158TIP3    H227890   2.068   2.683  14.155 -0.1843  1.8917  0.0783
 2159TIP3   OH227891   5.235   4.147  16.057 -0.0496  0.3480 -0.3029
 2159TIP3    H127892   5.218   4.071  16.002 -0.7101 -0.1255  0.5287
 2159TIP3    H227893   5.163   4.147  16.121 -1.3409  2.9286 -1.6110
 2160TIP3   OH227894   5.140   4.829  11.928 -0.6881 -0.0886  0.1935
 2160TIP3    H127895   5.216   4.871  11.968 -0.1499 -0.4148 -0.4547
 2160TIP3    H227896   5.126   4.749  11.978  0.6864 -1.0809 -0.9179
 2161TIP3   OH227897   3.405   4.684  11.406  0.0380  0.0246  0.8011
 2161TIP3    H127898   3.423   4.725  11.321 -1.0669 -1.3774 -0.1439
 2161TIP3    H227899   3.491   4.673  11.446  0.6735 -0.1649 -0.5599
 2162TIP3   OH227900   6.212   0.619  13.513 -0.6238  0.4232 -0.2358
 2162TIP3    H127901   6.124   0.616  13.473 -0.7058 -1.5963 -0.0005
 2162TIP3    H227902   6.204   0.681  13.585 -1.4154  1.4899 -1.2169
 2163TIP3   OH227903   6.170   6.276  15.119 -0.2881 -0.2042  0.2177
 2163TIP3    H127904   6.090   6.327  15.106  0.1840  0.1477 -1.7550
 2163TIP3    H227905   6.153   6.192  15.075  0.4791 -0.0182 -0.4809
 2164TIP3   OH227906   0.716   6.432  11.132  0.4706 -0.3708 -0.7228
 2164TIP3    H127907   0.799   6.413  11.089 -0.0383  0.0777 -1.9392
 2164TIP3    H227908   0.650   6.391  11.077 -0.0909 -1.2823  0.5833
 2165TIP3   OH227909   3.805   6.814   1.443 -0.0234 -0.1042 -0.5120
 2165TIP3    H127910   3.838   6.737   1.397  1.9351  0.0299  0.5574
 2165TIP3    H227911   3.883   6.861   1.470 -1.1517  1.1855  0.6743
 2166TIP3   OH227912   2.176   2.905   0.544 -0.1408 -0.0151 -0.2138
 2166TIP3    H127913   2.084   2.883   0.528 -0.5060 -0.1873  1.8133
 2166TIP3    H227914   2.220   2.820   0.548  0.6029  0.1055 -3.3694
 2167TIP3   OH227915   3.715   2.427  14.730  0.2452  0.1187 -0.1772
 2167TIP3    H127916   3.635   2.383  14.757  0.3677 -0.1230 -0.2036
 2167TIP3    H227917   3.730   2.494  14.797 -0.3162  0.5785 -0.5132
 2168TIP3   OH227918   5.080   0.831  14.996  0.8352 -0.4141 -0.3217
 2168TIP3    H127919   4.995   0.791  14.977  0.2216  0.5459  0.3104
 2168TIP3    H227920   5.080   0.911  14.944  0.8969  0.1299  0.5157
 2169TIP3   OH227921   6.276   1.977  11.992  0.6861  0.1529  0.6863
 2169TIP3    H127922   6.267   1.924  11.913  1.1772 -0.6042  1.1274
 2169TIP3    H227923   6.358   1.949  12.031  0.4116  0.4589  1.5124
 2170TIP3   OH227924   1.127   3.982  15.298  0.3805  0.4085  0.1224
 2170TIP3    H127925   1.055   4.041  15.320  1.1340  1.3541  0.0923
 2170TIP3    H227926   1.122   3.913  15.364 -0.9398  0.1065 -0.2575
 2171TIP3   OH227927   3.090   5.729  10.875  0.2805  0.0382  0.1274
 2171TIP3    H127928   3.038   5.775  10.809  0.4743 -0.4034 -0.3413
 2171TIP3    H227929   3.028   5.709  10.945  0.2378  1.1597  0.4172
 2172TIP3   OH227930   3.106   4.702   1.978  0.4181  0.1537  0.6258
 2172TIP3    H127931   3.164   4.778   1.975  0.5152  0.0463 -0.7171
 2172TIP3    H227932   3.019   4.738   1.997  0.5087  0.5665  0.2460
 2173TIP3   OH227933   1.352   5.985   4.726  0.0580  0.0906 -0.0327
 2173TIP3    H127934   1.355   5.974   4.631 -1.7139  1.1648 -0.2565
 2173TIP3    H227935   1.277   5.933   4.754 -0.4551  1.1165  0.5445
 2174TIP3   OH227936   2.367   6.382  12.436 -0.1944 -0.3843  0.2939
 2174TIP3    H127937   2.330   6.298  12.409 -1.5347 -0.0577  1.0094
 2174TIP3    H227938   2.461   6.366  12.444 -0.3148 -1.5632 -0.4585
 2175TIP3   OH227939   5.858   5.461   0.032  0.5510  0.2801 -0.4886
 2175TIP3    H127940   5.821   5.508   0.107 -0.8072 -0.7756 -0.4718
 2175TIP3    H227941   5.850   5.523  -0.041 -1.3617  0.0504 -0.5032
 2176TIP3   OH227942   0.670   3.898  17.028  0.1626 -0.0369  0.2458
 2176TIP3    H127943   0.643   3.917  16.938 -0.9691 -2.8806 -0.1014
 2176TIP3    H227944   0.763   3.923  17.030  1.2982 -3.0927 -2.9016
 2177TIP3   OH227945   1.891   5.945  15.549 -0.2382 -0.1943 -0.2348
 2177TIP3    H127946   1.931   5.934  15.635 -0.8400 -0.0071  0.0749
 2177TIP3    H227947   1.797   5.929  15.564 -0.2697 -0.7636 -0.9665
 2178TIP3   OH227948   5.134   1.348   0.392 -0.1617 -0.4142  0.3037
 2178TIP3    H127949   5.158   1.400   0.315 -0.1121 -0.9353 -0.0331
 2178TIP3    H227950   5.167   1.399   0.466 -0.0434 -0.0022 -0.0290
 2179TIP3   OH227951   2.324   4.511   0.884 -0.3604  0.1926  0.3635
 2179TIP3    H127952   2.383   4.583   0.906  1.2625 -0.6904 -0.8541
 2179TIP3    H227953   2.326   4.455   0.962  1.2639 -0.3303 -0.0151
 2180TIP3   OH227954   2.453   4.809   4.174 -0.5010 -0.1329 -0.2677
 2180TIP3    H127955   2.370   4.812   4.222  0.6002 -1.0568  1.8472
 2180TIP3    H227956   2.465   4.717   4.152  0.1260 -0.0644 -0.2201
 2181TIP3   OH227957   0.042   3.264   3.887 -0.3559 -0.0210 -0.2479
 2181TIP3    H127958   0.073   3.331   3.948 -0.1138 -0.5650  0.2321
 2181TIP3    H227959  -0.032   3.305   3.843 -0.4035  0.4533  0.2581
 2182TIP3   OH227960   2.569   5.863   1.039 -0.2994  0.1780  0.5497
 2182TIP3    H127961   2.611   5.905   0.963  0.5400  0.6383  1.2446
 2182TIP3    H227962   2.638   5.861   1.106 -0.6754 -1.2621  0.9303
 2183TIP3   OH227963   1.263   4.215   0.080 -0.0082  0.0883 -0.1849
 2183TIP3    H127964   1.194   4.215   0.146  0.4640 -0.7066  0.3341
 2183TIP3    H227965   1.288   4.123   0.072  0.5983  0.2981 -0.7756
 2184TIP3   OH227966   4.063   1.082   1.161 -0.2099  0.2609  0.4446
 2184TIP3    H127967   4.154   1.064   1.182 -0.8862 -1.3420  2.3389
 2184TIP3    H227968   4.067   1.151   1.094  2.3589 -0.1016  0.1142
 2185TIP3   OH227969   5.763   0.726  10.897 -0.0288  0.0906 -0.2829
 2185TIP3    H127970   5.730   0.642  10.929  2.3637 -0.9961 -0.4502
 2185TIP3    H227971   5.768   0.782  10.975  1.3749 -1.0105  0.4578
 2186TIP3   OH227972   1.757   2.765  11.375  0.7935 -0.5558  0.0740
 2186TIP3    H127973   1.756   2.705  11.301  0.9651 -1.0259  0.4540
 2186TIP3    H227974   1.672   2.753  11.418 -0.2524  1.3034 -1.2989
 2187TIP3   OH227975   3.146   2.277   2.337  0.0475  0.6051  0.0389
 2187TIP3    H127976   3.097   2.225   2.273 -2.5180 -0.0850  2.3733
 2187TIP3    H227977   3.165   2.359   2.292 -0.8493 -0.1777 -1.8790
 2188TIP3   OH227978   2.338   2.243  13.214 -0.5877 -0.4802 -1.1449
 2188TIP3    H127979   2.431   2.259  13.200 -0.2474  2.1653  2.7278
 2188TIP3    H227980   2.334   2.151  13.240  1.2819 -0.1595  0.4975
 2189TIP3   OH227981   6.709   2.268  12.856  0.0222  0.3290  0.0312
 2189TIP3    H127982   6.758   2.336  12.902 -0.8059 -0.1236  1.6490
 2189TIP3    H227983   6.766   2.191  12.859 -0.2461  0.1493  0.8181
 2190TIP3   OH227984   6.089   4.004  13.297  0.3853  0.0262 -0.2190
 2190TIP3    H127985   6.018   4.025  13.236 -1.0284 -1.0653  0.9738
 2190TIP3    H227986   6.150   4.077  13.289 -1.3643  1.5277 -0.5568
 2191TIP3   OH227987   5.917   1.956  13.730  0.0740  0.5999  0.1480
 2191TIP3    H127988   5.832   1.917  13.708  1.5701 -2.2220 -1.2973
 2191TIP3    H227989   5.946   1.996  13.649  0.8348  0.0630  0.1512
 2192TIP3   OH227990   3.029   0.896  12.279 -0.6372  0.1919 -0.2742
 2192TIP3    H127991   3.095   0.826  12.279 -1.2085 -0.3662 -0.9314
 2192TIP3    H227992   3.036   0.936  12.366  1.0984  0.6697 -0.6063
 2193TIP3   OH227993   0.406   6.467   0.436 -0.3876 -0.4694  0.6743
 2193TIP3    H127994   0.434   6.543   0.486  2.7412 -0.1357 -1.3448
 2193TIP3    H227995   0.329   6.497   0.387 -0.8519  0.4851  1.9408
 2194TIP3   OH227996   1.162   1.147   0.916 -0.3744  0.1767  0.0243
 2194TIP3    H127997   1.219   1.128   0.990  0.3977  0.6857 -0.4222
 2194TIP3    H227998   1.132   1.237   0.930 -2.1665 -0.5064  0.9417
 2195TIP3   OH227999   5.641   3.055  14.094 -0.5834 -0.1225  0.4626
 2195TIP3    H128000   5.644   3.147  14.070 -0.3441 -0.3014 -0.2067
 2195TIP3    H228001   5.547   3.033  14.094 -0.5457 -0.5438 -2.0404
 2196TIP3   OH228002   6.716   4.741  10.857 -0.5380 -0.1083  0.3852
 2196TIP3    H128003   6.736   4.672  10.795 -0.1580 -0.9345  1.4064
 2196TIP3    H228004   6.780   4.730  10.927 -0.8870  0.8768  0.8816
 2197TIP3   OH228005   0.695   4.458  16.182 -0.7393 -0.2036 -0.5686
 2197TIP3    H128006   0.655   4.458  16.269  0.9056  1.5538  0.2490
 2197TIP3    H228007   0.629   4.498  16.125 -0.9990  0.6615  0.3166
 2198TIP3   OH228008   2.147   2.048  11.736  0.0855  0.1309  0.2677
 2198TIP3    H128009   2.153   2.119  11.800  0.8112 -1.0598  1.5659
 2198TIP3    H228010   2.238   2.036  11.707 -0.0237 -0.3253  0.1190
 2199TIP3   OH228011   2.554   0.042   4.230 -0.3984 -0.1825 -0.3396
 2199TIP3    H128012   2.478  -0.017   4.231  0.0533 -0.8386 -1.4787
 2199TIP3    H228013   2.588   0.039   4.319 -1.1148 -0.6930 -0.0716
 2200TIP3   OH228014   0.497   0.258   3.638 -0.1299 -0.2668  0.2607
 2200TIP3    H128015   0.474   0.219   3.554 -0.7475 -0.2321  0.4088
 2200TIP3    H228016   0.416   0.256   3.689 -0.4264  1.9152  0.0038
 2201TIP3   OH228017   4.086   4.580  12.651 -0.5127  0.4666  0.4574
 2201TIP3    H128018   4.016   4.563  12.588  0.9530  2.1457 -1.7529
 2201TIP3    H228019   4.041   4.617  12.727 -2.2213 -0.5321 -0.0155
 2202TIP3   OH228020   4.533   1.084  16.775 -0.6922  0.8642  0.7388
 2202TIP3    H128021   4.581   1.038  16.707  0.1005  0.2357  1.6846
 2202TIP3    H228022   4.533   1.175  16.747 -0.9319  0.5308 -0.3987
 2203TIP3   OH228023   1.702   2.822  16.619 -0.1409 -0.2201 -0.2108
 2203TIP3    H128024   1.631   2.857  16.672 -2.6324  0.6988 -3.8104
 2203TIP3    H228025   1.748   2.900  16.586  0.9145 -0.7315  0.0045
 2204TIP3   OH228026   0.652   4.107  11.996  0.2689 -0.0910  0.7745
 2204TIP3    H128027   0.725   4.090  12.055  0.2780 -0.0883  0.7638
 2204TIP3    H228028   0.576   4.113  12.054  0.6336  2.5936  1.1161
 2205TIP3   OH228029   2.424   6.646  15.970  0.0315 -0.3802 -0.2543
 2205TIP3    H128030   2.505   6.657  15.920  0.5241 -0.5406  0.4955
 2205TIP3    H228031   2.364   6.709  15.931  0.9929  0.8531  0.1572
 2206TIP3   OH228032   1.760   2.983   4.124  0.2281 -0.0248 -0.0930
 2206TIP3    H128033   1.712   2.986   4.207 -0.6608 -0.6772 -0.5736
 2206TIP3    H228034   1.755   2.892   4.096  0.4414  0.2075 -0.9241
 2207TIP3   OH228035   3.769   1.809  10.608  1.1442 -0.1792  0.2287
 2207TIP3    H128036   3.797   1.749  10.539  0.1719 -0.8640  0.3949
 2207TIP3    H228037   3.678   1.830  10.585  1.2211  0.5841  0.6190
 2208TIP3   OH228038   5.540   3.078  12.339  0.3892  0.2213 -0.1143
 2208TIP3    H128039   5.539   3.169  12.368  0.8007  0.3298 -0.4348
 2208TIP3    H228040   5.566   3.082  12.247  0.7033 -0.2399 -0.0498
 2209TIP3   OH228041   0.573   5.394   0.455  0.8004  0.4456 -0.0791
 2209TIP3    H128042   0.575   5.298   0.463 -1.3256  0.4325  0.8656
 2209TIP3    H228043   0.637   5.424   0.518  1.8658 -0.3345 -0.7381
 2210TIP3   OH228044   6.468   2.907  11.574 -0.2249 -0.1674  0.0566
 2210TIP3    H128045   6.411   2.964  11.522 -0.0626  1.7254  1.8101
 2210TIP3    H228046   6.552   2.910  11.529 -1.2302 -2.5565 -2.2561
 2211TIP3   OH228047   4.522   0.327  14.449  0.0796  0.5914 -0.2093
 2211TIP3    H128048   4.510   0.238  14.417  1.4976  0.2074  0.2712
 2211TIP3    H228049   4.617   0.336  14.462 -0.0910  1.9792  0.2846
 2212TIP3   OH228050   0.365   2.140   3.312 -0.1897  0.3313 -0.1348
 2212TIP3    H128051   0.281   2.161   3.352 -0.8535 -0.8211 -0.8751
 2212TIP3    H228052   0.384   2.213   3.254  0.5336  1.7819  1.8169
 2213TIP3   OH228053   3.112   5.026   3.459 -0.0679  0.0761 -0.1609
 2213TIP3    H128054   3.192   5.078   3.457  0.7280 -1.0665 -3.5767
 2213TIP3    H228055   3.045   5.081   3.417 -0.5732  0.2053  0.7710
 2214TIP3   OH228056   0.801   1.373  16.002  0.7584 -0.4122 -0.0289
 2214TIP3    H128057   0.860   1.425  15.948 -1.7269 -1.1056 -3.8165
 2214TIP3    H228058   0.772   1.432  16.071  1.0277  1.9978 -1.8539
 2215TIP3   OH228059   2.720   1.029   1.815 -0.1330  0.0001  0.5340
 2215TIP3    H128060   2.673   1.112   1.816 -1.0766 -0.3361 -2.6648
 2215TIP3    H228061   2.667   0.973   1.758  1.9277 -1.8454  0.2943
 2216TIP3   OH228062   1.569   3.819  12.692  0.4451 -0.2953 -0.4290
 2216TIP3    H128063   1.649   3.870  12.705  1.5913 -1.9975 -0.5170
 2216TIP3    H228064   1.543   3.792  12.780 -0.5112  0.8963 -0.3199
 2217TIP3   OH228065   1.936   3.637  11.166  0.2059  0.0832 -0.2398
 2217TIP3    H128066   1.854   3.589  11.181 -0.3563  0.6843 -1.2606
 2217TIP3    H228067   2.003   3.583  11.208 -0.6163 -0.7834  0.0079
 2218TIP3   OH228068   6.338   4.994  11.740 -0.3659  0.0554  0.1604
 2218TIP3    H128069   6.433   4.983  11.743 -0.3266  0.2008 -0.4206
 2218TIP3    H228070   6.315   5.031  11.826 -0.3310 -3.0440  1.6675
 2219TIP3   OH228071   3.668   1.684  14.677 -0.5763 -0.2536 -0.4949
 2219TIP3    H128072   3.649   1.591  14.691  0.4856 -0.6263 -1.3847
 2219TIP3    H228073   3.614   1.708  14.602  0.8128 -0.7567 -1.6830
 2220TIP3   OH228074   0.956   1.398  14.176  0.0956  0.1462  0.5026
 2220TIP3    H128075   1.001   1.318  14.204  0.3046  0.2573  0.4858
 2220TIP3    H228076   0.978   1.407  14.084  0.7313  0.6606  0.7011
 2221TIP3   OH228077   5.232   2.669  16.984 -0.4136  0.5477  0.1079
 2221TIP3    H128078   5.246   2.760  16.958  0.6661  1.0811  2.2935
 2221TIP3    H228079   5.295   2.654  17.055 -1.4817 -1.4941  0.7116
 2222TIP3   OH228080   3.711   5.105  13.374  0.6817  0.2842 -0.3971
 2222TIP3    H128081   3.720   5.105  13.278  0.6496  0.1468 -0.4015
 2222TIP3    H228082   3.730   5.014  13.399 -1.6096 -0.2933 -0.4930
 2223TIP3   OH228083   1.746   5.582  13.647 -0.3927  0.0972 -0.0498
 2223TIP3    H128084   1.826   5.616  13.686 -0.9920  0.8585  0.5440
 2223TIP3    H228085   1.729   5.501  13.695 -0.7679  0.6893  0.8551
 2224TIP3   OH228086   4.627   1.720  12.508  0.3598 -0.5687 -0.0763
 2224TIP3    H128087   4.549   1.735  12.455  0.3220 -0.6666 -0.0480
 2224TIP3    H228088   4.690   1.785  12.476 -0.1935  0.4646  0.8481
 2225TIP3   OH228089   3.796   1.888   4.814  0.3057 -0.3104 -0.0793
 2225TIP3    H128090   3.740   1.902   4.890  1.1324 -0.9371  0.6545
 2225TIP3    H228091   3.862   1.957   4.820  1.0891 -1.1006  0.4487
 2226TIP3   OH228092   1.154   3.222  11.254  0.5944  0.4744  0.3929
 2226TIP3    H128093   1.183   3.287  11.190  1.6871 -0.9247 -0.5913
 2226TIP3    H228094   1.223   3.222  11.321 -0.2877  1.5597  1.3440
 2227TIP3   OH228095   1.253   0.567  11.251  0.1066  0.6976 -0.1547
 2227TIP3    H128096   1.267   0.659  11.228 -1.8987  1.7618  2.3659
 2227TIP3    H228097   1.167   0.546  11.215  0.8147 -0.4666 -1.2691
 2228TIP3   OH228098   2.460   0.446  12.376  0.3680  0.3056  0.3198
 2228TIP3    H128099   2.531   0.506  12.395  2.0924 -1.4391 -0.3065
 2228TIP3    H228100   2.404   0.450  12.454  1.1115  1.7291  0.8143
 2229TIP3   OH228101   4.778   1.749  16.271 -0.2288  0.2228  0.1063
 2229TIP3    H128102   4.748   1.660  16.290  0.3006  0.1342  0.5728
 2229TIP3    H228103   4.758   1.762  16.179 -1.3555  0.0426  0.3060
 2230TIP3   OH228104   0.527   5.924  16.491 -0.3974  0.0053  0.2073
 2230TIP3    H128105   0.498   5.833  16.496 -1.1209  0.1388 -1.0584
 2230TIP3    H228106   0.622   5.919  16.486 -0.4408 -0.6852 -0.0264
 2231TIP3   OH228107   3.035   1.537   1.835 -0.0783 -0.0454  0.4965
 2231TIP3    H128108   3.058   1.463   1.779 -1.8670 -0.6012  0.4242
 2231TIP3    H228109   2.953   1.570   1.799  0.4174  1.6632  0.8486
 2232TIP3   OH228110   6.333   2.949   2.231 -0.7826  0.2361 -0.5174
 2232TIP3    H128111   6.254   2.941   2.178 -1.0844  3.7095 -0.8020
 2232TIP3    H228112   6.340   3.042   2.251  2.5103 -0.1241  0.6800
 2233TIP3   OH228113   4.344   5.855   3.203 -0.4169  0.0148 -0.4639
 2233TIP3    H128114   4.353   5.806   3.121  2.1820  0.5920 -0.6174
 2233TIP3    H228115   4.378   5.942   3.182 -2.1995  1.0222  0.5796
 2234TIP3   OH228116   0.673   2.635   3.069 -0.2571  0.6335 -0.2020
 2234TIP3    H128117   0.664   2.703   3.136  0.1983 -1.4295  2.0687
 2234TIP3    H228118   0.756   2.592   3.090 -0.5725 -0.6957 -1.5282
 2235TIP3   OH228119   1.752   1.235  11.438  0.0193 -0.5004  0.1764
 2235TIP3    H128120   1.689   1.201  11.375 -0.2551  0.9757 -0.3966
 2235TIP3    H228121   1.705   1.304  11.485  1.3538  1.1776 -0.7888
 2236TIP3   OH228122   5.682   6.030   3.881 -0.3749 -0.0565  0.1743
 2236TIP3    H128123   5.700   5.937   3.863 -1.3020 -0.2990  0.4348
 2236TIP3    H228124   5.622   6.028   3.955 -1.0313  0.7217 -0.3212
 2237TIP3   OH228125   4.181   0.939  13.227  0.5623  0.0083  0.1234
 2237TIP3    H128126   4.103   0.893  13.259 -0.2997  2.1526  1.3125
 2237TIP3    H228127   4.149   0.993  13.155  1.0492  0.5728  0.3301
 2238TIP3   OH228128   6.421   5.248  13.009 -0.2461 -0.6836 -0.1929
 2238TIP3    H128129   6.367   5.327  13.002 -0.4394 -0.5847  1.7994
 2238TIP3    H228130   6.449   5.247  13.101  2.0744 -1.4423 -0.8636
 2239TIP3   OH228131   2.398   1.331  13.731  0.5176 -0.3399  0.2197
 2239TIP3    H128132   2.325   1.298  13.784 -0.1121 -0.2614 -0.5922
 2239TIP3    H228133   2.449   1.254  13.710  2.4452 -0.1010  3.3334
 2240TIP3   OH228134   4.109   1.363  15.074  0.3085 -0.8665 -0.3114
 2240TIP3    H128135   4.038   1.328  15.020 -0.3297  0.3111 -0.2557
 2240TIP3    H228136   4.155   1.285  15.105 -0.0552 -1.6102 -1.5417
 2241TIP3   OH228137   4.370   3.973   1.507  0.3852  0.2751  0.4874
 2241TIP3    H128138   4.284   3.933   1.495  0.1326  1.0305 -0.2804
 2241TIP3    H228139   4.396   4.002   1.420  1.7924 -0.6704  0.5645
 2242TIP3   OH228140   0.483   0.273   5.437 -0.0294  0.3743 -0.5082
 2242TIP3    H128141   0.501   0.357   5.393  1.0051  0.6971  0.4955
 2242TIP3    H228142   0.391   0.278   5.460  0.4020  2.0033  1.0643
 2243TIP3   OH228143   5.315   0.825   0.785 -0.9442 -0.4654  0.2007
 2243TIP3    H128144   5.371   0.902   0.784 -1.5590  0.1430  3.0642
 2243TIP3    H228145   5.249   0.842   0.718 -0.2935  0.8439 -0.1350
 2244TIP3   OH228146   2.110   3.986  12.957 -0.1051  0.1938  0.3808
 2244TIP3    H128147   2.063   3.923  12.902  0.1417  1.2997 -1.1735
 2244TIP3    H228148   2.049   4.006  13.028 -2.0569  1.5424 -1.5412
 2245TIP3   OH228149   0.434   4.129   0.137  0.1280  0.7653 -0.1422
 2245TIP3    H128150   0.429   4.194   0.206 -1.2013  0.2755  0.2467
 2245TIP3    H228151   0.423   4.179   0.056 -1.6751  0.9513  0.1941
 2246TIP3   OH228152   0.861   1.801  12.173  0.4470  0.1264  0.5629
 2246TIP3    H128153   0.798   1.873  12.178 -0.4859 -0.6510  0.2869
 2246TIP3    H228154   0.848   1.763  12.086 -0.1289 -1.2758  1.2179
 2247TIP3   OH228155   2.605   2.238   1.186  0.1123  0.6524  0.5014
 2247TIP3    H128156   2.615   2.149   1.221 -1.1019 -0.1202 -0.9854
 2247TIP3    H228157   2.601   2.294   1.264  1.4796 -0.5037  1.4552
 2248TIP3   OH228158   2.482   2.480  11.440 -0.3528  0.2601 -0.2683
 2248TIP3    H128159   2.494   2.568  11.404 -2.8881  1.1920  0.9480
 2248TIP3    H228160   2.393   2.456  11.416 -0.3249 -1.2327  0.9685
 2249TIP3   OH228161   1.511   6.499   3.093 -0.1643  0.1812  0.3975
 2249TIP3    H128162   1.554   6.422   3.055  2.2377 -0.2745  3.5669
 2249TIP3    H228163   1.418   6.475   3.098 -0.0457 -1.0154 -1.8315
 2250TIP3   OH228164   3.785   6.278   2.442 -0.3625 -0.0481  0.3278
 2250TIP3    H128165   3.729   6.331   2.387  0.2697  1.2878  0.9330
 2250TIP3    H228166   3.852   6.338   2.474 -0.2550 -0.9537  1.9279
 2251TIP3   OH228167   0.694   6.528  16.150  0.4578 -0.3479  1.0169
 2251TIP3    H128168   0.664   6.615  16.124 -0.3668 -0.6336  0.9993
 2251TIP3    H228169   0.742   6.495  16.074 -2.0143 -1.2226 -0.2968
 2252TIP3   OH228170   2.128   2.749   5.301  0.3042 -0.3056  0.0744
 2252TIP3    H128171   2.041   2.709   5.297  0.1793 -0.1187  0.8034
 2252TIP3    H228172   2.134   2.784   5.390  0.9553  0.0685 -0.1126
 2253TIP3   OH228173   5.704   5.972  12.010 -0.2782  0.1305 -0.0408
 2253TIP3    H128174   5.773   6.002  12.070  0.6161  1.7432 -1.7761
 2253TIP3    H228175   5.626   5.965  12.065  0.7878  0.2499  1.5626
 2254TIP3   OH228176   3.116   4.442   3.041  0.2772 -0.5292  0.4696
 2254TIP3    H128177   3.178   4.373   3.020 -0.2913 -0.9356  0.0970
 2254TIP3    H228178   3.035   4.416   2.997 -0.3164 -0.2859  1.3818
 2255TIP3   OH228179   4.615   6.315  10.617 -0.0480  0.3626 -0.4722
 2255TIP3    H128180   4.621   6.352  10.705 -1.6728 -1.4169  0.4549
 2255TIP3    H228181   4.706   6.298  10.592  0.4090  0.0410  1.2579
 2256TIP3   OH228182   6.542   5.806  16.105 -0.4702  0.6812  0.0913
 2256TIP3    H128183   6.559   5.856  16.185 -0.2230  1.2555 -0.3077
 2256TIP3    H228184   6.562   5.868  16.034  0.5721 -0.2235 -0.4301
 2257TIP3   OH228185   3.014   6.596  16.906  0.4984 -0.2744  0.1901
 2257TIP3    H128186   3.012   6.570  16.998 -0.2039  0.9220  0.5331
 2257TIP3    H228187   3.088   6.657  16.899  0.4142 -0.1907  0.0039
 2258TIP3   OH228188   2.188   1.315  11.225  0.0987  0.5241  0.2593
 2258TIP3    H128189   2.281   1.308  11.245  0.2863  1.6415 -0.1569
 2258TIP3    H228190   2.185   1.359  11.140 -0.7984 -0.0087  0.0063
 2259TIP3   OH228191   6.018   3.123  11.455 -0.2970 -0.3108  0.1459
 2259TIP3    H128192   5.978   3.112  11.368 -0.9893 -3.3549  0.7279
 2259TIP3    H228193   5.944   3.120  11.516  0.3018  0.4173  0.9399
 2260TIP3   OH228194   3.989   2.837  16.121 -0.4894 -0.0558  0.3484
 2260TIP3    H128195   4.083   2.822  16.122 -0.5311 -0.3023  0.5389
 2260TIP3    H228196   3.972   2.889  16.199 -0.6894 -1.0952  1.0093
 2261TIP3   OH228197   4.889   1.860   4.105  0.0409  0.5311  0.0484
 2261TIP3    H128198   4.937   1.792   4.152  0.3038 -0.6548 -1.8273
 2261TIP3    H228199   4.950   1.933   4.098  0.1556  0.5527  1.1001
 2262TIP3   OH228200   6.164   6.798  16.440 -0.0467  0.1898 -0.6619
 2262TIP3    H128201   6.254   6.795  16.472  0.4736  4.2073 -1.2595
 2262TIP3    H228202   6.158   6.724  16.378  2.7014 -0.3827 -0.3481
 2263TIP3   OH228203   5.063   1.129   1.701 -0.7885  0.2334 -0.1576
 2263TIP3    H128204   5.151   1.092   1.696 -1.6699 -2.4478  1.9563
 2263TIP3    H228205   5.067   1.190   1.774 -0.7129  0.0745 -0.0294
 2264TIP3   OH228206   5.920   1.832  15.607 -0.2184  0.4712 -0.4036
 2264TIP3    H128207   5.991   1.871  15.556  0.0180 -0.9722 -1.2436
 2264TIP3    H228208   5.871   1.780  15.544 -0.2214 -0.9701  0.7275
 2265TIP3   OH228209   0.934   4.261   6.239  0.1262  0.1381  0.1778
 2265TIP3    H128210   0.918   4.180   6.289  2.0630 -1.1527 -1.1570
 2265TIP3    H228211   1.017   4.295   6.274  0.1837  0.6207 -0.4040
 2266TIP3   OH228212   6.144   0.289  12.381 -0.3256  0.5232  0.3726
 2266TIP3    H128213   6.178   0.377  12.398 -1.2783  0.9175  0.3140
 2266TIP3    H228214   6.121   0.255  12.468 -0.8791  0.7182  0.3008
 2267TIP3   OH228215   2.238   4.108   4.486  0.0077  0.5638  0.3279
 2267TIP3    H128216   2.267   4.181   4.541  1.4483 -0.3445  0.8313
 2267TIP3    H228217   2.166   4.068   4.536 -0.1718  1.0718  0.4872
 2268TIP3   OH228218   4.273   0.779   0.884  0.2768 -0.5256 -0.1227
 2268TIP3    H128219   4.210   0.790   0.813  0.6154 -2.2221 -0.7477
 2268TIP3    H228220   4.355   0.812   0.848 -0.0841  1.0841  0.4619
 2269TIP3   OH228221   3.370   4.869   6.473 -0.1764 -0.5790  0.3804
 2269TIP3    H128222   3.324   4.871   6.556  0.6178 -2.0721  0.9075
 2269TIP3    H228223   3.425   4.948   6.473 -0.2276 -0.5408  1.2522
 2270TIP3   OH228224   4.798   2.763   5.061 -1.0460  1.2664  0.0599
 2270TIP3    H128225   4.719   2.729   5.019  0.0222  0.1817 -1.1817
 2270TIP3    H228226   4.812   2.848   5.021 -0.3239  0.4570 -1.5117
 2271TIP3   OH228227   4.740   0.336  12.629 -0.2331  0.5211  0.2213
 2271TIP3    H128228   4.799   0.386  12.685  0.0820 -1.4659  1.7749
 2271TIP3    H228229   4.672   0.399  12.604 -0.0087  1.6579  2.2811
 2272TIP3   OH228230   0.305   4.121  11.872 -0.0636 -0.6142 -0.3127
 2272TIP3    H128231   0.216   4.116  11.837 -1.7958  0.5048  3.3823
 2272TIP3    H228232   0.320   4.035  11.911  0.8298 -1.0328 -1.5218
 2273TIP3   OH228233   6.206   5.509   5.788  0.6523 -0.5226 -0.2723
 2273TIP3    H128234   6.118   5.498   5.823  0.6233 -1.8152 -0.6862
 2273TIP3    H228235   6.264   5.494   5.862  0.5425 -0.1233 -0.1014
 2274TIP3   OH228236   5.510   5.803   3.003 -0.0165  0.7621 -0.3790
 2274TIP3    H128237   5.452   5.729   3.020  0.5550  0.4341  0.1893
 2274TIP3    H228238   5.451   5.878   2.997 -0.5609  0.3324 -0.5192
 2275TIP3   OH228239   3.139   0.510   6.755  0.2749 -0.3713  0.5256
 2275TIP3    H128240   3.178   0.541   6.673 -0.0255  0.0255  0.5331
 2275TIP3    H228241   3.047   0.535   6.749  0.2492 -0.3579  0.9769
 2276TIP3   OH228242   4.966   4.710  16.864 -0.6119  0.3571 -0.1068
 2276TIP3    H128243   5.034   4.704  16.797 -0.5491  0.2853 -0.0366
 2276TIP3    H228244   5.014   4.731  16.945 -0.3634 -2.0514  0.4518
 2277TIP3   OH228245   0.154   6.483  13.638 -0.0678 -0.5779 -0.4305
 2277TIP3    H128246   0.109   6.566  13.654  0.5581 -0.1605 -0.8053
 2277TIP3    H228247   0.142   6.433  13.719  0.8501  0.4807  0.3984
 2278TIP3   OH228248   4.415   0.465  16.895 -0.2072 -0.4810 -0.6470
 2278TIP3    H128249   4.465   0.472  16.814  1.2697 -0.2501  0.2530
 2278TIP3    H228250   4.383   0.554  16.911  0.8774 -0.1703 -0.1405
 2279TIP3   OH228251   4.127   5.671  12.969 -0.4090  0.4735  0.3863
 2279TIP3    H128252   4.125   5.576  12.978  0.4480  0.2568 -1.4416
 2279TIP3    H228253   4.136   5.703  13.059  2.5302 -1.2847  0.8367
 2280TIP3   OH228254   6.032   1.610   4.652 -0.1683  0.3483 -0.3540
 2280TIP3    H128255   6.066   1.528   4.617 -1.0552  0.6735 -2.0449
 2280TIP3    H228256   5.950   1.625   4.605  0.2120  2.4450 -0.4604
 2281TIP3   OH228257   1.339   1.773  13.201  0.1246 -0.2757 -0.5483
 2281TIP3    H128258   1.391   1.740  13.275  0.7968  1.5737 -0.1454
 2281TIP3    H228259   1.382   1.736  13.124  3.3291  2.5383 -0.3692
 2282TIP3   OH228260   5.312   1.129  15.424 -0.9666  0.6010 -0.6641
 2282TIP3    H128261   5.225   1.089  15.418 -0.0093 -1.8192  0.2177
 2282TIP3    H228262   5.372   1.058  15.405  0.8767  1.7061  0.6947
 2283TIP3   OH228263   5.171   1.601   2.914  0.2367  0.0913 -0.1905
 2283TIP3    H128264   5.103   1.657   2.877 -0.4310 -0.1726  0.5977
 2283TIP3    H228265   5.223   1.573   2.839 -0.2575  0.6583 -0.7509
 2284TIP3   OH228266   1.923   5.728  10.949  0.3582 -0.1385 -0.1294
 2284TIP3    H128267   1.970   5.689  10.876  0.1879  0.3255 -0.4935
 2284TIP3    H228268   1.869   5.658  10.984 -0.4110 -0.0870 -1.1594
 2285TIP3   OH228269   0.956   3.839   2.120 -0.2908  0.4989  0.3889
 2285TIP3    H128270   1.010   3.863   2.195 -2.1546  2.6344  1.1620
 2285TIP3    H228271   1.006   3.868   2.043  0.1852  1.3505  1.0057
 2286TIP3   OH228272   0.705   2.229   2.064  0.2614 -0.3644  0.4684
 2286TIP3    H128273   0.702   2.162   1.996 -1.2661 -1.1513  1.2579
 2286TIP3    H228274   0.774   2.289   2.035  0.8339 -1.6000 -0.8766
 2287TIP3   OH228275   1.967   0.314   6.598 -0.1490 -0.2128 -0.4026
 2287TIP3    H128276   1.943   0.402   6.625  1.0294  0.1284 -0.4269
 2287TIP3    H228277   1.904   0.291   6.531 -1.4898 -0.0395  0.7579
 2288TIP3   OH228278   1.354   4.907   1.084  0.4239 -1.0372  0.3217
 2288TIP3    H128279   1.398   4.873   1.007  0.5818 -2.1865  0.9038
 2288TIP3    H228280   1.269   4.937   1.052  0.9289 -0.4261 -0.4902
 2289TIP3   OH228281   6.763   1.388   6.402  0.1491 -0.1844  0.3592
 2289TIP3    H128282   6.825   1.433   6.345  0.3268 -3.0597 -1.9915
 2289TIP3    H228283   6.802   1.301   6.414 -1.7793 -0.9119  1.7396
 2290TIP3   OH228284   4.897   3.363   0.827  0.8769 -0.3691  0.4704
 2290TIP3    H128285   4.983   3.322   0.820  0.6991 -0.6368 -0.1617
 2290TIP3    H228286   4.915   3.452   0.857  1.2587 -0.9097  1.9147
 2291TIP3   OH228287   6.083   5.034   5.624  0.3329 -0.6818  0.4358
 2291TIP3    H128288   6.049   5.121   5.643 -1.0951 -1.5451  2.2774
 2291TIP3    H228289   6.030   4.976   5.680  1.7396 -2.6396 -0.1673
 2292TIP3   OH228290   2.747   3.199   1.616 -0.3419 -0.1862 -0.0859
 2292TIP3    H128291   2.826   3.167   1.659 -0.9061 -0.3053  0.8964
 2292TIP3    H228292   2.679   3.190   1.682 -0.5941  2.8545  0.2410
 2293TIP3   OH228293   4.525   3.583  15.300 -0.0462  0.4362  0.2211
 2293TIP3    H128294   4.582   3.558  15.373  2.0934 -0.3977 -1.6098
 2293TIP3    H228295   4.451   3.523  15.307  0.8632 -0.6640  0.8412
 2294TIP3   OH228296   0.659   0.080  16.244  0.7356 -0.1255  0.2272
 2294TIP3    H128297   0.653   0.022  16.168  0.4260  0.7296 -0.4119
 2294TIP3    H228298   0.588   0.053  16.301 -1.4504  1.5976 -1.4834
 2295TIP3   OH228299   2.886   3.931   5.351 -0.4005 -0.2177 -0.1309
 2295TIP3    H128300   2.939   3.963   5.424 -0.6330  2.1785 -0.9182
 2295TIP3    H228301   2.797   3.960   5.372 -0.4700  0.4824 -1.3103
 2296TIP3   OH228302   6.368   1.605  13.637  0.7608 -0.1219  1.0040
 2296TIP3    H128303   6.289   1.562  13.606  1.8906 -1.4526 -0.1861
 2296TIP3    H228304   6.337   1.681  13.686 -1.3213 -1.8631  2.6039
 2297TIP3   OH228305   6.507   5.097  12.535 -0.0738  0.2364  0.7247
 2297TIP3    H128306   6.470   5.165  12.590  1.4600  1.7625 -0.0422
 2297TIP3    H228307   6.601   5.114  12.534  0.2670 -1.4334 -0.1103
 2298TIP3   OH228308   5.365   0.449  16.986  0.0469  1.1081  0.6323
 2298TIP3    H128309   5.422   0.525  17.000  1.0846  0.2827  0.9785
 2298TIP3    H228310   5.314   0.443  17.067  0.1751  1.2628  0.7254
 2299TIP3   OH228311   5.692   1.736  16.637  0.2691  0.2944 -0.3369
 2299TIP3    H128312   5.680   1.677  16.562  1.8667  1.2871 -1.4336
 2299TIP3    H228313   5.609   1.730  16.684 -0.2710 -1.4624 -1.3720
 2300TIP3   OH228314   5.852   5.528  12.941 -0.0345  0.1451  0.4974
 2300TIP3    H128315   5.828   5.542  13.033  0.9162  0.4809  0.7108
 2300TIP3    H228316   5.890   5.440  12.939  1.4036  0.7279  0.7623
 2301TIP3   OH228317   2.438   2.369  12.946 -0.1117  1.1100 -0.3618
 2301TIP3    H128318   2.482   2.318  12.877 -0.1805  3.4415 -2.2602
 2301TIP3    H228319   2.510   2.406  12.997 -0.0570 -1.2351  1.4557
 2302TIP3   OH228320   4.112   5.396   5.664 -0.7565  0.2230 -0.4748
 2302TIP3    H128321   4.078   5.372   5.750  1.8699  0.4920  0.7470
 2302TIP3    H228322   4.130   5.490   5.671  0.2695  0.0805 -1.0177
 2303TIP3   OH228323   4.358   1.298   4.272 -0.0624  0.3528  0.1849
 2303TIP3    H128324   4.370   1.366   4.205  1.0180 -0.1853 -0.1899
 2303TIP3    H228325   4.447   1.269   4.292 -0.3570  0.6211  1.9977
 2304TIP3   OH228326   0.199   5.012   3.875 -0.0831  0.3862 -0.5836
 2304TIP3    H128327   0.120   4.960   3.889  1.0712 -1.6269 -1.1078
 2304TIP3    H228328   0.172   5.081   3.814 -2.0083  1.3894  1.2721
 2305TIP3   OH228329   1.897   1.929   0.938  0.1973  0.3773 -0.2668
 2305TIP3    H128330   1.918   2.022   0.949  0.4609  0.3297 -0.3440
 2305TIP3    H228331   1.802   1.926   0.932  0.0348  0.4286  1.7188
 2306TIP3   OH228332   4.195   6.561   5.743  0.1509  0.1252 -0.0374
 2306TIP3    H128333   4.264   6.614   5.782 -0.0693 -0.1978  0.8211
 2306TIP3    H228334   4.161   6.508   5.816  0.0422 -0.8446 -0.7661
 2307TIP3   OH228335   3.509   1.603  11.932  0.7095 -0.0396  0.2178
 2307TIP3    H128336   3.422   1.563  11.941  0.6179  0.4246  1.6223
 2307TIP3    H228337   3.525   1.604  11.838 -0.1673 -1.4843  0.0232
 2308TIP3   OH228338   1.088   2.817   0.215  0.2698 -0.4421  0.3894
 2308TIP3    H128339   1.164   2.758   0.224 -0.6899 -1.7093  0.5774
 2308TIP3    H228340   1.018   2.772   0.264 -0.7271  0.4704 -0.1656
 2309TIP3   OH228341   4.973   0.202  10.993 -0.1346 -0.4116 -0.2776
 2309TIP3    H128342   5.049   0.236  10.945  0.1046 -0.9635 -0.2904
 2309TIP3    H228343   4.967   0.110  10.968 -1.2286 -0.2099 -0.8146
 2310TIP3   OH228344   4.277   1.970  12.441 -0.3155  0.4928  0.0228
 2310TIP3    H128345   4.356   1.954  12.390 -0.2355 -1.4593  0.6846
 2310TIP3    H228346   4.303   2.036  12.505  1.0137 -0.6867  0.7308
 2311TIP3   OH228347   1.759   6.577   4.343 -0.0031  1.1402 -0.1169
 2311TIP3    H128348   1.672   6.611   4.323 -0.2037  0.8318  0.2169
 2311TIP3    H228349   1.783   6.619   4.425 -1.0356 -0.8565  1.3083
 2312TIP3   OH228350   4.557   6.552  16.754  0.0374 -0.1008  0.1652
 2312TIP3    H128351   4.544   6.483  16.689  1.4119 -0.0818 -0.1667
 2312TIP3    H228352   4.588   6.627  16.703  0.4323  0.1404  0.7485
 2313TIP3   OH228353   5.073   1.022  15.385 -0.4758 -0.1556  0.6662
 2313TIP3    H128354   5.019   1.012  15.306  0.1768  0.4282  0.1273
 2313TIP3    H228355   5.063   0.939  15.432  1.6854 -1.8708 -1.6576
 2314TIP3   OH228356   4.190   5.910  14.900  0.0070  0.7052  0.7267
 2314TIP3    H128357   4.166   5.969  14.828 -0.8362 -0.3688  0.0904
 2314TIP3    H228358   4.116   5.849  14.906  1.3824 -1.0581  0.5329
 2315TIP3   OH228359   0.097   2.902   3.413  0.3214  0.6852 -0.1215
 2315TIP3    H128360   0.172   2.959   3.397  0.1085  0.6053 -1.5568
 2315TIP3    H228361   0.044   2.949   3.477  1.6790  0.6366  1.0944
 2316TIP3   OH228362   6.093   6.299   1.630 -0.1824 -0.2083 -0.1050
 2316TIP3    H128363   6.117   6.309   1.722  0.2054 -0.3988 -0.1857
 2316TIP3    H228364   6.120   6.211   1.607 -1.6667 -0.7248  0.0119
 2317TIP3   OH228365   5.321   5.957   5.765  0.1101  0.7262 -0.3049
 2317TIP3    H128366   5.261   6.027   5.737 -0.2475  1.1308  1.3724
 2317TIP3    H228367   5.290   5.879   5.718 -1.4021  1.0533  0.0814
 2318TIP3   OH228368   1.108   6.176  14.345 -0.3307 -0.2341 -0.4245
 2318TIP3    H128369   1.156   6.128  14.278  0.6036  1.0817 -0.7379
 2318TIP3    H228370   1.022   6.135  14.347  0.9576 -3.1724  0.6655
 2319TIP3   OH228371   6.178   2.500   3.705 -0.0594  0.4973  0.0609
 2319TIP3    H128372   6.156   2.412   3.675  2.7972  0.1912 -1.3941
 2319TIP3    H228373   6.137   2.506   3.792 -0.9134 -1.9761 -0.0923
 2320TIP3   OH228374   6.072   0.559   6.382  0.2566 -0.4028  0.8911
 2320TIP3    H128375   6.034   0.471   6.384 -0.6245 -0.1309 -1.2648
 2320TIP3    H228376   6.166   0.544   6.395  0.1414 -1.6946  0.4487
 2321TIP3   OH228377   2.336   2.405  16.276  0.4075 -0.1447 -0.2590
 2321TIP3    H128378   2.371   2.487  16.240  1.2694 -0.4058 -0.0441
 2321TIP3    H228379   2.249   2.397  16.237  0.8272  0.2201 -1.3072
 2322TIP3   OH228380   4.895   1.086   6.414 -0.4058 -0.0730  0.1592
 2322TIP3    H128381   4.953   1.112   6.342 -0.7619 -0.5762 -0.3162
 2322TIP3    H228382   4.872   0.995   6.394  1.1298 -0.9169  1.9831
 2323TIP3   OH228383   3.496   1.565  14.950  0.5678 -0.1673  0.0797
 2323TIP3    H128384   3.470   1.648  14.911 -0.3563 -0.7141 -0.5079
 2323TIP3    H228385   3.591   1.560  14.938  0.1917 -0.9495 -3.3963
 2324TIP3   OH228386   4.660   6.277  14.713  0.5428  0.6783  0.3968
 2324TIP3    H128387   4.596   6.239  14.652  0.6940  1.0771 -0.0161
 2324TIP3    H228388   4.643   6.234  14.796  0.1313  0.3459  0.1411
 2325TIP3   OH228389   6.220   0.155   3.958  0.2611  0.2597 -0.2267
 2325TIP3    H128390   6.147   0.156   3.896 -0.2575  0.6844  0.3718
 2325TIP3    H228391   6.209   0.236   4.008 -1.2893 -1.5560  2.6365
 2326TIP3   OH228392   6.636   6.229   1.713  0.2331  0.3565 -0.0381
 2326TIP3    H128393   6.607   6.286   1.642  0.1038  2.9363  1.9413
 2326TIP3    H228394   6.557   6.210   1.762  0.3633 -1.1917 -0.3867
 2327TIP3   OH228395   4.450   1.415  12.331 -0.3481  0.2627 -0.4498
 2327TIP3    H128396   4.510   1.391  12.260 -0.9891 -2.8932 -0.0816
 2327TIP3    H228397   4.507   1.423  12.408 -0.1604 -1.6027 -0.3291
 2328TIP3   OH228398   3.685   0.745   5.302 -0.3360  0.0647  0.2198
 2328TIP3    H128399   3.770   0.745   5.347 -0.3700  1.9420  0.3453
 2328TIP3    H228400   3.700   0.797   5.223 -0.6206 -2.1031 -1.3463
 2329TIP3   OH228401   4.891   5.886   3.266  0.4904  0.6346  0.0991
 2329TIP3    H128402   4.853   5.799   3.282  2.0134 -0.2115 -0.6332
 2329TIP3    H228403   4.924   5.914   3.351  2.4801 -0.8091 -0.1111
 2330TIP3   OH228404   2.951   0.129   1.879  0.2372 -0.2144  0.6044
 2330TIP3    H128405   2.990   0.205   1.922  3.1443 -2.8494  3.1535
 2330TIP3    H228406   3.023   0.091   1.828 -0.9428 -1.6200 -0.1127
 2331TIP3   OH228407   6.017   2.680   2.454 -0.3575  0.0397  0.0860
 2331TIP3    H128408   6.057   2.766   2.464 -0.9941  0.3276  0.1304
 2331TIP3    H228409   6.022   2.641   2.541 -0.9249  0.3982  0.2766
 2332TIP3   OH228410   4.587   5.439  14.551 -0.2554  0.2976  0.5968
 2332TIP3    H128411   4.677   5.431  14.583  0.7657  0.3473 -2.0045
 2332TIP3    H228412   4.578   5.369  14.487 -2.0554  0.3964  0.6824
 2333TIP3   OH228413   0.071   2.747   2.663 -0.1261 -0.1180  0.4283
 2333TIP3    H128414   0.036   2.660   2.643 -0.4830  0.1471 -0.1407
 2333TIP3    H228415  -0.007   2.800   2.680  0.0660  0.1897  0.3476
 2334TIP3   OH228416   6.495   6.551   4.919  0.6620  0.0847  0.1772
 2334TIP3    H128417   6.485   6.624   4.980 -3.0847  0.6019 -0.8263
 2334TIP3    H228418   6.540   6.589   4.844  2.8822  0.0913  1.4124
 2335TIP3   OH228419   5.048   3.236  15.994  0.7606  0.1511  0.5886
 2335TIP3    H128420   5.140   3.255  16.011  1.0402 -0.0993 -0.5884
 2335TIP3    H228421   5.049   3.159  15.937 -0.2070 -0.3179  1.1693
 2336TIP3   OH228422   6.601   4.307  13.965 -0.1953 -0.1968  0.8900
 2336TIP3    H128423   6.695   4.324  13.975 -0.4115  1.0596  1.0268
 2336TIP3    H228424   6.587   4.305  13.871 -0.1229  0.2337  0.8678
 2337TIP3   OH228425   4.318   3.676  15.706  0.3764  0.0625  0.3578
 2337TIP3    H128426   4.276   3.754  15.743 -2.0360 -0.7750 -0.4414
 2337TIP3    H228427   4.359   3.707  15.625 -2.3904  0.2009 -1.0909
 2338TIP3   OH228428   3.369   2.588   5.018  0.0499  0.0426  0.1087
 2338TIP3    H128429   3.414   2.636   5.087  1.8675 -1.2049 -0.1372
 2338TIP3    H228430   3.360   2.499   5.052  1.3011 -0.6858 -1.3296
 2339TIP3   OH228431   5.362   1.682   6.517 -0.1309 -0.7021 -0.1924
 2339TIP3    H128432   5.451   1.692   6.552  0.1660 -1.6319 -0.6346
 2339TIP3    H228433   5.367   1.722   6.430 -0.0605 -0.9978 -0.3271
 2340TIP3   OH228434   5.344   2.854  14.355 -0.4264  0.2786  0.2823
 2340TIP3    H128435   5.379   2.789  14.417  0.0163 -0.6261 -0.8859
 2340TIP3    H228436   5.283   2.804  14.300 -1.5935  1.2826  0.6051
 2341TIP3   OH228437   1.088   5.783  13.218  0.3712  1.1012 -0.0155
 2341TIP3    H128438   1.090   5.748  13.129  0.8681  1.2031 -0.0470
 2341TIP3    H228439   1.166   5.748  13.260 -0.3447  0.2963  0.6835
 2342TIP3   OH228440   0.568   3.876  13.518 -0.4375  0.3028  0.4444
 2342TIP3    H128441   0.643   3.817  13.515 -1.2595 -0.7615  0.0854
 2342TIP3    H228442   0.573   3.917  13.604 -0.4471 -1.1234  1.1472
 2343TIP3   OH228443   4.510   6.701  10.892  0.5138 -0.3541  0.0893
 2343TIP3    H128444   4.460   6.751  10.828  0.6264  0.1516  0.3931
 2343TIP3    H228445   4.480   6.611  10.881  1.9439 -0.6172 -2.0446
 2344TIP3   OH228446   4.358   0.618   3.974 -0.1077 -0.1446  0.7785
 2344TIP3    H128447   4.392   0.708   3.972 -1.3462  0.3435 -0.1491
 2344TIP3    H228448   4.423   0.567   3.926  1.0643  0.0564  2.0875
 2345TIP3   OH228449   2.602   2.256  13.560  0.4926  0.1240 -0.2691
 2345TIP3    H128450   2.692   2.286  13.573 -0.3383  2.8752 -0.4292
 2345TIP3    H228451   2.612   2.164  13.534  3.2401  0.3528 -0.3561
 2346TIP3   OH228452   2.960   3.295  13.163  0.1959  0.0122 -0.1605
 2346TIP3    H128453   3.038   3.294  13.219  0.2181 -0.7865 -0.1927
 2346TIP3    H228454   2.989   3.258  13.080 -0.2732 -0.5233 -0.0906
 2347TIP3   OH228455   5.195   1.908  15.529  0.5972 -0.8576  0.5366
 2347TIP3    H128456   5.286   1.891  15.554  0.4126 -1.3046  0.9246
 2347TIP3    H228457   5.145   1.836  15.569  0.0929 -0.7069  0.1961
 2348TIP3   OH228458   4.019   5.583  12.288  0.2896 -0.3030 -0.4072
 2348TIP3    H128459   4.008   5.509  12.228  3.0672 -1.1737 -0.0195
 2348TIP3    H228460   3.973   5.557  12.367 -0.9245 -0.4430 -1.1361
 2349TIP3   OH228461   0.276   1.547   5.061  0.6483  0.8298  0.5230
 2349TIP3    H128462   0.217   1.522   5.133  1.0759 -0.6183  0.4046
 2349TIP3    H228463   0.249   1.491   4.989  1.8370  0.5088  0.3114
 2350TIP3   OH228464   5.422   5.974  15.231  0.6340 -0.2019  0.1760
 2350TIP3    H128465   5.382   6.060  15.249  0.1053 -0.6622  1.3414
 2350TIP3    H228466   5.505   5.976  15.279 -0.3229 -1.0685  1.9813
 2351TIP3   OH228467   1.847   0.836   6.318 -0.0446  0.4512 -0.1813
 2351TIP3    H128468   1.864   0.810   6.227  0.1877 -0.9296  0.2268
 2351TIP3    H228469   1.755   0.862   6.319  0.4713  2.5354 -1.2283
 2352TIP3   OH228470   4.575   1.763   6.020  0.1193  0.1478 -0.0547
 2352TIP3    H128471   4.490   1.803   6.038  0.0318  0.3355 -0.8616
 2352TIP3    H228472   4.637   1.836   6.022  0.6229 -0.2369  2.5858
 2353TIP3   OH228473   1.190   0.298  16.215  0.4549 -0.5230 -0.7682
 2353TIP3    H128474   1.144   0.267  16.137 -1.0598 -1.0854  0.3195
 2353TIP3    H228475   1.241   0.223  16.244 -1.7387 -1.5217  0.7668
 2354TIP3   OH228476   0.887   1.527  16.948  0.3210 -0.3852 -0.2694
 2354TIP3    H128477   0.836   1.468  17.004  0.6607 -0.7078 -0.2942
 2354TIP3    H228478   0.824   1.560  16.884  0.1726 -0.8772 -0.3793
 2355TIP3   OH228479   2.656   3.264   5.296 -0.2234 -0.5360  0.8237
 2355TIP3    H128480   2.594   3.197   5.325 -2.0079 -0.0098 -1.4891
 2355TIP3    H228481   2.678   3.313   5.375 -1.0863 -2.0489  2.0603
 2356TIP3   OH228482   5.584   5.172   1.688 -0.0787 -0.0468  0.4267
 2356TIP3    H128483   5.566   5.091   1.735 -0.5433 -0.2335 -0.0635
 2356TIP3    H228484   5.674   5.161   1.656 -0.0641 -0.2779  0.5425
 2357TIP3   OH228485   3.950   5.874   2.542 -0.2039  0.0643 -0.0496
 2357TIP3    H128486   3.993   5.958   2.526 -0.2276  0.3182  1.0965
 2357TIP3    H228487   4.011   5.826   2.598 -1.6116  0.6704  2.1397
 2358TIP3   OH228488   3.985   4.042   1.637 -0.7044 -0.4899 -0.2763
 2358TIP3    H128489   3.908   4.091   1.666  0.6351  0.7739  1.3957
 2358TIP3    H228490   4.047   4.051   1.709  0.3389 -3.0992 -0.7308
 2359TIP3   OH228491   5.218   0.562   3.305  0.0082  0.3758 -0.6525
 2359TIP3    H128492   5.178   0.643   3.271 -0.6137  0.1049 -0.5791
 2359TIP3    H228493   5.158   0.493   3.276  0.6160 -0.0733 -0.8356
 2360TIP3   OH228494   1.469   4.068   2.848 -0.4959  0.0503  0.0651
 2360TIP3    H128495   1.382   4.047   2.881 -0.8176  0.3129 -0.5946
 2360TIP3    H228496   1.461   4.157   2.813  0.6433  1.0353  2.1301
 2361TIP3   OH228497   3.767   5.661  15.421  0.2611  0.3296 -0.0899
 2361TIP3    H128498   3.850   5.632  15.459  0.7865  2.6807  0.7234
 2361TIP3    H228499   3.700   5.635  15.485  0.5883  0.0956  0.1571
 2362TIP3   OH228500   6.121   6.820   1.441  0.7512 -0.8109  0.0252
 2362TIP3    H128501   6.097   6.758   1.509  0.9551 -1.5192 -0.5305
 2362TIP3    H228502   6.048   6.882   1.437 -0.2089 -1.9352 -0.4723
 2363TIP3   OH228503   5.240   6.403   2.580 -0.2293  0.2114 -1.0318
 2363TIP3    H128504   5.257   6.336   2.513  0.0245 -0.9967  0.1978
 2363TIP3    H228505   5.148   6.425   2.569 -0.3628 -0.4669 -1.3337
 2364TIP3   OH228506   6.766   1.075  13.251 -0.0607 -0.1695  0.3300
 2364TIP3    H128507   6.743   1.044  13.338 -2.8494 -2.3110 -0.9886
 2364TIP3    H228508   6.694   1.045  13.195  0.1622  3.5085 -2.2737
 2365TIP3   OH228509   3.815   4.138  11.572  0.7172  0.0790 -0.5456
 2365TIP3    H128510   3.784   4.228  11.564 -0.5218 -0.2410  0.4080
 2365TIP3    H228511   3.853   4.118  11.486  0.8099  1.4244 -0.8400
 2366TIP3   OH228512   1.828   6.024   0.528  0.5395 -0.0972  0.4541
 2366TIP3    H128513   1.777   6.068   0.596  1.8115  0.0250  1.3675
 2366TIP3    H228514   1.805   6.070   0.447 -2.2496 -1.3000  0.4489
 2367TIP3   OH228515   0.558   3.488  11.355 -0.1516 -0.4993  0.0403
 2367TIP3    H128516   0.531   3.456  11.441 -2.8908  1.4731  0.0293
 2367TIP3    H228517   0.478   3.522  11.315  1.2091 -0.4097 -2.9087
 2368TIP3   OH228518   1.055   0.695   0.571  0.3753 -0.2551  0.3908
 2368TIP3    H128519   1.133   0.693   0.515  0.2052 -0.1645  0.1514
 2368TIP3    H228520   0.994   0.753   0.526  0.8437  1.1415  1.4841
 2369TIP3   OH228521   4.503   5.271   4.162 -0.2558 -0.3845  0.3891
 2369TIP3    H128522   4.512   5.264   4.067 -0.4480  0.5290  0.3001
 2369TIP3    H228523   4.540   5.189   4.195 -0.0492 -0.6458 -0.4629
 2370TIP3   OH228524   3.351   1.964  16.140  0.6421  0.5503 -1.4693
 2370TIP3    H128525   3.293   1.892  16.118  1.7673 -0.4107 -1.3609
 2370TIP3    H228526   3.422   1.925  16.191  1.0501  1.8008 -1.0166
 2371TIP3   OH228527   3.684   1.196   2.834 -0.2470  0.4107  0.5303
 2371TIP3    H128528   3.700   1.276   2.784 -0.0929 -0.5678 -1.0375
 2371TIP3    H228529   3.589   1.192   2.843 -0.2132  1.4829  1.9108
 2372TIP3   OH228530   0.753   2.182   4.676 -0.0667 -0.3433 -0.3965
 2372TIP3    H128531   0.748   2.130   4.756 -1.5133 -0.6261 -0.6423
 2372TIP3    H228532   0.710   2.129   4.610  0.5744  0.1491 -1.2262
 2373TIP3   OH228533   4.513   5.722   4.825  0.8100  0.2648 -0.4312
 2373TIP3    H128534   4.539   5.797   4.771  0.3211 -0.2467 -1.4007
 2373TIP3    H228535   4.594   5.674   4.840  1.1987  1.1772  0.5313
 2374TIP3   OH228536   2.173   3.870   5.553  0.0046 -0.3327 -0.2937
 2374TIP3    H128537   2.127   3.847   5.633  0.7604 -0.6864  0.0452
 2374TIP3    H228538   2.228   3.794   5.534  0.4362  0.0708 -0.6998
 2375TIP3   OH228539   6.008   0.495   3.209 -0.1045  0.3024 -0.2836
 2375TIP3    H128540   6.096   0.458   3.218 -0.5128 -0.5035  0.6223
 2375TIP3    H228541   5.986   0.481   3.116  2.0729  3.7725 -1.5057
 2376TIP3   OH228542   5.609   2.818  14.525 -0.0027 -0.0727 -0.3359
 2376TIP3    H128543   5.634   2.857  14.609  0.0966  0.4681 -0.6146
 2376TIP3    H228544   5.573   2.890  14.474 -2.7078 -0.8950  0.2253
 2377TIP3   OH228545   4.163   3.004   1.422  0.0666 -0.0374 -0.3423
 2377TIP3    H128546   4.171   2.922   1.372 -0.9421  0.9373 -2.1963
 2377TIP3    H228547   4.075   3.035   1.402  0.9516  2.2777 -0.9471
 2378TIP3   OH228548   4.147   5.070   2.249  0.0683 -0.6407  0.2488
 2378TIP3    H128549   4.165   4.995   2.193  0.0289 -0.0530 -0.5697
 2378TIP3    H228550   4.123   5.032   2.334 -2.0279 -1.6542 -0.7162
 2379TIP3   OH228551   6.714   5.889  13.756  0.2293  0.9806 -0.2947
 2379TIP3    H128552   6.720   5.942  13.835  0.8215  0.6253 -0.0953
 2379TIP3    H228553   6.637   5.834  13.769  0.9659  0.1235  0.5386
 2380TIP3   OH228554   6.327   3.653   2.619 -0.1248  0.1401  0.8432
 2380TIP3    H128555   6.309   3.560   2.625 -0.8364  0.1378 -0.7630
 2380TIP3    H228556   6.243   3.692   2.595  0.8943  0.6954 -2.3220
 2381TIP3   OH228557   1.553   4.337  14.956  0.6394  0.8526  0.5149
 2381TIP3    H128558   1.569   4.387  15.037  0.6586  1.8217 -0.0653
 2381TIP3    H228559   1.638   4.299  14.934  0.3817 -0.4235  1.5750
 2382TIP3   OH228560   2.983   3.053  14.315 -0.3589 -0.2298 -0.5188
 2382TIP3    H128561   2.893   3.050  14.345 -0.1685 -2.7612  0.0224
 2382TIP3    H228562   3.031   3.095  14.387 -0.6195 -2.0111  0.7540
 2383TIP3   OH228563   5.140   4.818   2.289 -0.5775  0.4323  0.0080
 2383TIP3    H128564   5.084   4.741   2.302  1.1921 -0.8603  0.2682
 2383TIP3    H228565   5.183   4.802   2.205 -0.6927  1.4903 -0.2633
 2384TIP3   OH228566   6.473   1.834   4.048 -0.4653 -0.3439 -0.1243
 2384TIP3    H128567   6.385   1.871   4.034 -0.1028  0.6970  0.2847
 2384TIP3    H228568   6.529   1.882   3.987 -0.0556 -0.5259  0.1077
 2385TIP3   OH228569   6.108   2.897  12.554  0.4558 -0.2016 -0.3222
 2385TIP3    H128570   6.059   2.820  12.583 -0.3103  0.1124 -0.7561
 2385TIP3    H228571   6.070   2.969  12.605  1.7063 -0.2109  0.6678
 2386TIP3   OH228572   1.171   2.587  13.428  0.1566  0.1035 -0.1585
 2386TIP3    H128573   1.253   2.627  13.459  1.4050 -2.3536 -0.0159
 2386TIP3    H228574   1.200   2.515  13.372 -1.9267 -0.6788 -0.2961
 2387TIP3   OH228575   4.778   6.807  12.126 -0.1040 -0.6840 -0.1524
 2387TIP3    H128576   4.800   6.901  12.130  0.3997 -0.8349  1.1677
 2387TIP3    H228577   4.726   6.798  12.046 -3.1277  1.3677  1.3615
 2388TIP3   OH228578   0.728   0.475  16.922  0.0137 -0.0816  0.7784
 2388TIP3    H128579   0.821   0.494  16.911 -0.1214  0.9042  1.2684
 2388TIP3    H228580   0.718   0.386  16.888  0.8702  0.3210 -0.6022
 2389TIP3   OH228581   3.274   4.618  15.006 -0.1484  0.2333  0.0900
 2389TIP3    H128582   3.180   4.636  15.006 -0.3484 -0.7458  0.2785
 2389TIP3    H228583   3.314   4.699  15.038 -0.9904  0.3586  0.8553
 2390TIP3   OH228584   5.460   6.092  11.181  0.0179 -0.4263  0.1359
 2390TIP3    H128585   5.401   6.089  11.106 -1.0375  0.0449  0.9379
 2390TIP3    H228586   5.470   6.000  11.207  1.0726 -0.6944 -1.0653
 2391TIP3   OH228587   0.888   6.430   3.372  0.2457 -0.3005 -0.1223
 2391TIP3    H128588   0.822   6.498   3.375  0.6992  0.1198  0.7004
 2391TIP3    H228589   0.914   6.425   3.280  0.8570  1.2799 -0.0673
 2392TIP3   OH228590   1.515   2.601   1.509  0.0581 -0.3900 -0.5987
 2392TIP3    H128591   1.579   2.533   1.527 -0.6124 -0.6129  1.1127
 2392TIP3    H228592   1.511   2.653   1.590 -3.1101 -1.3901  0.0322
 2393TIP3   OH228593   3.981   4.003  12.470 -0.4025 -0.3275 -0.6089
 2393TIP3    H128594   4.040   3.927  12.472 -0.4130 -0.3690 -1.3376
 2393TIP3    H228595   3.893   3.965  12.471 -0.4207 -0.4104 -2.1964
 2394TIP3   OH228596   4.078   4.995  14.216 -0.5469  0.2770  0.0663
 2394TIP3    H128597   3.987   4.967  14.212 -0.2665 -0.5678 -2.6585
 2394TIP3    H228598   4.123   4.937  14.154  1.6895  1.2709  0.6577
 2395TIP3   OH228599   3.689   6.121   2.229  0.6429 -0.3701  0.0036
 2395TIP3    H128600   3.729   6.174   2.298  0.5825  0.2386 -0.4208
 2395TIP3    H228601   3.735   6.037   2.234 -0.3894 -0.8656  1.7573
 2396TIP3   OH228602   3.589   2.815   6.225  0.1834 -0.1890  0.2336
 2396TIP3    H128603   3.657   2.854   6.280 -0.5193  0.9834  0.2981
 2396TIP3    H228604   3.532   2.770   6.287 -1.3700  2.2511  0.7061
 2397TIP3   OH228605   1.106   3.439   5.157  0.3087 -0.6361  0.0067
 2397TIP3    H128606   1.191   3.398   5.140  0.2873 -2.0106  2.7128
 2397TIP3    H228607   1.092   3.427   5.251 -2.7345 -0.1200 -0.2920
 2398TIP3   OH228608   3.827   4.569  13.975 -0.1324  0.2483 -0.5228
 2398TIP3    H128609   3.856   4.478  13.980  1.4848  0.7222 -0.9336
 2398TIP3    H228610   3.765   4.570  13.902  0.3312 -0.4038 -0.9323
 2399TIP3   OH228611   5.052   1.440   4.889 -0.8347 -0.0319  0.0607
 2399TIP3    H128612   5.133   1.457   4.938 -0.8912 -0.4452  0.3070
 2399TIP3    H228613   4.988   1.501   4.925 -0.3541  1.0913 -0.9067
 2400TIP3   OH228614   1.203   0.597  13.527 -0.0996 -0.2101 -1.0031
 2400TIP3    H128615   1.167   0.546  13.454 -0.2123 -1.9346  0.1870
 2400TIP3    H228616   1.196   0.538  13.602  0.5026  1.3232  0.2973
 2401TIP3   OH228617   3.022   5.870  13.094  0.2854  0.4340  0.4240
 2401TIP3    H128618   3.091   5.878  13.160  0.0393  3.2183  0.4662
 2401TIP3    H228619   3.063   5.824  13.021  2.8482  3.5117 -0.2660
 2402TIP3   OH228620   5.565   1.431  12.417 -0.4379 -0.3095  0.6267
 2402TIP3    H128621   5.543   1.467  12.503  2.7028  2.2171  0.5664
 2402TIP3    H228622   5.523   1.490  12.355  1.1669  0.8110  0.5299
 2403TIP3   OH228623   5.202   4.319  15.387  0.0890  0.0608 -0.4102
 2403TIP3    H128624   5.267   4.366  15.334  0.8978 -0.1251  0.3958
 2403TIP3    H228625   5.254   4.268  15.449 -0.8091 -0.9505 -0.4573
 2404TIP3   OH228626   6.602   2.983  10.755  0.2894  0.2525  0.2175
 2404TIP3    H128627   6.589   2.947  10.668 -0.0911 -0.1852  0.4484
 2404TIP3    H228628   6.514   2.986  10.793  0.4373  0.5367  0.5486
 2405TIP3   OH228629   0.545   6.594  11.818  0.3391 -0.0341  0.3730
 2405TIP3    H128630   0.533   6.637  11.903  1.0210 -0.1769  0.5468
 2405TIP3    H228631   0.456   6.578  11.787  0.0725  1.1970  0.4548
 2406TIP3   OH228632   3.204   3.770   4.780  0.4267  0.2232  0.4527
 2406TIP3    H128633   3.111   3.759   4.800  0.2877 -1.6917 -0.8771
 2406TIP3    H228634   3.233   3.682   4.754  1.6187  1.4877 -3.0337
 2407TIP3   OH228635   0.055   3.784  13.356 -0.0723  0.0382  0.1181
 2407TIP3    H128636   0.024   3.869  13.388  0.7910  1.1350 -1.8153
 2407TIP3    H228637   0.123   3.806  13.292 -2.1212 -1.9639 -2.9769
 2408TIP3   OH228638   1.978   2.278  12.559 -0.4175  0.2741  0.1587
 2408TIP3    H128639   2.070   2.300  12.544 -0.2847 -0.1536  0.3151
 2408TIP3    H228640   1.943   2.262  12.472 -0.7241  1.8464 -0.0363
 2409TIP3   OH228641   3.943   3.731   3.184 -0.3085  0.4114  0.0346
 2409TIP3    H128642   3.997   3.656   3.157 -3.0922 -1.9616  0.6024
 2409TIP3    H228643   3.889   3.750   3.108  0.6638  2.2555 -0.2579
 2410TIP3   OH228644   4.492   2.689  16.037 -0.0276 -0.0017 -0.1699
 2410TIP3    H128645   4.415   2.660  15.988  0.4356 -1.6046 -0.0051
 2410TIP3    H228646   4.548   2.730  15.972  0.0928 -1.1317 -0.8051
 2411TIP3   OH228647   5.263   5.162  17.020  0.2595  0.0895 -0.4207
 2411TIP3    H128648   5.242   5.088  17.077 -3.6473  2.1045  1.1614
 2411TIP3    H228649   5.314   5.222  17.074  1.5680 -0.4345 -1.0224
 2412TIP3   OH228650   6.376   0.949  13.822  0.2060 -0.4638  0.6875
 2412TIP3    H128651   6.394   0.969  13.730 -1.4005 -0.3830  0.3579
 2412TIP3    H228652   6.452   0.983  13.869  0.2103  1.2067 -0.4278
 2413TIP3   OH228653   2.919   3.307  13.628  0.1752  0.5900  0.9215
 2413TIP3    H128654   2.899   3.387  13.580  0.0810  0.5174  0.8382
 2413TIP3    H228655   2.837   3.258  13.629  0.2670  0.4331  0.8524
 2414TIP3   OH228656   4.019   6.419   3.263 -0.0521  0.1764 -0.0652
 2414TIP3    H128657   4.000   6.344   3.318 -1.7105  1.8733  1.8397
 2414TIP3    H228658   4.086   6.468   3.310  0.4140  0.3189 -0.8629
 2415TIP3   OH228659   2.882   5.523  16.532 -0.9379  0.1029 -0.0802
 2415TIP3    H128660   2.876   5.613  16.565  0.0290  0.5805 -1.1418
 2415TIP3    H228661   2.826   5.522  16.455 -0.6604 -0.0965 -0.2829
 2416TIP3   OH228662   2.869   4.474   0.843 -0.5267 -0.6635 -0.4477
 2416TIP3    H128663   2.953   4.432   0.860 -0.8597 -0.7729  1.1170
 2416TIP3    H228664   2.814   4.403   0.810 -0.1279 -0.6815 -1.0842
 2417TIP3   OH228665   5.638   1.916   3.325 -0.6498 -0.9513  0.8305
 2417TIP3    H128666   5.564   1.859   3.304 -0.5571 -1.0062  0.6422
 2417TIP3    H228667   5.712   1.856   3.336  0.0318 -0.7446 -1.9055
 2418TIP3   OH228668   4.616   6.626  14.838  0.1088  0.3387 -0.3278
 2418TIP3    H128669   4.591   6.656  14.925 -0.2441 -1.4065  0.1987
 2418TIP3    H228670   4.710   6.642  14.833  0.2163  0.0186  0.5562
 2419TIP3   OH228671   3.131   1.735   4.962  0.4539  0.2807  0.1101
 2419TIP3    H128672   3.063   1.743   4.894 -0.7125 -0.1793  1.1920
 2419TIP3    H228673   3.115   1.810   5.019 -0.3419 -0.8313  1.3960
 2420TIP3   OH228674   2.194   3.768   0.717 -0.4294 -0.3511  0.2156
 2420TIP3    H128675   2.264   3.780   0.653  0.2013 -0.7851  0.8093
 2420TIP3    H228676   2.133   3.708   0.676 -0.5173  0.1248 -0.3566
 2421TIP3   OH228677   4.546   6.732   1.823 -0.2721 -0.3503 -0.3171
 2421TIP3    H128678   4.523   6.816   1.784 -1.1989  0.2731  1.4764
 2421TIP3    H228679   4.641   6.734   1.832 -0.4174  1.4479  1.5865
 2422TIP3   OH228680   4.237   4.837  15.265 -0.2452  0.0098  0.6399
 2422TIP3    H128681   4.220   4.800  15.352 -0.1298 -1.3800  0.1013
 2422TIP3    H228682   4.171   4.796  15.209 -0.2021  0.7592  0.0217
 2423TIP3   OH228683   4.576   6.218  15.391  0.3339  0.1126 -0.4120
 2423TIP3    H128684   4.599   6.203  15.482 -0.5143  0.1905 -0.1741
 2423TIP3    H228685   4.596   6.310  15.375  1.9105 -0.2528 -0.7611
 2424TIP3   OH228686   3.887   1.404   4.597 -0.0638  0.0074  0.4980
 2424TIP3    H128687   3.817   1.409   4.662 -0.1597 -0.4666  0.4288
 2424TIP3    H228688   3.898   1.495   4.567 -1.6806 -0.1209 -0.5956
 2425TIP3   OH228689   4.998   0.696   3.421 -0.0628 -0.1808  0.0826
 2425TIP3    H128690   4.998   0.760   3.493  2.8004  0.0802 -0.0368
 2425TIP3    H228691   5.000   0.749   3.342 -0.0338 -0.4448 -0.0941
 2426TIP3   OH228692   5.174   2.525   5.514  0.7764 -0.2915  0.5397
 2426TIP3    H128693   5.152   2.596   5.453  1.2993 -1.5434 -1.1798
 2426TIP3    H228694   5.208   2.570   5.592  2.3489  1.3474 -0.9902
 2427TIP3   OH228695   3.885   3.626  11.490 -0.7527 -0.0256  0.1190
 2427TIP3    H128696   3.871   3.538  11.454 -2.3477  0.9113 -1.7700
 2427TIP3    H228697   3.977   3.645  11.471 -0.7648 -0.7555 -0.7769
 2428TIP3   OH228698   5.331   5.818   3.262  0.0768  0.6987  0.3458
 2428TIP3    H128699   5.407   5.810   3.320  0.9445 -0.6299 -0.8897
 2428TIP3    H228700   5.344   5.902   3.217 -0.3165  1.4706  1.6096
 2429TIP3   OH228701   3.067   4.627   2.394  0.2083 -0.4138  0.0370
 2429TIP3    H128702   3.135   4.560   2.387 -0.1734 -0.9785  1.3746
 2429TIP3    H228703   3.105   4.704   2.352  0.7882 -1.3476 -1.2220
 2430TIP3   OH228704   2.701   4.057   5.516 -0.1378 -0.0820  0.4935
 2430TIP3    H128705   2.761   4.096   5.579 -0.8774  0.2380  1.0075
 2430TIP3    H228706   2.631   4.120   5.506  0.1915  0.0955 -1.0353
 2431TIP3   OH228707   6.482   3.890  15.618  0.3346  0.3802  0.0430
 2431TIP3    H128708   6.423   3.823  15.584  0.4458  0.7725 -0.9509
 2431TIP3    H228709   6.452   3.971  15.578 -0.3037  1.0965  1.8596
 2432TIP3   OH228710   1.802   5.373  16.334  0.1909  0.6629  0.3316
 2432TIP3    H128711   1.717   5.329  16.337 -0.8226  2.5136  0.2938
 2432TIP3    H228712   1.828   5.368  16.242  0.5947 -0.7266  0.5058
 2433TIP3   OH228713   4.801   0.569  14.562  0.2524  0.4438 -0.3290
 2433TIP3    H128714   4.755   0.495  14.522 -1.2981  0.7340  0.8366
 2433TIP3    H228715   4.732   0.624  14.598  1.4678  1.4872  0.5005
 2434TIP3   OH228716   6.257   4.634  14.435  0.5021 -0.0417  0.7136
 2434TIP3    H128717   6.275   4.561  14.494 -1.6118  0.1962  1.7690
 2434TIP3    H228718   6.164   4.624  14.413  0.4693  1.6391 -0.1064
 2435TIP3   OH228719   0.470   1.598   5.403  0.1212  0.0735  0.0516
 2435TIP3    H128720   0.436   1.509   5.412  1.4330 -0.4021  0.5302
 2435TIP3    H228721   0.482   1.609   5.309 -0.7352  0.0219 -0.0720
 2436TIP3   OH228722   5.587   0.947  17.000 -0.2434  0.2970  0.0214
 2436TIP3    H128723   5.665   0.964  17.054 -0.2994  0.7510 -0.0377
 2436TIP3    H228724   5.522   0.914  17.062  0.3934 -1.3279 -0.1266
 2437TIP3   OH228725   5.487   5.780   4.794 -0.4755  0.3177  0.4123
 2437TIP3    H128726   5.484   5.708   4.731 -1.0603 -1.4728  2.3525
 2437TIP3    H228727   5.519   5.740   4.875 -0.9248  2.2269  1.6064
 2438TIP3   OH228728   2.105   2.218  15.372  0.2978 -0.0041  0.2900
 2438TIP3    H128729   2.042   2.231  15.443 -0.2639 -0.2721 -0.1472
 2438TIP3    H228730   2.091   2.127  15.344 -3.2070  1.3730 -3.5916
 2439TIP3   OH228731   6.383   5.782  15.258  1.0709  0.3171 -0.3223
 2439TIP3    H128732   6.296   5.823  15.259 -1.5992 -4.5062  1.3626
 2439TIP3    H228733   6.408   5.779  15.351  1.7000 -0.7062 -0.5118
 2440TIP3   OH228734   5.411   3.425  10.190  0.5708  0.4219 -0.3672
 2440TIP3    H128735   5.393   3.337  10.155 -0.3304  0.5115 -0.1488
 2440TIP3    H228736   5.504   3.422  10.215  0.4840 -0.5525 -0.1122
 2441TIP3   OH228737   3.292   2.181   1.084 -0.2536 -0.4223 -0.3784
 2441TIP3    H128738   3.290   2.132   1.002  0.6901 -0.4225 -0.4067
 2441TIP3    H228739   3.276   2.272   1.057 -1.3376 -0.6075 -0.3980
 2442TIP3   OH228740   4.556   5.269  11.262  0.5165 -0.4115  0.0604
 2442TIP3    H128741   4.544   5.238  11.173 -0.9679 -1.3029  0.5297
 2442TIP3    H228742   4.605   5.200  11.306  1.4538  0.1318 -0.0968
 2443TIP3   OH228743   5.845   5.280   4.581 -0.0861  0.2113  0.0266
 2443TIP3    H128744   5.755   5.314   4.580 -0.0873  0.2850 -1.8040
 2443TIP3    H228745   5.892   5.339   4.640 -0.8923  1.2026 -0.2804
 2444TIP3   OH228746   2.499   6.046   3.119 -0.3207 -0.2555 -0.3890
 2444TIP3    H128747   2.565   6.111   3.143 -0.9826  0.0669  0.6565
 2444TIP3    H228748   2.447   6.088   3.051 -0.0292 -0.1515 -0.5489
 2445TIP3   OH228749   0.803   5.547   1.642 -0.0712 -0.0708 -0.2796
 2445TIP3    H128750   0.785   5.455   1.661 -0.0363  0.2540  1.4502
 2445TIP3    H228751   0.721   5.592   1.662  0.1854  0.3958 -0.2756
 2446TIP3   OH228752   6.046   3.734   5.080  0.6149  0.1185 -0.1704
 2446TIP3    H128753   5.983   3.698   5.142  1.1279 -1.2374 -0.4085
 2446TIP3    H228754   6.006   3.816   5.051 -0.6582 -0.3137  0.2739
 2447TIP3   OH228755   3.665   6.157  16.169 -0.8888  0.1141 -0.7465
 2447TIP3    H128756   3.703   6.216  16.234  0.0045 -1.2620  0.0480
 2447TIP3    H228757   3.570   6.168  16.179 -0.8137 -0.7141  1.4828
 2448TIP3   OH228758   0.936   0.199   4.176 -0.4580  0.3406  0.1082
 2448TIP3    H128759   0.945   0.279   4.124  1.2967 -1.0101 -1.8597
 2448TIP3    H228760   0.972   0.130   4.119 -0.7876 -1.6601  2.1902
 2449TIP3   OH228761   2.367   1.041  16.381  0.5823  0.2037 -0.4586
 2449TIP3    H128762   2.384   1.117  16.437 -0.5205 -0.8402  1.3820
 2449TIP3    H228763   2.454   1.006  16.362  0.9822 -0.4914  2.2205
 2450TIP3   OH228764   4.987   0.035   2.381 -0.4516 -0.4641 -0.0072
 2450TIP3    H128765   4.983   0.069   2.291 -1.2587  0.2546  0.2875
 2450TIP3    H228766   4.917  -0.029   2.386 -0.1268 -0.8255 -0.0093
 2451TIP3   OH228767   3.714   4.779  11.258  0.6042  0.2098  0.0524
 2451TIP3    H128768   3.711   4.749  11.349  2.9552 -0.5668 -0.0737
 2451TIP3    H228769   3.794   4.831  11.252 -0.3622  1.6460 -1.2148
 2452TIP3   OH228770   0.601   5.144  16.249  0.9502  0.1707 -0.9092
 2452TIP3    H128771   0.562   5.166  16.334  1.6422  0.7208 -0.7191
 2452TIP3    H228772   0.693   5.125  16.270  1.6334  2.2918 -1.7903
 2453TIP3   OH228773   4.705   4.829  15.767 -0.4125 -0.9890 -0.0607
 2453TIP3    H128774   4.688   4.905  15.710 -1.5471 -0.8398  0.4552
 2453TIP3    H228775   4.798   4.812  15.756 -0.7624 -1.6802 -2.8797
 2454TIP3   OH228776   4.259   5.433  12.226  0.5484 -0.1895  0.0849
 2454TIP3    H128777   4.180   5.456  12.177  0.8081 -2.1601 -1.3809
 2454TIP3    H228778   4.227   5.403  12.311 -0.3231 -1.1174 -0.5525
 2455TIP3   OH228779   6.026   2.262  16.664 -0.0896  0.1108 -0.5129
 2455TIP3    H128780   6.004   2.227  16.750  1.8285 -2.3767 -0.9274
 2455TIP3    H228781   5.950   2.241  16.610  0.4494 -2.4155 -0.4123
 2456TIP3   OH228782   4.217   4.024  16.732 -0.0332  0.0641 -0.3944
 2456TIP3    H128783   4.222   3.932  16.758 -0.4075  0.6005  1.8180
 2456TIP3    H228784   4.154   4.063  16.793  0.3803  1.8706 -1.0361
 2457TIP3   OH228785   4.630   4.705  14.579  0.1867  0.1506  0.1297
 2457TIP3    H128786   4.568   4.726  14.510 -0.4594  0.1673  0.6951
 2457TIP3    H228787   4.654   4.614  14.562 -0.4022 -0.0233  0.1996
 2458TIP3   OH228788   4.902   4.029   3.778  0.1213  0.6051 -0.0211
 2458TIP3    H128789   4.930   3.953   3.828  1.6245  2.1696  1.6296
 2458TIP3    H228790   4.974   4.046   3.717 -0.5233  0.3244 -0.8902
 2459TIP3   OH228791   0.072   1.951  13.171 -0.4364  0.0466 -0.5981
 2459TIP3    H128792  -0.014   1.993  13.177  0.5487  2.1535 -0.3726
 2459TIP3    H228793   0.053   1.857  13.171 -2.8744  0.4300 -2.5932
 2460TIP3   OH228794   2.431   6.172  16.919  0.4100 -0.7984  0.1222
 2460TIP3    H128795   2.484   6.249  16.899  1.6544 -1.5857  0.2860
 2460TIP3    H228796   2.413   6.133  16.833 -0.1343 -0.3983  0.0480
 2461TIP3   OH228797   2.628   5.682   2.597 -0.0961  0.3175 -0.3285
 2461TIP3    H128798   2.539   5.712   2.612 -0.6265 -1.1081 -0.4717
 2461TIP3    H228799   2.629   5.592   2.630  0.6917 -0.4318 -2.2253
 2462TIP3   OH228800   4.298   5.531   4.882 -0.0839  0.0113  0.0750
 2462TIP3    H128801   4.287   5.550   4.976 -0.9989 -2.2025  0.4849
 2462TIP3    H228802   4.373   5.585   4.855  2.0273 -1.2943  2.7688
 2463TIP3   OH228803   5.343   1.828   2.087  0.0314 -0.1892  0.3022
 2463TIP3    H128804   5.383   1.879   2.158 -0.5703  0.8403 -0.0783
 2463TIP3    H228805   5.272   1.883   2.055  0.3874 -0.5653 -1.2159
 2464TIP3   OH228806   2.693   5.589   2.965  0.1520 -0.2130 -0.1609
 2464TIP3    H128807   2.649   5.663   3.008  2.3802  1.2715 -0.3008
 2464TIP3    H228808   2.750   5.629   2.900  0.9240 -2.1272 -0.7301
 2465TIP3   OH228809   5.020   3.499  16.153 -0.6934 -0.3347 -0.3098
 2465TIP3    H128810   5.028   3.473  16.062  1.7784  0.2894 -0.3452
 2465TIP3    H228811   5.008   3.594  16.150 -0.0448 -0.2349  0.0011
 2466TIP3   OH228812   4.136   1.694   4.160  0.0865 -0.7522 -0.1373
 2466TIP3    H128813   4.087   1.653   4.089  0.8332 -2.0575  0.0654
 2466TIP3    H228814   4.116   1.787   4.152  0.9825 -0.6993 -2.7122
 2467TIP3   OH228815   0.830   3.124  10.156  0.5325  0.2892  0.2924
 2467TIP3    H128816   0.920   3.157  10.161  0.9539 -0.6926 -0.4676
 2467TIP3    H228817   0.832   3.044  10.209 -0.5538  1.5631  2.3972
 2468TIP3   OH228818   4.005   4.434  12.330 -0.1313 -0.0614 -0.2884
 2468TIP3    H128819   4.080   4.430  12.389 -0.1774 -0.8039 -0.2652
 2468TIP3    H228820   4.001   4.347  12.291 -0.4747  0.2323 -0.9204
 2469TIP3   OH228821   4.499   2.622   5.015 -0.0188 -0.1562 -0.4132
 2469TIP3    H128822   4.498   2.698   5.072  0.1594  0.2672 -0.9710
 2469TIP3    H228823   4.485   2.548   5.074  0.5974  0.2351  0.2357
 2470TIP3   OH228824   5.495   3.425   1.284  0.2733  0.1484  0.0549
 2470TIP3    H128825   5.530   3.339   1.304 -0.6685 -0.5930 -1.3369
 2470TIP3    H228826   5.570   3.484   1.294  0.6843 -0.6292  2.0770
 2471TIP3   OH228827   1.332   1.393   1.007 -0.0010  0.1975  0.3545
 2471TIP3    H128828   1.343   1.413   1.100 -0.0822  1.4740  0.1063
 2471TIP3    H228829   1.370   1.306   0.997  1.1260  0.5408  1.3600
 2472TIP3   OH228830   6.538   3.902   3.873 -0.2653 -0.2112  0.6212
 2472TIP3    H128831   6.616   3.916   3.926  0.9463 -0.0894 -1.1291
 2472TIP3    H228832   6.472   3.960   3.912  1.2657  1.6335  0.5799
 2473TIP3   OH228833   0.574   2.581  15.281 -0.1232 -0.5072 -0.1674
 2473TIP3    H128834   0.628   2.659  15.292  1.3381 -1.2538 -1.4661
 2473TIP3    H228835   0.505   2.607  15.221 -0.2152  0.0376  0.1763
 2474TIP3   OH228836   6.250   3.842   5.279  0.6507  0.1925 -0.3389
 2474TIP3    H128837   6.206   3.927   5.279  1.0108  0.6328  4.1939
 2474TIP3    H228838   6.182   3.779   5.256 -0.9611  1.3452  1.0130
 2475TIP3   OH228839   4.843   2.459  14.863  0.2007 -0.0012  0.0700
 2475TIP3    H128840   4.818   2.533  14.918  0.0001  0.2979 -0.4196
 2475TIP3    H228841   4.769   2.399  14.869 -0.4749  0.7044 -1.0585
 2476TIP3   OH228842   4.791   1.829   3.860 -0.2141 -0.3603  0.1333
 2476TIP3    H128843   4.825   1.842   3.948  1.1898 -0.9033 -0.2929
 2476TIP3    H228844   4.737   1.906   3.843  1.8194  1.2152  0.4132
 2477TIP3   OH228845   0.748   5.483  11.274 -0.0623  0.2177  0.0832
 2477TIP3    H128846   0.820   5.441  11.226  0.5238 -0.1757  1.2873
 2477TIP3    H228847   0.672   5.471  11.217  0.3593 -1.3457 -0.1946
 2478TIP3   OH228848   3.499   3.641  13.290 -0.7701  0.6871  0.1904
 2478TIP3    H128849   3.585   3.618  13.327 -0.5928 -1.0268 -1.1466
 2478TIP3    H228850   3.463   3.705  13.351  0.2968 -0.6019  2.2889
 2479TIP3   OH228851   1.123   3.000  13.865 -0.0966 -0.4173 -0.0279
 2479TIP3    H128852   1.155   2.932  13.807 -2.1815 -1.4464 -0.0561
 2479TIP3    H228853   1.137   3.082  13.817 -0.5737 -1.1256 -1.4076
 2480TIP3   OH228854   1.162   0.474  12.924  0.4889 -0.6696 -0.8527
 2480TIP3    H128855   1.123   0.403  12.975 -0.3948  0.3968  0.0033
 2480TIP3    H228856   1.087   0.524  12.892  1.1017  0.7119 -0.2188
 2481TIP3   OH228857   4.711   4.425  11.655 -0.0023  0.0831 -0.1830
 2481TIP3    H128858   4.692   4.440  11.748  1.5128 -2.2764  0.6087
 2481TIP3    H228859   4.760   4.502  11.627  0.8618  0.1561  1.4245
 2482TIP3   OH228860   0.455   3.582   5.908 -0.3027 -0.4075 -0.0267
 2482TIP3    H128861   0.499   3.520   5.966 -0.5692 -0.8881 -0.3257
 2482TIP3    H228862   0.366   3.587   5.942 -0.4948 -0.7907 -0.4645
 2483TIP3   OH228863   5.731   2.766   4.903 -0.3205  0.1724 -0.4797
 2483TIP3    H128864   5.745   2.793   4.993 -0.8010  1.7085 -0.8243
 2483TIP3    H228865   5.653   2.815   4.876  0.1784  0.2224 -1.9097
 2484TIP3   OH228866   4.896   0.406   6.302  0.4814  0.4743  0.0316
 2484TIP3    H128867   4.952   0.432   6.230  0.5317  2.5620  0.7556
 2484TIP3    H228868   4.813   0.452   6.287  0.5062  0.9876  1.3080
 2485TIP3   OH228869   6.482   1.074  10.628 -0.2587 -0.4797  0.2662
 2485TIP3    H128870   6.440   1.156  10.604 -0.0928 -0.2676  0.6856
 2485TIP3    H228871   6.409   1.014  10.644 -0.3735 -0.7519 -1.1313
 2486TIP3   OH228872   0.947   6.723  15.695  0.3779 -0.3288 -0.2775
 2486TIP3    H128873   1.000   6.645  15.675 -1.3783 -1.3453 -1.1495
 2486TIP3    H228874   0.913   6.707  15.783 -1.5032 -1.5029 -1.1587
 2487TIP3   OH228875   6.682   1.844  13.369  0.0093  0.8875 -0.0078
 2487TIP3    H128876   6.649   1.809  13.452  2.4568  0.9933  1.0858
 2487TIP3    H228877   6.690   1.768  13.313  0.1293  0.5137  0.5085
 2488TIP3   OH228878   2.844   1.803   0.849  0.7443  0.1451 -0.2522
 2488TIP3    H128879   2.762   1.781   0.805  0.6060 -0.0389  0.0972
 2488TIP3    H228880   2.904   1.822   0.777  0.6813 -0.7113 -0.5516
 2489TIP3   OH228881   5.555   1.704  11.436  0.0733 -0.1168  0.5890
 2489TIP3    H128882   5.586   1.691  11.347  1.6377  0.7498  0.9891
 2489TIP3    H228883   5.483   1.641  11.445 -0.6130  0.2924 -1.4971
 2490TIP3   OH228884   6.661   1.132   3.162  0.0481 -0.6292  0.1429
 2490TIP3    H128885   6.717   1.055   3.172  0.6964 -0.1444  0.3180
 2490TIP3    H228886   6.708   1.188   3.102  0.5199  0.4768  1.4850
 2491TIP3   OH228887   5.282   0.559   1.943 -0.2785  0.8895  0.3689
 2491TIP3    H128888   5.186   0.563   1.938 -0.2422  1.2922 -0.1475
 2491TIP3    H228889   5.304   0.471   1.911 -0.5099  0.5421  1.1558
 2492TIP3   OH228890   6.301   1.516  14.932 -0.1815  0.0086 -0.2509
 2492TIP3    H128891   6.308   1.463  14.853 -1.4584 -0.9003  0.1886
 2492TIP3    H228892   6.390   1.544  14.951  0.7452 -2.7961  0.0069
 2493TIP3   OH228893   1.694   5.200   5.912 -0.0998 -0.0386  0.1358
 2493TIP3    H128894   1.650   5.262   5.970 -0.9725 -0.3307 -0.1912
 2493TIP3    H228895   1.778   5.240   5.892 -0.3069  0.6409  0.6039
 2494TIP3   OH228896   5.779   6.302  14.162 -0.5548  0.0073 -0.4488
 2494TIP3    H128897   5.702   6.245  14.161 -0.8673  0.4144 -1.7169
 2494TIP3    H228898   5.853   6.242  14.173 -1.0704 -0.3010  1.8208
 2495TIP3   OH228899   2.082   5.556  12.020 -0.7092 -0.5958 -0.0302
 2495TIP3    H128900   2.051   5.639  11.984 -2.5215 -1.1693  0.1113
 2495TIP3    H228901   2.132   5.516  11.948  1.9889  1.4426  0.5365
 2496TIP3   OH228902   4.891   3.079   2.836  0.0934  1.0658 -0.2600
 2496TIP3    H128903   4.806   3.090   2.791 -0.3219  0.1670  0.2824
 2496TIP3    H228904   4.953   3.064   2.765 -0.4716  0.1723 -0.5832
 2497TIP3   OH228905   3.001   4.581  13.942  0.0399  0.1556  0.1322
 2497TIP3    H128906   2.907   4.600  13.942  0.1022  0.4710  0.0241
 2497TIP3    H228907   3.006   4.486  13.956 -0.2302  0.4308  2.4503
 2498TIP3   OH228908   6.655   3.999   2.552  0.2065  0.3322 -0.0373
 2498TIP3    H128909   6.564   3.995   2.521 -0.5956  2.2208  1.8182
 2498TIP3    H228910   6.657   3.941   2.627  0.7970 -0.3994 -0.6114
 2499TIP3   OH228911   2.368   2.633  13.945 -0.2174  1.0750 -0.1539
 2499TIP3    H128912   2.435   2.572  13.977  0.0578  1.4525 -0.0040
 2499TIP3    H228913   2.286   2.599  13.982 -0.1253  0.5612 -0.4105
 2500TIP3   OH228914   0.768   3.378  12.007 -0.0513 -0.3108 -0.3078
 2500TIP3    H128915   0.767   3.463  12.051 -1.1775 -1.0921  1.3108
 2500TIP3    H228916   0.743   3.397  11.917  0.6528  1.1756 -0.2123
 2501TIP3   OH228917   3.558   5.851   5.491 -0.0625 -0.7529 -0.2061
 2501TIP3    H128918   3.499   5.917   5.455 -0.8608 -1.5181 -0.3094
 2501TIP3    H228919   3.612   5.824   5.416  0.4322 -0.0616 -0.1121
 2502TIP3   OH228920   4.691   5.939   4.340 -0.3503 -0.1337 -0.3652
 2502TIP3    H128921   4.606   5.978   4.318 -1.1573 -1.4458  0.2894
 2502TIP3    H228922   4.677   5.845   4.330  0.9710 -0.3805 -0.0325
 2503TIP3   OH228923   5.725   6.214  16.057 -0.4212  0.4789  0.7940
 2503TIP3    H128924   5.668   6.241  16.129 -1.9941 -0.6899  0.0649
 2503TIP3    H228925   5.710   6.279  15.988 -0.4805  0.4796  0.8077
 2504TIP3   OH228926   6.122   3.899  15.543  0.1260 -0.3719 -0.1898
 2504TIP3    H128927   6.042   3.851  15.523 -0.1943  0.5725 -1.2480
 2504TIP3    H228928   6.092   3.978  15.588  0.5661 -0.5571  0.4544
 2505TIP3   OH228929   6.519   2.811  13.221  0.0433 -0.1880 -0.0959
 2505TIP3    H128930   6.427   2.835  13.229  0.0551  0.9461 -2.3671
 2505TIP3    H228931   6.566   2.881  13.268 -0.1955  0.8967 -1.3874
 2506TIP3   OH228932   0.012   4.970   3.023  0.4767  0.0660 -0.4319
 2506TIP3    H128933   0.009   4.940   3.114  1.6043  1.8741  0.2372
 2506TIP3    H228934   0.105   4.975   3.002  0.2914 -3.0012 -2.6870
 2507TIP3   OH228935   1.745   1.745  16.611  0.3222  0.2584 -0.1709
 2507TIP3    H128936   1.782   1.686  16.676  0.1941  1.3555  0.9368
 2507TIP3    H228937   1.654   1.757  16.640  0.1011  0.3033 -0.8807
 2508TIP3   OH228938   3.375   1.761   4.094  0.3997 -0.2963 -0.1777
 2508TIP3    H128939   3.428   1.757   4.174  1.0321  2.3501 -0.3622
 2508TIP3    H228940   3.285   1.764   4.125  0.6279  0.3487  0.4470
 2509TIP3   OH228941   3.940   2.634   4.714 -0.5223  0.2535 -0.1189
 2509TIP3    H128942   3.933   2.729   4.714 -0.1994  0.2814  0.4170
 2509TIP3    H228943   3.852   2.604   4.739  0.1593  0.5105  2.9572
 2510TIP3   OH228944   4.028   2.853   5.198  0.3238  0.3021 -0.3801
 2510TIP3    H128945   4.004   2.909   5.124  2.0703 -0.3699 -1.5203
 2510TIP3    H228946   3.969   2.881   5.268 -0.1442  2.2522 -1.4494
 2511TIP3   OH228947   5.704   0.478   3.575 -0.8733 -0.4785 -0.1331
 2511TIP3    H128948   5.796   0.456   3.557 -1.0813 -1.8827  0.4428
 2511TIP3    H228949   5.656   0.443   3.500 -1.1291 -1.3222  0.4238
 2512TIP3   OH228950   4.146   2.043   1.561 -0.0502 -0.0818  0.3572
 2512TIP3    H128951   4.149   2.139   1.560 -0.3731 -0.0654  0.6501
 2512TIP3    H228952   4.070   2.023   1.615 -0.7233 -0.4856 -0.7115
 2513TIP3   OH228953   5.623   1.164  12.678  0.6378  0.1507  0.3575
 2513TIP3    H128954   5.606   1.256  12.655  0.1194  0.4034  1.6665
 2513TIP3    H228955   5.550   1.139  12.734  0.4578 -1.2776 -0.4560
 2514TIP3   OH228956   4.060   0.574  15.769 -0.0914  0.0764  0.0287
 2514TIP3    H128957   3.984   0.549  15.716  0.2139  0.3225 -0.5417
 2514TIP3    H228958   4.049   0.528  15.852 -1.0008  0.3194  0.0492
 2515TIP3   OH228959   5.834   4.790   6.149 -0.2032  0.0692  0.4044
 2515TIP3    H128960   5.819   4.884   6.156 -1.7175 -0.0571 -0.7299
 2515TIP3    H228961   5.927   4.779   6.168 -0.3193  1.5990  2.0956
 2516TIP3   OH228962   2.081   6.174   2.506  0.2409  0.5327  0.5769
 2516TIP3    H128963   2.174   6.167   2.483 -0.7803 -2.6064 -3.8355
 2516TIP3    H228964   2.051   6.251   2.459 -0.0106 -0.4881 -0.9791
 2517TIP3   OH228965   3.675   5.163   4.014 -0.5350 -0.3783 -0.0018
 2517TIP3    H128966   3.591   5.198   4.044 -0.9677 -0.3793 -1.1780
 2517TIP3    H228967   3.708   5.229   3.953  1.0996  0.3846  1.5956
 2518TIP3   OH228968   1.998   6.128   5.831  0.0570 -0.4782 -0.2311
 2518TIP3    H128969   1.917   6.152   5.786  0.2296 -0.0643 -0.3288
 2518TIP3    H228970   2.060   6.111   5.760  1.2137  3.1131 -0.2617
 2519TIP3   OH228971   0.175   4.196   2.068 -0.0201  0.3360  0.1903
 2519TIP3    H128972   0.263   4.189   2.105  0.1108  1.5462  0.1466
 2519TIP3    H228973   0.165   4.117   2.015  0.5886 -0.3965  1.1213
 2520TIP3   OH228974   2.187   4.223  13.460 -0.3660  0.5927  0.6070
 2520TIP3    H128975   2.192   4.251  13.369 -0.0146 -0.0540  0.4220
 2520TIP3    H228976   2.209   4.301  13.511 -1.1085  1.1074  0.1633
 2521TIP3   OH228977   0.313   1.832   1.106  0.0755  0.7053 -0.3509
 2521TIP3    H128978   0.248   1.897   1.083  0.8987  1.6841 -0.0077
 2521TIP3    H228979   0.370   1.877   1.169  0.2315 -0.5823  0.4668
 2522TIP3   OH228980   5.627   0.212  15.697  0.5227 -0.1568 -0.2202
 2522TIP3    H128981   5.535   0.237  15.696  1.2652  3.0877  0.1289
 2522TIP3    H228982   5.639   0.166  15.780 -0.6632 -0.0210  0.0372
 2523TIP3   OH228983   3.016   1.546  14.331 -0.5006  0.1471  0.1148
 2523TIP3    H128984   3.025   1.591  14.415  0.0556 -0.3131  0.3084
 2523TIP3    H228985   2.954   1.475  14.348  0.8373 -0.9414  0.5635
 2524TIP3   OH228986   6.749   5.583  11.059  0.1617 -0.3654 -0.3246
 2524TIP3    H128987   6.676   5.585  10.997 -1.1857  1.9009  1.1995
 2524TIP3    H228988   6.825   5.605  11.006 -0.8238  0.7401 -1.3499
 2525TIP3   OH228989   4.375   1.563  10.548 -0.1139 -0.3383 -0.1722
 2525TIP3    H128990   4.334   1.477  10.553 -0.5731 -0.1694 -0.8620
 2525TIP3    H228991   4.467   1.547  10.567 -0.3682 -0.8245  0.7080
 2526TIP3   OH228992   1.372   0.260   3.212 -0.5771  0.1265 -0.1273
 2526TIP3    H128993   1.414   0.326   3.267 -2.4605 -0.9019  2.7591
 2526TIP3    H228994   1.333   0.311   3.140  1.3106  1.6266 -0.1717
 2527TIP3   OH228995   0.823   6.170   0.446 -0.3677 -0.0355  0.1662
 2527TIP3    H128996   0.765   6.186   0.521 -2.0574  2.0579 -1.4554
 2527TIP3    H228997   0.780   6.100   0.397 -1.2675  1.0914 -0.7081
 2528TIP3   OH228998   0.817   6.113   1.739  0.1781 -0.2466  0.1566
 2528TIP3    H128999   0.747   6.048   1.742  0.2710 -0.3606 -0.1072
 2528TIP3    H229000   0.843   6.117   1.647 -0.8989  1.3282 -0.1245
 2529TIP3   OH229001   4.714   1.318  15.220 -0.0905  0.5107  0.2592
 2529TIP3    H129002   4.623   1.293  15.237 -0.5639  0.5128 -1.9265
 2529TIP3    H229003   4.707   1.390  15.157  1.4145  1.5792  1.2619
 2530TIP3   OH229004   5.949   3.349   5.244 -0.3905  0.1620 -0.0630
 2530TIP3    H129005   6.012   3.279   5.234  1.5247  1.7983 -0.0175
 2530TIP3    H229006   5.962   3.405   5.168 -3.5141 -0.6405 -1.3726
 2531TIP3   OH229007   2.949   1.532  13.320 -0.7028  0.3945 -0.1906
 2531TIP3    H129008   3.044   1.534  13.319 -0.6802 -0.3863 -0.5254
 2531TIP3    H229009   2.924   1.525  13.228 -1.0693  0.3717 -0.0919
 2532TIP3   OH229010   0.397   0.924   0.798 -0.1455  0.5361 -0.0971
 2532TIP3    H129011   0.343   0.921   0.718 -0.0270  1.1108 -0.1981
 2532TIP3    H229012   0.377   0.841   0.843 -2.0577  1.2555  0.4831
 2533TIP3   OH229013   3.133   4.952  15.599 -0.1052 -0.0819  0.0261
 2533TIP3    H129014   3.150   4.883  15.664 -2.2568 -1.3988 -0.7108
 2533TIP3    H229015   3.212   4.953  15.544  1.1972  0.1396  1.7946
 2534TIP3   OH229016   6.630   0.903  16.943  0.3057  0.8300  0.3434
 2534TIP3    H129017   6.541   0.876  16.918  0.8058 -0.9797  0.3762
 2534TIP3    H229018   6.688   0.854  16.884  1.3527 -0.2709  2.1861
 2535TIP3   OH229019   6.734   1.063  15.445 -0.2771 -0.1369  0.2662
 2535TIP3    H129020   6.815   1.013  15.440  1.4329  2.5905 -2.3567
 2535TIP3    H229021   6.751   1.129  15.512 -0.1839  0.6813 -0.5612
 2536TIP3   OH229022   1.577   4.558  13.248  0.2652 -0.4260 -0.3285
 2536TIP3    H129023   1.540   4.614  13.316 -0.8935 -1.4105 -0.1272
 2536TIP3    H229024   1.637   4.499  13.295 -0.9596 -1.4830 -0.0410
 2537TIP3   OH229025   2.395   3.148  12.036 -0.9923 -0.1269  0.1415
 2537TIP3    H129026   2.459   3.077  12.048 -0.9831  0.1756  2.1525
 2537TIP3    H229027   2.312   3.103  12.023 -0.6558 -0.5041 -0.8238
 2538TIP3   OH229028   5.821   1.356   0.602  0.4225 -0.7238 -0.1215
 2538TIP3    H129029   5.910   1.391   0.601  0.0607  0.2280 -1.3057
 2538TIP3    H229030   5.823   1.285   0.538  0.2097 -0.3717 -0.5214
 2539TIP3   OH229031   2.614   5.842   2.982 -0.3238  0.4839 -0.1900
 2539TIP3    H129032   2.578   5.905   3.045  0.4566 -1.3989  2.2925
 2539TIP3    H229033   2.658   5.896   2.916 -0.7051  2.5556  1.1677
 2540TIP3   OH229034   4.660   1.130  11.278  0.1916  0.0221  0.5407
 2540TIP3    H129035   4.630   1.141  11.188  0.9145 -1.5129  0.0636
 2540TIP3    H229036   4.706   1.046  11.277  0.1176 -0.0769  2.3754
 2541TIP3   OH229037   5.535   1.505  15.067  0.6926 -0.7452 -0.0368
 2541TIP3    H129038   5.586   1.444  15.014  0.0578 -1.9789  0.7432
 2541TIP3    H229039   5.492   1.451  15.133  0.1712  0.5537  0.7342
 2542TIP3   OH229040   0.206   2.267   3.653 -0.2237 -0.2913  0.1159
 2542TIP3    H129041   0.147   2.339   3.676 -0.7352 -0.7987  0.4231
 2542TIP3    H229042   0.261   2.303   3.583 -0.5979  0.3362  0.1304
 2543TIP3   OH229043   6.268   6.038   2.064  0.3494 -0.1065  0.0660
 2543TIP3    H129044   6.218   6.088   2.128  0.1565  0.7957 -0.7640
 2543TIP3    H229045   6.256   5.946   2.090 -2.6981 -0.0230 -0.7567
 2544TIP3   OH229046   5.310   2.978  16.992 -0.3043 -0.2304 -0.2641
 2544TIP3    H129047   5.382   2.945  17.046  0.9359  1.0744 -1.0703
 2544TIP3    H229048   5.286   3.061  17.033 -0.4349 -0.0148 -0.7739
 2545TIP3   OH229049   4.478   5.305  12.783  0.3069 -0.3794  0.4340
 2545TIP3    H129050   4.383   5.313  12.771  0.4185  1.8939  0.7149
 2545TIP3    H229051   4.509   5.395  12.791  2.4787 -1.0880  0.5827
 2546TIP3   OH229052   3.963   6.696  11.200 -0.0772  0.5077  0.7411
 2546TIP3    H129053   3.978   6.791  11.199 -1.2458  0.7065  0.4514
 2546TIP3    H229054   4.042   6.660  11.241  0.4048  1.5943  0.8195
 2547TIP3   OH229055   6.400   2.493   3.008 -0.6181 -0.5407 -0.0794
 2547TIP3    H129056   6.320   2.503   2.957  0.2453 -0.0282 -1.4190
 2547TIP3    H229057   6.379   2.429   3.076 -2.2211 -0.1946 -0.2244
 2548TIP3   OH229058   1.573   0.294   2.537  0.1408  0.6191  0.5720
 2548TIP3    H129059   1.630   0.242   2.480 -0.8794 -0.9730  0.9364
 2548TIP3    H229060   1.484   0.273   2.507 -0.3175  1.7696  1.0790
 2549TIP3   OH229061   0.276   0.491   5.051  0.0407 -0.2620 -0.0498
 2549TIP3    H129062   0.299   0.407   5.091 -1.1630 -0.8253 -0.4749
 2549TIP3    H229063   0.354   0.517   5.003  0.3052 -1.3361 -0.2307
 2550TIP3   OH229064   4.657   3.302   5.888 -0.6064 -0.3894  0.1092
 2550TIP3    H129065   4.645   3.355   5.967  0.7926  1.1622 -0.6774
 2550TIP3    H229066   4.570   3.296   5.849 -0.8114  1.3181  0.2467
 2551TIP3   OH229067   5.521   5.766   5.098  0.0245  0.0322  0.3222
 2551TIP3    H129068   5.612   5.759   5.069 -0.5586  0.7344 -1.8480
 2551TIP3    H229069   5.512   5.698   5.165  2.2622  0.2869  0.9689
 2552TIP3   OH229070   3.997   6.695   5.614  0.4112 -0.1379 -0.1436
 2552TIP3    H129071   4.070   6.728   5.562  0.8549 -0.1058  0.4882
 2552TIP3    H229072   4.033   6.621   5.663  0.7230  1.3524  2.0311
 2553TIP3   OH229073   2.916   0.318   0.706  0.4615  0.1515  0.2349
 2553TIP3    H129074   2.915   0.364   0.623 -0.9485 -0.0649  0.0916
 2553TIP3    H229075   2.886   0.229   0.684  4.0851 -1.2512  0.3215
 2554TIP3   OH229076   0.526   4.682  11.247 -0.3748  0.0707 -0.3817
 2554TIP3    H129077   0.567   4.759  11.285  1.4008 -1.3539  0.8000
 2554TIP3    H229078   0.440   4.712  11.216 -0.9037  1.9276  2.5046
 2555TIP3   OH229079   6.645   6.151  16.540 -0.1760 -0.2038 -0.0074
 2555TIP3    H129080   6.685   6.198  16.466 -1.1956  0.4283 -0.1757
 2555TIP3    H229081   6.718   6.132  16.599  0.9104 -1.8646 -1.7392
 2556TIP3   OH229082   4.147   3.142   2.595  0.3903 -0.6825  0.5443
 2556TIP3    H129083   4.082   3.076   2.618 -0.1942  0.1210  1.2777
 2556TIP3    H229084   4.177   3.117   2.507 -0.9872 -1.0172  0.1409
 2557TIP3   OH229085   3.962   1.246   0.529  0.0513 -0.0786  0.2120
 2557TIP3    H129086   3.935   1.155   0.543 -0.9017 -0.2697 -2.4072
 2557TIP3    H229087   4.003   1.246   0.442  0.3086  1.9602  0.2855
 2558TIP3   OH229088   0.896   4.448  12.905 -0.5873 -0.6275  0.1123
 2558TIP3    H129089   0.968   4.445  12.842 -0.2763 -0.8887  0.4678
 2558TIP3    H229090   0.827   4.498  12.862  0.4500  1.1550  0.4222
 2559TIP3   OH229091   1.560   1.258   6.140  0.2054  0.1296 -0.7920
 2559TIP3    H129092   1.592   1.171   6.118  0.8265  0.3131 -0.6234
 2559TIP3    H229093   1.636   1.304   6.176 -0.7793 -0.2586  2.0251
 2560TIP3   OH229094   6.084   4.573  11.763 -0.2093  0.3314 -0.4969
 2560TIP3    H129095   6.074   4.528  11.679  0.2356  0.1989 -0.4823
 2560TIP3    H229096   6.085   4.666  11.740  0.2329  0.2860 -0.6778
 2561TIP3   OH229097   0.001   5.383   4.806  0.5850  0.2281  0.0849
 2561TIP3    H129098   0.071   5.387   4.741  1.5911  0.4418  1.1475
 2561TIP3    H229099  -0.003   5.290   4.830 -0.9446 -0.1551 -1.4644
 2562TIP3   OH229100   5.223   1.655  13.316  0.0874  0.1010  0.0575
 2562TIP3    H129101   5.148   1.698  13.275  1.1934  0.6170 -1.4955
 2562TIP3    H229102   5.271   1.726  13.360 -0.1700 -0.1860  0.8264
 2563TIP3   OH229103   3.479   3.277   0.841 -0.0398 -0.1179 -0.2867
 2563TIP3    H129104   3.571   3.256   0.856  0.4327  1.0978 -1.2979
 2563TIP3    H229105   3.433   3.194   0.854  1.4602 -1.2944 -2.0102
 2564TIP3   OH229106   2.383   4.208  16.400  0.3199 -0.5760  0.3214
 2564TIP3    H129107   2.318   4.269  16.435 -0.0607 -1.2105  0.7456
 2564TIP3    H229108   2.452   4.264  16.365  0.0111  0.0943  0.7647
 2565TIP3   OH229109   2.263   4.940   3.015 -0.2386 -0.4767 -0.2411
 2565TIP3    H129110   2.177   4.915   2.983 -0.3491 -0.8965  0.3615
 2565TIP3    H229111   2.323   4.879   2.971 -0.3908 -1.0565  0.3288
 2566TIP3   OH229112   3.046   3.101   1.237 -0.0536 -0.3827 -0.0721
 2566TIP3    H129113   3.087   3.168   1.182  0.9204  0.2215  1.3286
 2566TIP3    H229114   3.059   3.019   1.190 -1.3497  0.3699 -1.8713
 2567TIP3   OH229115   4.466   2.885   1.857 -0.1971 -0.2333  0.4751
 2567TIP3    H129116   4.456   2.827   1.933 -1.7839 -1.9932 -0.9417
 2567TIP3    H229117   4.382   2.877   1.810  0.0781  2.1367 -0.5705
 2568TIP3   OH229118   1.076   0.913  16.674  0.4315  0.5985 -0.3605
 2568TIP3    H129119   1.089   0.968  16.596 -1.8116 -0.5031 -1.6040
 2568TIP3    H229120   1.120   0.831  16.653 -0.0022  0.3723 -0.3984
 2569TIP3   OH229121   1.593   4.877   6.696 -0.2386 -0.7577 -0.4330
 2569TIP3    H129122   1.642   4.826   6.760 -1.7257  0.6427  1.9872
 2569TIP3    H229123   1.519   4.822   6.673 -0.3779 -0.7684  0.0375
 2570TIP3   OH229124   2.191   4.081   3.446 -0.7460 -0.4119  0.6691
 2570TIP3    H129125   2.102   4.048   3.450 -0.4583 -1.1278  1.3117
 2570TIP3    H229126   2.181   4.174   3.424 -1.6020 -0.6705 -0.0995
 2571TIP3   OH229127   1.489   5.826   1.594 -0.1347 -0.1570  0.3224
 2571TIP3    H129128   1.421   5.813   1.661 -0.1048 -0.1786  0.3486
 2571TIP3    H229129   1.571   5.815   1.642 -0.1193 -1.4541  0.0387
 2572TIP3   OH229130   0.950   1.691   3.883 -0.2800 -0.2081  0.1020
 2572TIP3    H129131   0.998   1.729   3.955  1.9205 -0.4263 -1.1613
 2572TIP3    H229132   0.897   1.621   3.923 -0.5739  0.8968  1.7123
 2573TIP3   OH229133   0.571   1.272  10.996  0.6155  0.2051 -0.0330
 2573TIP3    H129134   0.489   1.301  10.955  0.7540 -0.4822 -0.8064
 2573TIP3    H229135   0.619   1.229  10.926  0.7319 -1.2648  0.9200
 2574TIP3   OH229136   0.316   0.819   5.389  0.2105 -0.3482  0.3182
 2574TIP3    H129137   0.225   0.810   5.360 -0.0657 -0.9920  1.3151
 2574TIP3    H229138   0.366   0.835   5.309 -0.7652 -0.1231 -0.2540
 2575TIP3   OH229139   5.240   3.540  16.358 -0.3244  0.0973  0.0259
 2575TIP3    H129140   5.165   3.519  16.303  0.0862 -1.1686 -0.0716
 2575TIP3    H229141   5.308   3.567  16.296 -0.4292  0.4498  0.0584
 2576TIP3   OH229142   1.657   2.133   4.685  0.1353 -0.0711 -0.4079
 2576TIP3    H129143   1.670   2.227   4.670 -0.0804  0.0234 -0.0288
 2576TIP3    H229144   1.712   2.113   4.761 -0.0461 -0.1872 -0.3075
 2577TIP3   OH229145   6.715   2.714   4.407 -0.4739  0.2048 -0.1197
 2577TIP3    H129146   6.750   2.638   4.452 -0.1597 -0.0790 -0.8374
 2577TIP3    H229147   6.788   2.748   4.355 -0.0586  2.0727  1.5386
 2578TIP3   OH229148   3.237   5.357  15.550 -0.0263 -0.6168  0.1036
 2578TIP3    H129149   3.307   5.317  15.601 -0.7083 -1.0710  0.7080
 2578TIP3    H229150   3.236   5.308  15.468 -0.3384 -1.3528  0.5276
 2579TIP3   OH229151   2.336   4.860  12.304 -1.0100  0.7117  0.5883
 2579TIP3    H129152   2.293   4.919  12.242 -0.1987 -1.7541 -2.5514
 2579TIP3    H229153   2.270   4.845  12.372 -4.0653 -0.4285 -2.3736
 2580TIP3   OH229154   4.107   6.187   0.809 -0.4896  0.3773  0.6076
 2580TIP3    H129155   4.084   6.104   0.850  0.2389 -0.0227  0.2206
 2580TIP3    H229156   4.201   6.194   0.819 -0.4423  0.7835 -0.0504
 2581TIP3   OH229157   4.704   2.851  11.477  0.0530 -0.1239  0.1854
 2581TIP3    H129158   4.796   2.843  11.454 -0.3869 -1.4312 -1.3378
 2581TIP3    H229159   4.672   2.761  11.478 -1.4673  0.3773 -0.5190
 2582TIP3   OH229160   0.662   3.492   3.750  0.4977 -0.3337 -0.0985
 2582TIP3    H129161   0.738   3.529   3.793  0.8918 -0.4322 -0.7020
 2582TIP3    H229162   0.633   3.422   3.809 -0.8105  1.4709  1.5153
 2583TIP3   OH229163   5.102   2.982  15.199 -0.4721  0.1050 -0.0470
 2583TIP3    H129164   5.129   2.954  15.287  1.0458 -1.0824 -0.8397
 2583TIP3    H229165   5.009   3.003  15.208  0.0743  1.8846  2.2532
 2584TIP3   OH229166   1.614   3.874  13.431  0.1329  0.1796 -0.0668
 2584TIP3    H129167   1.584   3.800  13.484 -0.5464 -1.3560 -2.3949
 2584TIP3    H229168   1.709   3.871  13.438  0.0947 -0.5765  0.3327
 2585TIP3   OH229169   2.428   6.001  11.572  0.0571  0.3584 -0.2049
 2585TIP3    H129170   2.335   5.997  11.592  0.1388  0.6667  0.2462
 2585TIP3    H229171   2.439   6.084  11.525 -0.3972 -1.0298 -2.9929
 2586TIP3   OH229172   5.924   4.668   0.691  0.4656  0.4995  0.2597
 2586TIP3    H129173   5.844   4.622   0.666 -0.4454  2.6268 -1.0688
 2586TIP3    H229174   5.991   4.600   0.696 -0.7596 -0.9509 -1.7030
 2587TIP3   OH229175   4.397   4.545  16.050 -0.6816  0.0294 -0.6805
 2587TIP3    H129176   4.426   4.569  15.962  0.0488  1.1642 -0.1512
 2587TIP3    H229177   4.301   4.552  16.046 -0.6114  0.8938 -1.1702
 2588TIP3   OH229178   6.056   3.871   3.410 -0.1320 -0.0996 -0.4895
 2588TIP3    H129179   6.015   3.801   3.461  1.1166 -0.9661 -0.6311
 2588TIP3    H229180   5.982   3.919   3.373 -1.0509 -0.3399  0.9146
 2589TIP3   OH229181   3.100   4.274  16.935  0.0333  0.0495  0.0293
 2589TIP3    H129182   3.041   4.319  16.875 -0.4316 -1.0509 -0.3596
 2589TIP3    H229183   3.124   4.194  16.889 -0.1330 -0.6957  1.1998
 2590TIP3   OH229184   1.932   6.089  13.143  0.1784  0.0783 -0.1061
 2590TIP3    H129185   2.023   6.063  13.157  1.3469  3.5929 -0.3328
 2590TIP3    H229186   1.898   6.107  13.230  0.0680 -0.1126 -0.1088
 2591TIP3   OH229187   6.613   3.184  16.120  0.6398  0.4472 -0.2324
 2591TIP3    H129188   6.579   3.273  16.129  1.4937  0.7367  0.2792
 2591TIP3    H229189   6.688   3.181  16.180 -1.4239 -1.6706  2.4719
 2592TIP3   OH229190   3.200   3.008   0.152  0.0266  0.4264  0.1416
 2592TIP3    H129191   3.251   2.937   0.191  2.4752  0.8459 -2.0695
 2592TIP3    H229192   3.132   2.964   0.101  1.3964 -0.3953 -1.0400
 2593TIP3   OH229193   2.190   5.570   3.457  0.3451 -0.1982  0.5262
 2593TIP3    H129194   2.197   5.601   3.547  2.1116 -0.8405  0.6377
 2593TIP3    H229195   2.205   5.476   3.462  0.5133 -0.2381 -0.4590
 2594TIP3   OH229196   3.704   0.013  11.978 -0.1645 -0.3153  0.1111
 2594TIP3    H129197   3.784  -0.030  12.007 -1.0068 -1.0873  1.3906
 2594TIP3    H229198   3.680  -0.034  11.898  0.5533 -0.1820 -0.1943
 2595TIP3   OH229199   3.079   2.786   5.372 -0.1017 -0.6233 -0.0210
 2595TIP3    H129200   3.103   2.719   5.309 -1.8013 -0.2871 -1.1129
 2595TIP3    H229201   3.020   2.742   5.434 -0.1398 -0.4618  0.0602
 2596TIP3   OH229202   2.034   5.087  12.596  0.1597 -0.1285 -0.6095
 2596TIP3    H129203   2.092   5.019  12.630  0.8062 -1.5525 -4.1040
 2596TIP3    H229204   2.042   5.080  12.501 -3.1204  2.0005 -1.2114
 2597TIP3   OH229205   0.475   5.823   0.435  0.3294  0.1154 -0.3514
 2597TIP3    H129206   0.465   5.868   0.351 -0.1161 -0.7755 -0.7771
 2597TIP3    H229207   0.428   5.741   0.425  0.4521 -0.0997  0.7031
 2598TIP3   OH229208   4.718   4.823  16.912  0.1673  0.1060 -0.0751
 2598TIP3    H129209   4.800   4.778  16.894  0.6993  0.1072  2.0553
 2598TIP3    H229210   4.744   4.910  16.942 -0.7031  0.7150 -1.0230
 2599TIP3   OH229211   3.250   2.494   3.412 -0.7201 -0.4369  0.3282
 2599TIP3    H129212   3.206   2.577   3.391  1.6617  1.2932  1.6413
 2599TIP3    H229213   3.262   2.497   3.507  1.2381 -1.2694  0.1485
 2600TIP3   OH229214   0.781   4.991   4.117  0.6510  0.2788  0.4417
 2600TIP3    H129215   0.858   5.014   4.169 -0.0945  2.8912  0.5045
 2600TIP3    H229216   0.713   4.973   4.182  0.7753 -0.4964  0.3684
 2601TIP3   OH229217   3.392   5.131   4.043 -0.3100  0.6176 -0.3042
 2601TIP3    H129218   3.434   5.060   4.092 -0.2186  0.9977  0.1848
 2601TIP3    H229219   3.368   5.195   4.110  0.7134  1.6092 -0.8404
 2602TIP3   OH229220   2.816   1.900  13.398 -0.2334  0.2821 -0.2003
 2602TIP3    H129221   2.875   1.825  13.407  1.0980  1.4345  1.1433
 2602TIP3    H229222   2.819   1.920  13.304  1.1596  0.0046 -0.2477
 2603TIP3   OH229223   0.208   4.907  11.372  0.5268  0.4302  0.2550
 2603TIP3    H129224   0.257   4.947  11.444  0.2614  0.6176  0.3336
 2603TIP3    H229225   0.247   4.944  11.293 -0.2130  1.4420  0.3433
 2604TIP3   OH229226   6.756   5.040  12.846  0.4529  0.0511 -0.0153
 2604TIP3    H129227   6.700   5.117  12.838 -0.2928 -0.3921  0.7723
 2604TIP3    H229228   6.753   5.017  12.939  2.7827  0.6169  0.2558
 2605TIP3   OH229229   4.108   5.772   5.032  0.2468  0.1027 -0.0331
 2605TIP3    H129230   4.173   5.721   5.080  0.2393 -0.8584 -1.0071
 2605TIP3    H229231   4.107   5.734   4.944 -1.7582 -0.0375 -0.0005
 2606TIP3   OH229232   6.417   5.143   3.281 -0.2106 -0.4303  0.5094
 2606TIP3    H129233   6.351   5.212   3.280  0.4356  0.1984 -0.1127
 2606TIP3    H229234   6.439   5.129   3.188  0.4693 -0.6851  0.7002
 2607TIP3   OH229235   6.406   4.609  11.137  0.0972  0.0020 -0.3344
 2607TIP3    H129236   6.323   4.593  11.181  0.4547  0.7377  0.6560
 2607TIP3    H229237   6.469   4.556  11.185  0.7500  1.9006  1.0710
 2608TIP3   OH229238   4.530   3.060  11.098 -0.0827 -0.2817  0.2657
 2608TIP3    H129239   4.465   3.024  11.038 -0.7716  0.1286  0.7499
 2608TIP3    H229240   4.484   3.129  11.144  0.8830  0.4250  0.1939
 2609TIP3   OH229241   0.985   4.057   3.911  0.0384  0.4879  0.0127
 2609TIP3    H129242   0.972   4.048   4.006  0.5228  1.0047  0.1351
 2609TIP3    H229243   0.985   3.968   3.878 -0.1317  0.3031  0.5012
 2610TIP3   OH229244   4.735   4.275   5.441  0.5580 -0.3713  0.3482
 2610TIP3    H129245   4.648   4.307   5.465 -0.0162 -0.0701 -1.9092
 2610TIP3    H229246   4.725   4.181   5.433  0.3595 -0.3048 -0.1970
 2611TIP3   OH229247   1.662   3.855  13.128 -0.3902 -0.6050  0.2719
 2611TIP3    H129248   1.574   3.867  13.093  0.0378  2.2329 -0.0309
 2611TIP3    H229249   1.655   3.877  13.221  0.0636  0.0865  0.1504
 2612TIP3   OH229250   5.991   4.472   0.958  0.7811 -0.6660 -0.0497
 2612TIP3    H129251   6.034   4.445   1.040  0.7411 -2.1258 -0.4726
 2612TIP3    H229252   6.043   4.546   0.927  1.3097 -0.6325  0.8656
 2613TIP3   OH229253   2.883   0.386  15.542  0.0002  0.1625 -0.2994
 2613TIP3    H129254   2.830   0.358  15.468 -0.6923  0.5996  0.0239
 2613TIP3    H229255   2.826   0.378  15.618 -0.2207  2.2723 -0.1672
 2614TIP3   OH229256   6.591   1.725  11.958  0.3528  0.1254  0.5292
 2614TIP3    H129257   6.507   1.682  11.971  0.5670 -0.2768  0.5841
 2614TIP3    H229258   6.570   1.818  11.954 -0.0172  0.0698  1.1561
 2615TIP3   OH229259   6.067   3.692   1.842  0.4904 -0.0600  0.2890
 2615TIP3    H129260   6.112   3.772   1.871 -0.5739  0.9136 -0.6266
 2615TIP3    H229261   5.976   3.706   1.867 -0.0588 -0.1297 -1.5836
 2616TIP3   OH229262   1.294   5.154  13.357 -0.1652  0.2969 -0.2885
 2616TIP3    H129263   1.329   5.065  13.366  2.8601  1.2699 -1.3386
 2616TIP3    H229264   1.305   5.193  13.443 -0.4794 -0.0027 -0.1106
 2617TIP3   OH229265   5.471   5.986   4.077 -0.1937 -0.1245 -0.5921
 2617TIP3    H129266   5.383   5.972   4.113 -0.5358  1.3327 -0.7996
 2617TIP3    H229267   5.530   5.968   4.150 -0.7435  0.2517 -0.0476
 2618TIP3   OH229268   5.709   5.948   4.704 -0.7182 -0.0221 -1.0658
 2618TIP3    H129269   5.668   5.887   4.765 -0.0652  1.9693  1.5318
 2618TIP3    H229270   5.641   6.013   4.685 -0.9145 -0.6203 -2.5359
 2619TIP3   OH229271   0.225   6.084  15.593 -0.4398  0.2123  0.5400
 2619TIP3    H129272   0.217   6.166  15.545  1.0239  0.3173  0.4301
 2619TIP3    H229273   0.258   6.021  15.529 -1.4981 -0.4680  0.6360
 2620TIP3   OH229274   0.059   0.546   5.502 -0.4448 -0.2367  0.1779
 2620TIP3    H129275   0.117   0.569   5.574 -0.4065  2.6016 -0.6632
 2620TIP3    H229276   0.058   0.623   5.445 -2.5626 -1.3732 -1.4889
 2621TIP3   OH229277   4.845   1.210   6.040  0.3923  0.2937 -0.6236
 2621TIP3    H129278   4.889   1.192   6.123 -0.6483  0.4374 -0.0201
 2621TIP3    H229279   4.794   1.131   6.023 -0.0794  0.6100 -0.6794
 2622TIP3   OH229280   0.205   0.540  14.255  0.1790 -0.0508 -0.4141
 2622TIP3    H129281   0.278   0.592  14.224  0.6969  0.1683  1.1207
 2622TIP3    H229282   0.161   0.595  14.319  0.6775 -1.4131  1.1705
 2623TIP3   OH229283   1.529   1.048  14.583 -0.0953 -0.4599  0.3743
 2623TIP3    H129284   1.503   1.020  14.496 -1.0470 -0.7499  0.7454
 2623TIP3    H229285   1.447   1.066  14.629  0.1483 -3.5639  2.3009
 2624TIP3   OH229286   1.383   1.318   2.977  0.3475  0.4939 -0.1025
 2624TIP3    H129287   1.459   1.261   2.967  0.8219  1.1924 -0.5343
 2624TIP3    H229288   1.417   1.407   2.966 -0.0358  1.0180  2.4893
 2625TIP3   OH229289   6.357   6.598   3.372  0.6465  0.1834 -0.2215
 2625TIP3    H129290   6.432   6.596   3.314  0.4855 -1.6351 -0.4070
 2625TIP3    H229291   6.314   6.513   3.361 -0.0265  0.2062  1.7200
 2626TIP3   OH229292   1.225   3.502  12.443  0.1970  0.3967  0.5328
 2626TIP3    H129293   1.175   3.558  12.383 -0.2177 -0.6588 -0.1216
 2626TIP3    H229294   1.196   3.529  12.530  0.0576  1.2435  0.2397
 2627TIP3   OH229295   1.344   6.366  13.061  0.3702  0.0928 -0.0815
 2627TIP3    H129296   1.388   6.324  12.987  0.3091  2.0698 -1.3440
 2627TIP3    H229297   1.258   6.391  13.026  0.7543  2.0443  0.2363
 2628TIP3   OH229298   2.481   3.659  14.722 -0.5254  0.4544  0.3470
 2628TIP3    H129299   2.438   3.722  14.779  0.8761  1.2814  0.5263
 2628TIP3    H229300   2.417   3.642  14.653 -0.9505  2.0611  0.3096
 2629TIP3   OH229301   1.372   1.361  16.345 -0.1940 -0.3508 -0.1143
 2629TIP3    H129302   1.326   1.283  16.315  0.8261 -0.5523 -1.2301
 2629TIP3    H229303   1.379   1.349  16.440 -0.3054 -1.4867 -0.2300
 2630TIP3   OH229304   0.683   2.753  12.978 -0.1151 -0.5351  0.1947
 2630TIP3    H129305   0.751   2.700  12.936 -1.4804 -0.5475 -2.1626
 2630TIP3    H229306   0.686   2.837  12.932 -0.4396  0.1539  1.3774
 2631TIP3   OH229307   0.269   3.568   0.002 -0.2779  0.2145  0.0214
 2631TIP3    H129308   0.316   3.548   0.083 -0.8272  0.0110  0.2912
 2631TIP3    H229309   0.319   3.639  -0.038  0.6732 -0.4845 -0.0605
 2632TIP3   OH229310   4.894   3.071  13.393  0.5696 -0.5202 -0.3565
 2632TIP3    H129311   4.860   3.082  13.305 -1.7022  0.0367  0.5179
 2632TIP3    H229312   4.848   3.137  13.445  1.5934 -1.0526  1.3193
 2633TIP3   OH229313   1.851   0.757  10.490  0.4277 -0.6339 -0.3899
 2633TIP3    H129314   1.848   0.825  10.423  1.6838 -0.2978 -0.1236
 2633TIP3    H229315   1.771   0.770  10.542  0.5167  0.4535 -0.5162
 2634TIP3   OH229316   5.426   0.907   3.316  0.5198 -0.4458 -1.4406
 2634TIP3    H129317   5.466   0.960   3.247  1.3022 -0.7455 -1.2283
 2634TIP3    H229318   5.340   0.945   3.329  1.2615  1.1313 -0.9062
 2635TIP3   OH229319   5.003   3.247  15.352 -0.7424 -0.2861 -0.5337
 2635TIP3    H129320   4.984   3.226  15.443 -0.9641 -0.3726 -0.5985
 2635TIP3    H229321   4.940   3.195  15.302  0.1934 -1.1907 -0.7968
 2636TIP3   OH229322   4.389   4.952  15.968 -0.5450  0.4342 -0.2264
 2636TIP3    H129323   4.418   4.866  15.939  0.1421  1.5190 -3.0731
 2636TIP3    H229324   4.468   4.993  16.005  0.0481  1.0611 -2.0984
 2637TIP3   OH229325   1.515   1.343  11.228 -0.2014  0.1547  0.2393
 2637TIP3    H129326   1.523   1.346  11.133  1.3895  1.3964  0.3765
 2637TIP3    H229327   1.540   1.254  11.251  1.0670  0.3105 -0.4125
 2638TIP3   OH229328   2.364   2.895  13.859  0.3504  0.8447  0.3742
 2638TIP3    H129329   2.363   2.916  13.766  1.8515  1.1119  0.3953
 2638TIP3    H229330   2.341   2.803  13.864 -2.1990  1.3805 -0.0440
 2639TIP3   OH229331   5.874   6.451   5.831 -0.0349  0.4494  0.4543
 2639TIP3    H129332   5.819   6.379   5.862  0.4065 -0.0315  0.1416
 2639TIP3    H229333   5.881   6.510   5.907  1.0989 -0.7530  1.3377
 2640TIP3   OH229334   6.060   3.551   4.297  0.2463 -0.4269  0.3476
 2640TIP3    H129335   5.984   3.513   4.343 -0.4108  0.0688 -0.2986
 2640TIP3    H229336   6.094   3.616   4.358  0.8658 -1.4262  1.1146
 2641TIP3   OH229337   6.216   5.528   2.815 -0.9811 -0.3528 -0.6062
 2641TIP3    H129338   6.138   5.476   2.832 -0.8803  0.4320  3.0042
 2641TIP3    H229339   6.289   5.466   2.823 -1.0832 -0.5185 -0.9556
 2642TIP3   OH229340   5.629   5.274   0.575 -0.4058  0.4499 -0.1208
 2642TIP3    H129341   5.657   5.359   0.539  2.9072 -0.3411  0.2789
 2642TIP3    H229342   5.711   5.231   0.599 -1.8129 -3.5952 -1.8483
 2643TIP3   OH229343   3.009   4.740   2.635 -0.0001  0.6970  0.1885
 2643TIP3    H129344   3.025   4.712   2.545 -1.8872  3.0840 -1.0171
 2643TIP3    H229345   3.051   4.673   2.689  1.4933 -0.6475 -2.4333
 2644TIP3   OH229346   4.943   3.498   4.431  0.4395  0.9925 -0.0377
 2644TIP3    H129347   4.989   3.518   4.350  1.1032  1.4926  0.4589
 2644TIP3    H229348   4.863   3.551   4.427  0.9705  1.8123  0.1102
 2645TIP3   OH229349   4.722   1.231  12.633 -0.1730 -0.2221  0.2086
 2645TIP3    H129350   4.665   1.308  12.638  0.8960  0.8286 -2.2591
 2645TIP3    H229351   4.748   1.226  12.541  0.8368 -2.8045  0.5497
 2646TIP3   OH229352   5.292   6.201   3.741 -0.1170  0.1978 -0.0731
 2646TIP3    H129353   5.212   6.250   3.721  1.3154  1.8808 -2.0285
 2646TIP3    H229354   5.340   6.197   3.659  1.0334 -2.3847  0.6055
 2647TIP3   OH229355   3.723   1.850  16.988 -0.0343 -0.1857 -0.1933
 2647TIP3    H129356   3.630   1.859  16.967 -0.8414 -0.3020  2.7658
 2647TIP3    H229357   3.730   1.765  17.031  1.6768 -0.6235 -1.2371
 2648TIP3   OH229358   2.191   3.289  14.211  0.7956 -0.1860 -0.2248
 2648TIP3    H129359   2.260   3.332  14.261  0.4197  0.6235 -0.3829
 2648TIP3    H229360   2.224   3.283  14.122  0.3801  0.8790 -0.4622
 2649TIP3   OH229361   4.663   4.872   0.570 -0.0091 -0.3104 -0.8333
 2649TIP3    H129362   4.756   4.867   0.591 -0.0105 -0.7668 -0.9116
 2649TIP3    H229363   4.653   4.954   0.523 -0.1073  1.0442  1.4220
 2650TIP3   OH229364   1.216   2.921  14.509  0.6345  0.4886  0.1091
 2650TIP3    H129365   1.206   2.934  14.603 -0.1357 -0.1919  0.1323
 2650TIP3    H229366   1.157   2.849  14.489  1.7105 -0.1868 -0.6909
 2651TIP3   OH229367   2.630   0.832  12.306 -0.0065 -0.2521  0.2308
 2651TIP3    H129368   2.625   0.751  12.358 -1.8812  0.4403  1.1877
 2651TIP3    H229369   2.658   0.899  12.368 -0.6417  0.2645 -0.0288
 2652TIP3   OH229370   3.712   0.422  13.306  0.2192  0.1719  0.4747
 2652TIP3    H129371   3.632   0.443  13.257  0.6353 -2.0388 -1.3207
 2652TIP3    H229372   3.702   0.470  13.389 -2.8320  0.2026  0.2258
 2653TIP3   OH229373   5.218   6.396  13.769  0.2227  0.6767 -0.6053
 2653TIP3    H129374   5.284   6.419  13.835 -0.3276  0.9950 -0.1548
 2653TIP3    H229375   5.169   6.477  13.757 -0.0295  0.4622 -1.0015
 2654TIP3   OH229376   5.279   6.162  11.651 -0.5102 -0.1482  0.1826
 2654TIP3    H129377   5.220   6.146  11.577 -0.7099 -0.6108  0.4398
 2654TIP3    H229378   5.224   6.208  11.715 -1.3352 -2.7533  1.4616
 2655TIP3   OH229379   1.525   4.545   3.289  0.5950 -0.6727  0.4480
 2655TIP3    H129380   1.534   4.615   3.225 -2.2598  0.9411  1.6305
 2655TIP3    H229381   1.437   4.555   3.324  0.6733 -3.8397  1.9442
 2656TIP3   OH229382   2.138   2.202  11.954 -0.3804  0.4780  0.7703
 2656TIP3    H129383   2.198   2.260  12.000  1.4876 -0.8489  0.1046
 2656TIP3    H229384   2.119   2.132  12.017  0.9275 -0.5067  0.1040
 2657TIP3   OH229385   1.210   1.912  12.051  0.0098 -0.5164 -0.9666
 2657TIP3    H129386   1.232   1.990  12.100 -0.7136 -0.9539  0.0756
 2657TIP3    H229387   1.212   1.841  12.115  2.8168 -1.7766 -2.2552
 2658TIP3   OH229388   2.930   0.921   3.499  0.3230 -0.2849  0.1317
 2658TIP3    H129389   3.021   0.903   3.521 -0.0438 -1.4790  0.7130
 2658TIP3    H229390   2.893   0.961   3.578  0.3421  0.2602 -0.1253
 2659TIP3   OH229391   5.747   5.608  14.585 -0.3778 -0.0594 -0.0877
 2659TIP3    H129392   5.840   5.601  14.607 -0.4296  0.9819  0.5226
 2659TIP3    H229393   5.702   5.612  14.670 -1.0611 -1.3755 -0.3627
 2660TIP3   OH229394   2.466   4.369  17.075 -0.0043  0.1602 -0.2131
 2660TIP3    H129395   2.552   4.335  17.101  0.1434  0.4351 -0.3294
 2660TIP3    H229396   2.419   4.294  17.040  0.6353  0.2478 -1.3003
 2661TIP3   OH229397   5.855   1.434  16.235  0.5778  0.2046  0.2378
 2661TIP3    H129398   5.847   1.374  16.161  0.3679  0.4109  0.0912
 2661TIP3    H229399   5.927   1.492  16.211  0.1884  0.5887 -0.0373
 2662TIP3   OH229400   6.367   1.615   4.204 -0.3746 -0.2111  0.1940
 2662TIP3    H129401   6.298   1.651   4.259 -0.0037  1.4261 -0.3597
 2662TIP3    H229402   6.386   1.684   4.141 -0.3371 -1.7804 -1.5992
 2663TIP3   OH229403   0.930   5.946  12.727 -0.4198 -0.3256  0.0143
 2663TIP3    H129404   1.009   5.998  12.717 -0.9177  0.3142 -0.6898
 2663TIP3    H229405   0.960   5.855  12.725  0.5975 -0.1192  2.3908
 2664TIP3   OH229406   1.144   6.789   4.578 -0.5096  0.4928 -0.5847
 2664TIP3    H129407   1.129   6.847   4.504 -2.0105  0.7878 -0.0794
 2664TIP3    H229408   1.205   6.723   4.545 -2.6570 -0.5597 -2.7331
 2665TIP3   OH229409   0.362   4.633  10.908 -0.5759 -0.2465 -0.4851
 2665TIP3    H129410   0.366   4.632  10.812  2.3224 -0.5954 -0.4606
 2665TIP3    H229411   0.448   4.666  10.935 -1.0857 -0.7400  2.0136
 2666TIP3   OH229412   1.032   2.115  14.532  0.6432 -0.0049 -0.4834
 2666TIP3    H129413   1.040   2.062  14.612 -0.5855 -0.4691 -0.6432
 2666TIP3    H229414   0.991   2.196  14.561 -0.1751 -0.3372 -0.7027
 2667TIP3   OH229415   1.504   4.032   5.160  0.3057 -0.1580  0.3444
 2667TIP3    H129416   1.569   3.993   5.102 -1.2024 -1.1421 -0.7487
 2667TIP3    H229417   1.480   4.114   5.117  0.5631  0.0364  0.5686
 2668TIP3   OH229418   4.872   4.336   1.106 -0.4819 -0.2903 -0.2440
 2668TIP3    H129419   4.922   4.260   1.077  1.1666  0.4978  0.4207
 2668TIP3    H229420   4.914   4.410   1.063 -2.1165  0.2732 -0.9492
 2669TIP3   OH229421   2.008   0.568  12.946 -0.0056 -0.5258 -0.2828
 2669TIP3    H129422   2.087   0.622  12.937 -0.1850 -0.2068  0.0154
 2669TIP3    H229423   2.016   0.501  12.878  1.0441 -1.1554  0.4427
 2670TIP3   OH229424   2.479   4.845  17.012 -0.1528 -0.5919  0.8793
 2670TIP3    H129425   2.428   4.818  17.088 -1.0811  0.9745  0.8653
 2670TIP3    H229426   2.521   4.927  17.039 -1.2714  0.5168 -0.5516
 2671TIP3   OH229427   1.804   6.297  16.231 -0.0909 -0.4736  0.3729
 2671TIP3    H129428   1.883   6.326  16.277  1.4380 -0.2517 -2.1610
 2671TIP3    H229429   1.837   6.243  16.159 -2.2151  0.1139 -1.1382
 2672TIP3   OH229430   0.452   3.453  12.964 -0.3437  0.1272  0.5938
 2672TIP3    H129431   0.463   3.381  13.025 -0.9432 -1.5263 -1.1365
 2672TIP3    H229432   0.496   3.424  12.884  2.0518  2.9932  0.6982
 2673TIP3   OH229433   4.478   4.070   0.560  0.3860 -0.2350  0.2408
 2673TIP3    H129434   4.442   4.144   0.609 -0.4791 -0.7315  0.3832
 2673TIP3    H229435   4.403   4.036   0.509  1.1047 -0.1363 -0.9243
 2674TIP3   OH229436   5.342   1.026  13.707  0.0463 -0.2661 -0.2051
 2674TIP3    H129437   5.267   1.071  13.745  0.4003 -0.0677  0.2816
 2674TIP3    H229438   5.321   0.933  13.714  0.5823 -0.3105  1.5989
 2675TIP3   OH229439   3.362   5.375  10.758 -0.0405 -0.5217  0.0418
 2675TIP3    H129440   3.346   5.288  10.721 -1.1717  0.3393 -1.6355
 2675TIP3    H229441   3.446   5.402  10.720  0.4028 -0.9273  0.7087
 2676TIP3   OH229442   6.032   3.833  13.626 -0.0657  0.2727  0.3441
 2676TIP3    H129443   5.997   3.915  13.592  2.1377  1.0842 -0.1107
 2676TIP3    H229444   5.976   3.813  13.701 -0.1762  2.6192  0.9719
 2677TIP3   OH229445   5.915   1.872  16.733 -0.0771  0.1221 -0.4978
 2677TIP3    H129446   5.841   1.816  16.711 -0.2040 -0.2120  0.7283
 2677TIP3    H229447   5.988   1.812  16.747 -0.4675  0.0991  1.8959
 2678TIP3   OH229448   5.899   3.957   2.572  0.0920 -0.9292 -0.1487
 2678TIP3    H129449   5.865   3.890   2.512 -0.4082  0.1199 -1.0846
 2678TIP3    H229450   5.864   3.933   2.657  0.2926 -2.1022 -0.3656
 2679TIP3   OH229451   5.163   4.826  10.929  0.0327 -0.2481 -0.8126
 2679TIP3    H129452   5.111   4.897  10.891  1.3947  1.3148  0.1046
 2679TIP3    H229453   5.214   4.792  10.855 -0.8791 -0.5238 -1.3303
 2680TIP3   OH229454   0.793   2.696  15.795 -0.2030  0.2597  0.1127
 2680TIP3    H129455   0.813   2.761  15.728  0.7025  0.0837  0.1945
 2680TIP3    H229456   0.862   2.707  15.860  0.1280 -0.9421 -0.0025
 2681TIP3   OH229457   2.293   5.569   0.243  0.2524 -0.2713  0.4038
 2681TIP3    H129458   2.268   5.619   0.165  0.5590  1.0988  1.1529
 2681TIP3    H229459   2.368   5.517   0.215 -0.0653 -0.3108 -0.3975
 2682TIP3   OH229460   3.203   3.745  16.040  0.2779  0.2044  0.3951
 2682TIP3    H129461   3.265   3.675  16.019  0.6077  0.6954 -0.3087
 2682TIP3    H229462   3.156   3.713  16.117  0.4125 -0.7920  0.0749
 2683TIP3   OH229463   4.666   4.147  16.973  0.3734  0.1445  0.0852
 2683TIP3    H129464   4.706   4.186  16.896  1.8329  0.2561  0.8737
 2683TIP3    H229465   4.583   4.194  16.983  0.6554  0.8529 -0.7930
 2684TIP3   OH229466   6.682   0.109   0.853 -0.0120 -0.0717 -0.0966
 2684TIP3    H129467   6.685   0.014   0.863  0.2472  0.0963  1.5905
 2684TIP3    H229468   6.768   0.140   0.880  0.1546  0.6187 -1.3000
 2685TIP3   OH229469   4.530   5.616  13.546 -0.1439  0.4800 -0.4693
 2685TIP3    H129470   4.524   5.521  13.552  0.7344  0.4078 -0.6430
 2685TIP3    H229471   4.519   5.635  13.453  1.1602  0.4242 -0.6461
 2686TIP3   OH229472   2.516   1.461  17.047  0.2257 -0.1319 -0.4169
 2686TIP3    H129473   2.563   1.498  16.972 -0.2152  1.0099 -0.1459
 2686TIP3    H229474   2.584   1.420  17.100  0.6851 -0.0120 -0.9079
 2687TIP3   OH229475   5.402   2.014   0.010  0.0456  0.2795  0.1739
 2687TIP3    H129476   5.481   2.040   0.057 -0.9056  1.0716  1.4015
 2687TIP3    H229477   5.413   1.920  -0.005  1.5137  0.4980 -0.3206
 2688TIP3   OH229478   1.628   5.809  16.261 -0.3722  0.1736 -0.1546
 2688TIP3    H129479   1.559   5.762  16.213  0.7525  0.8029 -2.5377
 2688TIP3    H229480   1.701   5.814  16.199  1.2460  0.9828  1.7034
 2689TIP3   OH229481   5.759   2.205  10.962  0.3410 -0.4233 -0.6509
 2689TIP3    H129482   5.669   2.180  10.980 -0.0062  1.5522  0.8306
 2689TIP3    H229483   5.802   2.204  11.048  1.0678  0.9301 -0.9630
 2690TIP3   OH229484   3.577   5.359  12.561 -0.0523 -0.0346  0.4029
 2690TIP3    H129485   3.532   5.413  12.627  0.6721  0.1883  0.7234
 2690TIP3    H229486   3.623   5.421  12.506  1.9503 -0.3413  1.6284
 2691TIP3   OH229487   2.699   3.655   0.682 -0.4976 -0.7328  0.1548
 2691TIP3    H129488   2.724   3.741   0.716 -1.2162 -0.2366 -0.5193
 2691TIP3    H229489   2.782   3.614   0.657  0.1949 -1.5769  3.4112
 2692TIP3   OH229490   1.914   3.539   1.232 -0.0351 -0.6413 -0.2575
 2692TIP3    H129491   1.829   3.581   1.217  0.5479  1.0200  0.8142
 2692TIP3    H229492   1.964   3.558   1.153  1.0435  2.9936  1.0671
 2693TIP3   OH229493   6.245   2.602  16.756 -0.2606  0.0005  0.7287
 2693TIP3    H129494   6.204   2.587  16.840 -1.8337 -0.5490 -0.0994
 2693TIP3    H229495   6.296   2.682  16.767  0.3022 -0.5624  2.4386
 2694TIP3   OH229496   6.394   6.729  11.525  0.1824  0.0144 -0.0707
 2694TIP3    H129497   6.425   6.819  11.517  1.8912 -0.5885 -0.5695
 2694TIP3    H229498   6.439   6.694  11.601 -1.6425 -0.0004  1.0669
 2695TIP3   OH229499   1.855   0.178  12.789  0.2784  0.1734 -0.4894
 2695TIP3    H129500   1.843   0.084  12.777 -0.6491 -0.0223  1.5247
 2695TIP3    H229501   1.807   0.218  12.716  0.3532 -0.8865 -1.1458
 2696TIP3   OH229502   3.548   4.718   3.895  0.3601 -0.3267 -0.0038
 2696TIP3    H129503   3.479   4.681   3.840 -0.5639  1.9600 -0.4952
 2696TIP3    H229504   3.603   4.643   3.918 -3.6465 -2.8653  2.6071
 2697TIP3   OH229505   2.296   2.882  13.601  0.1239  0.3361  0.5280
 2697TIP3    H129506   2.219   2.937  13.591 -0.1894 -0.2190 -0.2166
 2697TIP3    H229507   2.299   2.829  13.521 -1.4281 -3.0206  2.4810
 2698TIP3   OH229508   0.220   2.080  10.600 -0.0400 -0.2668  0.0054
 2698TIP3    H129509   0.265   1.996  10.599  2.5367  1.0236 -1.0688
 2698TIP3    H229510   0.252   2.125  10.522 -2.1433  1.3509 -0.0065
 2699TIP3   OH229511   1.889   4.039  16.403 -0.1532 -0.6148 -0.1224
 2699TIP3    H129512   1.815   4.070  16.456  0.2715 -1.0656  0.7602
 2699TIP3    H229513   1.951   4.111  16.406 -0.8889  0.1216 -1.5917
 2700TIP3   OH229514   0.175   6.167  14.560  0.1952 -0.2772  0.0775
 2700TIP3    H129515   0.217   6.166  14.646 -0.9315 -0.1628  0.6461
 2700TIP3    H229516   0.178   6.259  14.532 -0.4827 -0.1063  0.5380
 2701TIP3   OH229517   2.634   0.130  11.737  0.4596  0.3625 -0.5016
 2701TIP3    H129518   2.611   0.153  11.646  1.9016  0.7951 -0.7831
 2701TIP3    H229519   2.616   0.210  11.786  0.4892  0.4004 -0.5523
 2702TIP3   OH229520   6.635   2.204  11.262  0.0936  0.0337  0.2121
 2702TIP3    H129521   6.676   2.177  11.180 -0.0284  1.3332 -0.2992
 2702TIP3    H229522   6.547   2.167  11.258  0.1717 -0.1162 -0.1287
 2703TIP3   OH229523   3.141   1.360  12.590 -0.0065  0.6348 -0.0722
 2703TIP3    H129524   3.145   1.279  12.641  0.5227  0.2288 -0.7416
 2703TIP3    H229525   3.047   1.376  12.579 -0.1192  0.3283  0.3893
 2704TIP3   OH229526   2.190   6.353  15.518 -0.6582 -0.5617 -0.2736
 2704TIP3    H129527   2.248   6.287  15.479 -0.7104 -0.5743 -0.3308
 2704TIP3    H229528   2.212   6.352  15.611  0.1313  0.1425 -0.4489
 2705TIP3   OH229529   4.515   0.567  10.960  0.3870 -0.1951  0.0601
 2705TIP3    H129530   4.592   0.624  10.960  0.0170  0.3083  0.7491
 2705TIP3    H229531   4.490   0.559  11.052  1.5465 -3.0298  0.2459
 2706TIP3   OH229532   1.499   0.850  15.361 -0.0498  0.2317  0.2827
 2706TIP3    H129533   1.493   0.892  15.446  2.3101  0.1861  0.5422
 2706TIP3    H229534   1.569   0.898  15.316 -0.4212 -0.5274 -1.1641
 2707TIP3   OH229535   1.125   1.646  13.375 -0.2572  0.1770  0.2109
 2707TIP3    H129536   1.159   1.698  13.302 -2.0684 -0.4508 -1.1310
 2707TIP3    H229537   1.083   1.709  13.433 -0.9814  0.4198 -0.5652
 2708TIP3   OH229538   0.975   1.551  10.422  0.3317 -1.1753 -0.2626
 2708TIP3    H129539   0.914   1.494  10.374 -0.1172 -1.8314  1.0490
 2708TIP3    H229540   0.918   1.611  10.470  0.8004  0.1925 -1.3478
 2709TIP3   OH229541   6.588   0.179  14.538  0.0297  0.0510  0.6149
 2709TIP3    H129542   6.564   0.102  14.487  1.2429  0.2480 -0.2970
 2709TIP3    H229543   6.537   0.172  14.618 -1.0199 -0.8968 -0.1097
 2710TIP3   OH229544   1.248   6.621  11.490  0.5167  0.3414 -0.3413
 2710TIP3    H129545   1.237   6.690  11.425  1.7599  1.4809  0.5967
 2710TIP3    H229546   1.251   6.668  11.574  3.0433 -0.6636  0.2040
 2711TIP3   OH229547   2.949   3.460  14.526 -0.1655  0.4027 -0.0829
 2711TIP3    H129548   2.964   3.439  14.618 -1.1111 -1.0528 -0.2281
 2711TIP3    H229549   2.906   3.545  14.527 -0.2902  0.3352  0.8304
 2712TIP3   OH229550   2.485   4.182  15.569 -0.2932  0.3024 -0.7237
 2712TIP3    H129551   2.434   4.108  15.537 -1.5061  1.2356 -1.0506
 2712TIP3    H229552   2.459   4.192  15.660 -2.2336  1.9301 -1.3692
 2713TIP3   OH229553   5.455   3.373   0.478 -0.2298  0.0718 -0.3606
 2713TIP3    H129554   5.430   3.339   0.392  1.3144 -2.2003 -0.0071
 2713TIP3    H229555   5.546   3.343   0.490 -0.1775  0.9029  1.7815
 2714TIP3   OH229556   0.029   2.039  13.539  0.0841  0.2302 -0.3676
 2714TIP3    H129557  -0.022   1.998  13.469 -0.4648 -2.4513  1.4491
 2714TIP3    H229558   0.120   2.020  13.516 -0.0459  0.0558 -0.7512
 2715TIP3   OH229559   2.527   2.330  11.126  0.3615  0.0920 -0.0475
 2715TIP3    H129560   2.463   2.263  11.149  0.8431 -0.1062  0.7704
 2715TIP3    H229561   2.479   2.391  11.070 -0.7860  0.4052  1.2177
 2716TIP3   OH229562   2.569   2.618  15.322  0.4125  0.1910  0.0968
 2716TIP3    H129563   2.540   2.543  15.270  1.7349  0.3286 -0.8804
 2716TIP3    H229564   2.490   2.672  15.333 -0.7573 -1.6649  1.4751
 2717TIP3   OH229565   0.321   3.927   0.936 -0.4716  0.0302  0.3743
 2717TIP3    H129566   0.361   3.938   0.849 -1.2481  1.7817  0.2169
 2717TIP3    H229567   0.390   3.953   0.997  0.0074 -1.0098  0.3013
 2718TIP3   OH229568   0.310   1.500  16.875  0.8758 -0.8413 -0.1059
 2718TIP3    H129569   0.294   1.411  16.907 -0.8580 -0.4489  0.1997
 2718TIP3    H229570   0.371   1.488  16.802  1.4974 -2.1660  0.5971
 2719TIP3   OH229571   5.700   1.234   2.955  0.5771 -0.2199  0.6747
 2719TIP3    H129572   5.741   1.277   2.880  1.6476  0.8562  1.8330
 2719TIP3    H229573   5.680   1.146   2.924  4.0886 -0.9541  0.0955
 2720TIP3   OH229574   4.155   2.072  12.007  0.4012 -0.1536 -0.2025
 2720TIP3    H129575   4.063   2.048  11.999 -0.0087  1.8567 -2.5425
 2720TIP3    H229576   4.201   2.013  11.946  0.3622  0.2553 -0.6311
 2721TIP3   OH229577   0.935   6.721   6.506 -0.3470  0.0261  0.0385
 2721TIP3    H129578   0.860   6.780   6.501 -0.6248 -0.2457  0.8233
 2721TIP3    H229579   0.926   6.663   6.431 -1.0110 -0.1109  0.2253
 2722TIP3   OH229580   2.738   3.388  12.884  0.1457 -0.1715  0.4280
 2722TIP3    H129581   2.721   3.375  12.977 -2.9065 -2.4081 -0.2978
 2722TIP3    H229582   2.765   3.302  12.852  1.2059  0.5782 -0.8157
 2723TIP3   OH229583   0.714   1.185  16.238  0.1372  0.2140 -0.9126
 2723TIP3    H129584   0.623   1.170  16.265  0.8156 -0.3419  1.3563
 2723TIP3    H229585   0.733   1.113  16.177 -0.6356 -0.3128 -0.5527
 2724TIP3   OH229586   4.245   6.149   1.640 -1.3216  0.1308  0.3094
 2724TIP3    H129587   4.201   6.088   1.700  0.3500 -0.2187  1.2341
 2724TIP3    H229588   4.325   6.174   1.685 -1.2850  1.9522 -0.6711
 2725TIP3   OH229589   6.457   0.437  14.765  0.5711 -0.4012  0.5434
 2725TIP3    H129590   6.374   0.454  14.809  0.9523  1.7272  0.5440
 2725TIP3    H229591   6.439   0.450  14.672  1.0646  1.0244  0.6175
 2726TIP3   OH229592   3.563   1.536  14.209 -0.4512  0.0562  0.0971
 2726TIP3    H129593   3.656   1.553  14.194 -0.5410 -0.1034 -0.6794
 2726TIP3    H229594   3.561   1.462  14.269 -0.0190 -2.6455 -2.9186
 2727TIP3   OH229595   5.403   5.167   3.982 -0.5708  0.3963  0.0231
 2727TIP3    H129596   5.384   5.244   3.928 -0.3213  0.3884 -0.0758
 2727TIP3    H229597   5.440   5.103   3.921  1.1997  0.9416  0.4678
 2728TIP3   OH229598   4.006   3.505  16.650 -0.0586 -0.2064  0.3925
 2728TIP3    H129599   3.998   3.418  16.690  0.3537  0.9039  3.1105
 2728TIP3    H229600   3.935   3.509  16.587 -0.5419 -2.2549  0.7424
 2729TIP3   OH229601   6.011   1.169  12.653  0.5840  0.6431 -0.1288
 2729TIP3    H129602   6.083   1.108  12.637  1.8603  1.6571  1.3984
 2729TIP3    H229603   6.025   1.240  12.590  0.9560  0.8471  0.1766
 2730TIP3   OH229604   0.753   4.538   4.163  0.0724 -0.5833  0.0344
 2730TIP3    H129605   0.712   4.615   4.125  0.7112  0.3478  1.1476
 2730TIP3    H229606   0.800   4.497   4.091  0.3110  0.4800 -0.4298
 2731TIP3   OH229607   4.053   4.783   6.273 -0.3645  0.2848 -0.0146
 2731TIP3    H129608   4.108   4.825   6.207 -1.2385  0.2214 -0.8008
 2731TIP3    H229609   3.967   4.822   6.262 -0.1615  1.5840  2.2963
 2732TIP3   OH229610   4.907   1.714  10.971  0.2916 -0.3938  0.4123
 2732TIP3    H129611   4.956   1.795  10.961 -2.1341  1.1553  0.1629
 2732TIP3    H229612   4.972   1.645  10.964  2.0160  1.3546 -3.1394
 2733TIP3   OH229613   6.478   1.144   5.000  0.2076 -0.0218 -0.6774
 2733TIP3    H129614   6.407   1.084   4.980 -0.5915  1.2960 -1.9212
 2733TIP3    H229615   6.548   1.120   4.940  0.4831 -0.6833 -0.1132
 2734TIP3   OH229616   3.347   2.534   2.784  0.3984  0.5222  0.3735
 2734TIP3    H129617   3.384   2.453   2.750  0.2194  0.5937  0.0088
 2734TIP3    H229618   3.358   2.527   2.879  1.6893  0.7016  0.2647
 2735TIP3   OH229619   5.394   5.953  16.201  0.3082 -0.0070 -0.2310
 2735TIP3    H129620   5.436   6.037  16.182 -0.3316  0.7666  1.5881
 2735TIP3    H229621   5.301   5.970  16.189  0.2138 -0.6331 -0.4326
 2736TIP3   OH229622   0.527   1.953   1.286  0.3668 -0.7080 -0.1124
 2736TIP3    H129623   0.568   1.906   1.359  0.9518 -0.1378 -0.0604
 2736TIP3    H229624   0.596   1.962   1.221  0.3871  0.4406  0.0552
 2737TIP3   OH229625   1.184   3.289   2.312 -0.0841  0.0585 -0.0389
 2737TIP3    H129626   1.278   3.270   2.323 -0.4782 -1.1513  1.5394
 2737TIP3    H229627   1.146   3.276   2.399 -1.7211  0.6010 -0.6365
 2738TIP3   OH229628   6.685   3.015  11.071  0.2667  0.0310  0.1970
 2738TIP3    H129629   6.774   2.981  11.057 -0.2544 -2.1839  1.7319
 2738TIP3    H229630   6.628   2.941  11.052 -1.4214  1.7546 -1.9840
 2739TIP3   OH229631   6.080   0.358   2.283  0.6820 -0.3779  0.3445
 2739TIP3    H129632   6.027   0.432   2.311  0.1589 -0.1584 -1.1265
 2739TIP3    H229633   6.037   0.281   2.321  0.7039 -0.0043  1.1320
 2740TIP3   OH229634   4.462   4.179   1.297  0.1474 -0.6654 -0.0390
 2740TIP3    H129635   4.460   4.249   1.362 -0.7757 -0.8078  0.1012
 2740TIP3    H229636   4.517   4.214   1.227  1.9045 -0.8742  1.1867
 2741TIP3   OH229637   6.197   0.245   3.044  0.0298 -0.7086  0.1518
 2741TIP3    H129638   6.152   0.322   3.010 -1.4535 -2.0331 -0.9929
 2741TIP3    H229639   6.243   0.208   2.969  0.5687 -1.0676  0.6458
 2742TIP3   OH229640   6.554   1.983   2.529  0.4168 -0.3444  0.4230
 2742TIP3    H129641   6.479   1.999   2.472 -0.4087 -1.8221  1.0330
 2742TIP3    H229642   6.522   1.999   2.617  1.2791  0.5261  0.5918
 2743TIP3   OH229643   3.317   5.871  16.258 -0.2821 -0.3739  0.1637
 2743TIP3    H129644   3.379   5.816  16.210 -0.9107 -1.7111  0.8373
 2743TIP3    H229645   3.370   5.914  16.325  0.6458  1.6636 -1.7563
 2744TIP3   OH229646   1.230   1.796   3.960  0.0172 -0.1010 -0.4003
 2744TIP3    H129647   1.278   1.717   3.935 -0.0160  0.1040 -1.1280
 2744TIP3    H229648   1.188   1.773   4.043  0.3165 -0.7175 -0.4133
 2745TIP3   OH229649   3.397   6.054   1.124  0.4884 -0.2490 -0.0828
 2745TIP3    H129650   3.475   6.076   1.175 -0.1379  0.9785  0.4042
 2745TIP3    H229651   3.364   6.139   1.093 -0.1528 -0.8260 -1.0300
 2746TIP3   OH229652   2.705   2.144  16.387 -0.2037 -0.5001  0.4774
 2746TIP3    H129653   2.672   2.089  16.458 -1.1965 -0.6982 -0.1255
 2746TIP3    H229654   2.627   2.181  16.347  0.3974  0.3461  0.0679
 2747TIP3   OH229655   2.825   4.187   1.090 -0.3228 -0.0649  0.4000
 2747TIP3    H129656   2.873   4.157   1.013 -1.5907 -0.9751 -0.0501
 2747TIP3    H229657   2.821   4.111   1.147  0.8104  0.6584  1.5187
 2748TIP3   OH229658   1.878   2.627   4.667 -0.0522 -0.4232 -0.1738
 2748TIP3    H129659   1.924   2.700   4.626  0.7926 -0.1269  1.2413
 2748TIP3    H229660   1.886   2.643   4.761 -1.0281 -1.6298  0.1450
 2749TIP3   OH229661   5.644   4.020  11.780  0.3620  0.3047  0.1034
 2749TIP3    H129662   5.558   4.003  11.817 -0.2770  0.3503 -1.2989
 2749TIP3    H229663   5.659   3.948  11.719  0.7829  0.9372 -0.5599
 2750TIP3   OH229664   1.055   3.964   1.082 -0.3149  0.0787 -0.4882
 2750TIP3    H129665   1.061   4.030   1.013  0.7212 -0.1515 -0.6414
 2750TIP3    H229666   1.146   3.937   1.096 -0.7970 -1.9798 -1.0544
 2751TIP3   OH229667   0.168   6.814   0.911 -0.3821  0.6818 -0.3575
 2751TIP3    H129668   0.259   6.835   0.931 -0.1169 -0.9300  0.2755
 2751TIP3    H229669   0.164   6.718   0.916 -2.3513  0.7796  0.6837
 2752TIP3   OH229670   3.401   2.200  14.276  0.3838 -0.2279 -0.2276
 2752TIP3    H129671   3.369   2.237  14.194  0.1320  0.4155  0.1545
 2752TIP3    H229672   3.496   2.206  14.270  0.4481 -1.7263 -1.1759
 2753TIP3   OH229673   2.425   4.984  13.021 -0.1240 -0.1660 -0.2190
 2753TIP3    H129674   2.518   4.991  13.040 -0.1553  2.2025 -0.5934
 2753TIP3    H229675   2.383   4.975  13.107  0.3352  0.8035  0.1156
 2754TIP3   OH229676   2.471   2.039  11.190  0.7445  0.1845 -0.5819
 2754TIP3    H129677   2.388   2.019  11.233  0.5544 -1.0287 -1.4680
 2754TIP3    H229678   2.519   2.092  11.253 -0.0668 -0.4187  0.5658
 2755TIP3   OH229679   5.640   5.316  17.027 -0.0955  0.1164 -0.0217
 2755TIP3    H129680   5.587   5.391  17.001 -0.2116  0.4356  1.0731
 2755TIP3    H229681   5.724   5.354  17.053 -0.0072 -0.1778  0.1271
 2756TIP3   OH229682   2.663   6.784   0.766 -0.2254 -0.1902  0.7563
 2756TIP3    H129683   2.758   6.777   0.755 -0.2859 -0.2492  0.2661
 2756TIP3    H229684   2.627   6.775   0.678 -0.7186 -0.6675  1.0008
 2757TIP3   OH229685   2.359   0.472  13.828 -0.0387  0.3436 -0.4682
 2757TIP3    H129686   2.451   0.455  13.807  0.1314 -0.8283  1.0229
 2757TIP3    H229687   2.310   0.428  13.758  0.5275  1.0007 -1.2884
 2758TIP3   OH229688   1.200   0.278  12.686  0.0591 -0.3016 -0.0934
 2758TIP3    H129689   1.261   0.299  12.614 -0.4997  1.5752 -0.0804
 2758TIP3    H229690   1.146   0.357  12.694 -0.9051 -1.0859  1.3753
 2759TIP3   OH229691   5.864   3.121  16.320  0.2172 -0.3070 -0.1324
 2759TIP3    H129692   5.884   3.186  16.387 -2.0843  0.6359 -0.3089
 2759TIP3    H229693   5.773   3.137  16.296  0.3313 -2.0087 -1.9656
 2760TIP3   OH229694   0.349   4.274  15.643 -0.1230  0.3665  0.2039
 2760TIP3    H129695   0.265   4.268  15.690 -0.9578 -1.0462 -1.3527
 2760TIP3    H229696   0.383   4.360  15.667 -1.3177  0.4060  2.0062
 2761TIP3   OH229697   2.759   4.740  16.880 -0.3252  0.4056  0.3821
 2761TIP3    H129698   2.710   4.737  16.962 -0.4758 -2.3770  0.2642
 2761TIP3    H229699   2.849   4.717  16.906 -0.1450  0.5619 -0.1000
 2762TIP3   OH229700   3.796   4.308  16.800 -0.3928 -0.3027 -0.4234
 2762TIP3    H129701   3.801   4.233  16.860  3.1578  0.7721  0.8607
 2762TIP3    H229702   3.824   4.272  16.716  3.0242 -0.2600  0.5531
 2763TIP3   OH229703   5.123   5.587  11.522  0.5298 -0.3146  0.1216
 2763TIP3    H129704   5.076   5.598  11.440  0.1685 -0.9944  0.2305
 2763TIP3    H229705   5.061   5.616  11.589  0.7057 -0.0659  0.1747
 2764TIP3   OH229706   4.502   5.482   1.905 -0.0329 -0.4485  0.0053
 2764TIP3    H129707   4.558   5.406   1.919 -0.3824 -0.4735  1.4299
 2764TIP3    H229708   4.423   5.464   1.957  0.6419  1.6678  1.9431
 2765TIP3   OH229709   5.348   2.404   5.009  0.1629 -0.0364  0.3596
 2765TIP3    H129710   5.441   2.427   5.004 -0.1209  1.3647  0.8736
 2765TIP3    H229711   5.332   2.351   4.931  0.7318  2.3388 -1.4866
 2766TIP3   OH229712   4.602   1.894   1.455  0.2920  0.3138  0.2352
 2766TIP3    H129713   4.583   1.803   1.478 -0.9029  0.8520  1.5208
 2766TIP3    H229714   4.622   1.891   1.361  2.3269 -1.5351  0.6613
 2767TIP3   OH229715   0.316   6.473   3.052  0.2214  0.2654 -0.3812
 2767TIP3    H129716   0.315   6.379   3.067  0.5451  0.2500 -0.4299
 2767TIP3    H229717   0.345   6.482   2.961 -2.4027  0.3254 -1.2859
 2768TIP3   OH229718   1.641   0.084  15.612 -0.0680  0.3883 -0.3836
 2768TIP3    H129719   1.667   0.087  15.704 -1.0802  0.5273 -0.0851
 2768TIP3    H229720   1.566   0.143  15.606 -1.0641 -0.8614 -0.9243
 2769TIP3   OH229721   3.229   4.030  13.732 -0.2900  0.0918 -0.4407
 2769TIP3    H129722   3.291   3.963  13.758 -1.7415 -0.9368  0.5781
 2769TIP3    H229723   3.194   4.001  13.648  0.3476  0.4908 -0.8456
 2770TIP3   OH229724   4.262   2.539   4.453 -0.4317  0.0239  0.6588
 2770TIP3    H129725   4.212   2.458   4.438  1.6156 -1.2904  0.6257
 2770TIP3    H229726   4.253   2.556   4.547 -0.3690 -0.5893  0.7789
 2771TIP3   OH229727   2.412   4.164   6.118  0.2865  0.3135  0.0272
 2771TIP3    H129728   2.332   4.141   6.165  1.4430  0.5086  2.2186
 2771TIP3    H229729   2.419   4.098   6.049 -1.8574  0.4352 -0.3661
 2772TIP3   OH229730   6.415   4.573  12.116 -0.4486 -0.2194  0.3691
 2772TIP3    H129731   6.375   4.657  12.092 -1.5357 -0.8874 -0.2635
 2772TIP3    H229732   6.441   4.584  12.208  0.7135  1.2627 -0.1113
 2773TIP3   OH229733   1.515   1.697  11.257 -0.4705  0.1857 -0.1758
 2773TIP3    H129734   1.435   1.646  11.266 -0.4775  0.2064 -0.1211
 2773TIP3    H229735   1.491   1.785  11.287 -0.5534  0.3122 -0.5980
 2774TIP3   OH229736   4.955   4.218  17.010 -0.1804 -0.1729  0.1016
 2774TIP3    H129737   4.874   4.193  16.967 -0.6242 -1.1449  1.4450
 2774TIP3    H229738   4.967   4.153  17.079  2.1709 -0.5591 -0.5571
 2775TIP3   OH229739   1.889   0.722  13.529 -0.5501  0.6413 -0.6560
 2775TIP3    H129740   1.812   0.779  13.540 -1.3634 -0.6612  0.8969
 2775TIP3    H229741   1.879   0.685  13.441 -1.1853  1.2466 -0.8494
 2776TIP3   OH229742   3.599   5.588   0.065  0.3061  0.1370  0.8126
 2776TIP3    H129743   3.596   5.495   0.087 -0.9683 -0.1775 -0.5197
 2776TIP3    H229744   3.682   5.599   0.018  0.3212 -0.4027  0.7025
 2777TIP3   OH229745   2.723   2.329   4.476 -0.3731  0.2169  0.8088
 2777TIP3    H129746   2.685   2.242   4.482  1.2021 -0.6895 -1.1633
 2777TIP3    H229747   2.747   2.352   4.565  1.1262 -2.3168  1.1342
 2778TIP3   OH229748   4.647   6.723   3.225 -0.0759 -0.6273  0.5575
 2778TIP3    H129749   4.570   6.778   3.209 -0.0524 -0.8837 -0.4989
 2778TIP3    H229750   4.699   6.772   3.288  0.7214  1.3176 -1.4986
 2779TIP3   OH229751   2.751   1.899  14.473 -0.4656 -0.1504 -0.0716
 2779TIP3    H129752   2.719   1.989  14.464  0.2903  0.1484  0.1099
 2779TIP3    H229753   2.713   1.852  14.399 -0.9815  0.2876 -0.0885
 2780TIP3   OH229754   1.202   2.522   1.258 -0.3963 -0.3387  0.1245
 2780TIP3    H129755   1.137   2.454   1.273 -1.4451  0.3204 -1.1940
 2780TIP3    H229756   1.211   2.566   1.342 -2.5541  0.2766  0.0828
 2781TIP3   OH229757   4.227   2.640  11.969  0.8011 -0.2382  0.1188
 2781TIP3    H129758   4.283   2.621  11.894  0.6625  0.9083 -0.2941
 2781TIP3    H229759   4.211   2.734  11.964 -1.2671 -0.5368  0.1488
 2782TIP3   OH229760   5.751   3.045   2.513  0.2890 -0.3417 -0.0013
 2782TIP3    H129761   5.682   3.043   2.580  2.0968  0.8400  2.0365
 2782TIP3    H229762   5.735   3.127   2.466  0.2102 -0.1311  0.3822
 2783TIP3   OH229763   0.705   5.881   2.481 -0.4156 -0.5467 -0.1056
 2783TIP3    H129764   0.658   5.954   2.441  0.5158  0.4181  0.4865
 2783TIP3    H229765   0.783   5.922   2.521  0.8276 -2.0324 -0.8928
 2784TIP3   OH229766   3.603   4.816   0.757 -0.0573 -0.3777 -0.3702
 2784TIP3    H129767   3.565   4.802   0.843  1.3531 -0.0499  0.3319
 2784TIP3    H229768   3.682   4.762   0.756 -0.7994 -1.5281 -2.0150
 2785TIP3   OH229769   1.792   2.867  14.393 -0.6443  0.0567  0.1648
 2785TIP3    H129770   1.779   2.953  14.353  0.1257  0.1302  0.0422
 2785TIP3    H229771   1.859   2.825  14.338 -1.4993 -0.8964 -0.1820
 2786TIP3   OH229772   6.219   0.111  14.448  0.5219 -0.1319  0.0788
 2786TIP3    H129773   6.137   0.120  14.399 -0.4493 -1.7462  1.2849
 2786TIP3    H229774   6.269   0.190  14.427 -0.6226  0.1015 -2.0053
 2787TIP3   OH229775   0.006   1.129   2.740 -0.2567  0.0382  0.8301
 2787TIP3    H129776   0.069   1.095   2.676 -0.0382 -0.7685  1.4615
 2787TIP3    H229777  -0.074   1.079   2.725 -0.2726 -0.0037  1.0494
 2788TIP3   OH229778   5.085   3.690   4.868 -0.5875 -0.2552  0.3909
 2788TIP3    H129779   5.063   3.781   4.850  2.2499  0.5509  0.4114
 2788TIP3    H229780   5.109   3.654   4.782  0.9517 -0.1144  0.7357
 2789TIP3   OH229781   0.364   0.167  12.381  0.5101 -0.1126 -0.1370
 2789TIP3    H129782   0.392   0.224  12.453  0.1095 -1.8090  1.4253
 2789TIP3    H229783   0.333   0.228  12.314  1.3076  1.5496  0.9222
 2790TIP3   OH229784   1.699   3.421   4.536  0.1123 -0.9214  0.1642
 2790TIP3    H129785   1.701   3.512   4.505 -2.7864 -0.9632 -0.4050
 2790TIP3    H229786   1.690   3.369   4.457 -0.1027 -1.5773  0.6129
 2791TIP3   OH229787   2.460   6.571  12.728  0.3428  0.5719  0.1178
 2791TIP3    H129788   2.384   6.512  12.726 -0.4903  1.5412  1.4415
 2791TIP3    H229789   2.461   6.605  12.817  0.9830  2.3089 -0.5195
 2792TIP3   OH229790   3.614   4.568  16.863  0.1579  0.3534  0.3196
 2792TIP3    H129791   3.694   4.516  16.869  1.2902  1.7544 -1.4842
 2792TIP3    H229792   3.614   4.620  16.944 -1.7000 -3.1457  2.8334
 2793TIP3   OH229793   2.772   4.883   2.595 -0.2782 -0.1894  0.0874
 2793TIP3    H129794   2.853   4.832   2.600 -0.3962 -0.3182  0.8608
 2793TIP3    H229795   2.781   4.947   2.665 -0.7713 -0.0988  0.0662
 2794TIP3   OH229796   3.534   2.518   2.476 -0.1140 -0.5188 -0.2177
 2794TIP3    H129797   3.614   2.496   2.429  1.2573  1.4097  1.0652
 2794TIP3    H229798   3.483   2.571   2.415 -0.6527 -2.0822 -1.1783
 2795TIP3   OH229799   0.427   6.637  13.693  0.1610 -0.1146 -0.0214
 2795TIP3    H129800   0.504   6.588  13.721  0.1664 -0.1668 -0.1282
 2795TIP3    H229801   0.357   6.610  13.753  0.3161  0.2027  0.3017
 2796TIP3   OH229802   5.485   6.005   0.825 -0.1446 -0.6378  0.2468
 2796TIP3    H129803   5.540   6.083   0.819 -0.2227 -0.5564  0.5878
 2796TIP3    H229804   5.457   5.989   0.735  1.4407 -1.3947 -0.1611
 2797TIP3   OH229805   5.239   4.339  15.866  1.1092 -0.3864  0.6961
 2797TIP3    H129806   5.228   4.281  15.941  2.5901 -0.8142  0.6099
 2797TIP3    H229807   5.199   4.292  15.793 -0.5738  0.1479  1.2395
 2798TIP3   OH229808   5.990   0.749  16.708 -0.6878 -0.5485 -0.1834
 2798TIP3    H129809   6.048   0.785  16.776  0.2719 -1.4438 -0.4976
 2798TIP3    H229810   6.030   0.778  16.625  0.6203 -2.9345 -0.4904
 2799TIP3   OH229811   5.042   4.728  10.484  0.2262  0.2811  0.1061
 2799TIP3    H129812   5.089   4.734  10.567  0.3572  0.0303  0.0521
 2799TIP3    H229813   5.106   4.692  10.423 -0.1634 -0.4863  0.1404
 2800TIP3   OH229814   2.459   2.703   1.537  0.1499  0.2350 -0.1836
 2800TIP3    H129815   2.507   2.770   1.587 -1.1493  0.9493  0.1444
 2800TIP3    H229816   2.440   2.745   1.453  0.9523 -0.4095 -0.7053
 2801TIP3   OH229817   3.511   2.188  11.631 -0.0588 -0.3511  0.0924
 2801TIP3    H129818   3.559   2.146  11.702  2.4590 -0.1895 -1.4194
 2801TIP3    H229819   3.528   2.281  11.643 -1.4751 -0.1162  0.5039
 2802TIP3   OH229820   6.239   6.261  14.450 -0.7489 -0.8376 -0.1308
 2802TIP3    H129821   6.319   6.303  14.482 -0.6259 -0.1905 -1.2184
 2802TIP3    H229822   6.262   6.230  14.362 -2.2039  1.1148 -1.2869
 2803TIP3   OH229823   3.435   1.885  12.903 -0.4362 -0.7388  0.5572
 2803TIP3    H129824   3.391   1.923  12.979 -0.3870 -0.4194  0.4295
 2803TIP3    H229825   3.515   1.937  12.893 -0.0408 -1.3002  0.7737
 2804TIP3   OH229826   1.832   2.925   0.490  0.0574 -0.2360  0.0619
 2804TIP3    H129827   1.759   2.921   0.428 -0.5911  0.6473  0.7388
 2804TIP3    H229828   1.857   2.833   0.504 -0.5190 -0.5102 -0.6469
 2805TIP3   OH229829   5.022   4.997  16.749  0.0718 -0.4578  0.3991
 2805TIP3    H129830   5.115   5.014  16.732 -0.1020 -0.9203 -1.1173
 2805TIP3    H229831   5.010   4.905  16.727 -1.2536  0.1926 -1.9264
 2806TIP3   OH229832   5.707   3.324  14.143  0.2139 -0.2017  0.0192
 2806TIP3    H129833   5.730   3.415  14.125 -0.7485 -0.2847 -1.9128
 2806TIP3    H229834   5.627   3.328  14.196  0.3627  0.0686  0.2234
 2807TIP3   OH229835   2.885   2.966  14.956 -0.4556  0.3902  0.3789
 2807TIP3    H129836   2.948   2.909  14.911  0.8877  2.5222 -0.5525
 2807TIP3    H229837   2.902   2.952  15.049 -0.1250 -0.6855  0.1716
 2808TIP3   OH229838   2.446   4.561   3.143 -0.0080 -0.2424  0.1737
 2808TIP3    H129839   2.539   4.548   3.127  0.1822  0.7491  0.3967
 2808TIP3    H229840   2.435   4.542   3.236  0.3676  1.5290  0.6240
 2809TIP3   OH229841   1.987   0.035   1.657  0.4701  0.2518 -0.3431
 2809TIP3    H129842   1.902  -0.006   1.642 -0.1603  1.0861  0.7984
 2809TIP3    H229843   2.051  -0.033   1.633 -0.5238 -0.7811 -0.1529
 2810TIP3   OH229844   2.399   0.799   5.855 -0.1420 -0.1426  0.1035
 2810TIP3    H129845   2.316   0.771   5.893  0.1432 -0.9326  0.1451
 2810TIP3    H229846   2.462   0.732   5.880  0.5679  0.5615  0.2602
 2811TIP3   OH229847   2.351   0.264  12.639 -0.1482  0.0657  0.1586
 2811TIP3    H129848   2.432   0.222  12.667 -0.2029 -0.0442  0.1506
 2811TIP3    H229849   2.310   0.201  12.580 -0.0069  0.3188 -0.2127
 2812TIP3   OH229850   0.865   4.670   3.267 -0.4765 -0.1751  0.2889
 2812TIP3    H129851   0.803   4.599   3.281 -1.1909  0.3433 -0.1820
 2812TIP3    H229852   0.908   4.681   3.352  0.2759 -1.7301  0.1507
 2813TIP3   OH229853   5.572   1.095   3.480  0.1505 -0.0056 -0.3479
 2813TIP3    H129854   5.571   1.135   3.392 -2.0065  1.3579  0.2173
 2813TIP3    H229855   5.510   1.023   3.474 -2.7015  2.1460  0.8002
 2814TIP3   OH229856   2.316   5.138   1.447 -0.2302  0.1367 -0.3293
 2814TIP3    H129857   2.283   5.226   1.468 -0.7413 -0.1497  0.0904
 2814TIP3    H229858   2.383   5.121   1.513 -0.6817 -0.0971  0.0794
 2815TIP3   OH229859   2.558   0.776  12.572 -0.0703  0.6626  0.0230
 2815TIP3    H129860   2.573   0.696  12.623  0.0992 -0.5024 -1.7574
 2815TIP3    H229861   2.610   0.843  12.616 -1.0292  0.0802  2.1742
 2816TIP3   OH229862   6.388   5.169   5.073 -0.1070 -0.4935  0.1440
 2816TIP3    H129863   6.413   5.243   5.128  1.4647 -0.4018 -0.6278
 2816TIP3    H229864   6.305   5.137   5.110 -0.3829  1.1223  0.9842
 2817TIP3   OH229865   6.261   5.335  10.544 -0.5520  0.3173 -0.6518
 2817TIP3    H129866   6.281   5.316  10.636 -2.1131  0.6541 -0.2175
 2817TIP3    H229867   6.237   5.250  10.507  0.6631  0.0760 -0.9286
 2818TIP3   OH229868   4.479   4.093   6.144  0.2120  0.1445 -0.1657
 2818TIP3    H129869   4.413   4.026   6.166 -0.2671  0.4082 -0.7786
 2818TIP3    H229870   4.558   4.063   6.189 -0.9145  1.1204  2.7474
 2819TIP3   OH229871   0.505   4.036  12.715  0.5861  0.6981  0.3065
 2819TIP3    H129872   0.513   3.996  12.802 -0.8560 -0.2553  0.0243
 2819TIP3    H229873   0.568   3.988  12.661  2.2682  1.9928  1.0062
 2820TIP3   OH229874   5.420   2.160   2.883  0.4578 -0.4166  0.1880
 2820TIP3    H129875   5.364   2.083   2.895 -1.1756  0.3490 -1.8665
 2820TIP3    H229876   5.400   2.216   2.958 -0.7687 -0.6376  0.0577
 2821TIP3   OH229877   6.363   3.966  15.168  0.1750 -0.1780 -0.3708
 2821TIP3    H129878   6.314   4.043  15.199  1.5912  0.5280  0.2046
 2821TIP3    H229879   6.402   3.994  15.086  1.1350 -0.0860  0.1054
 2822TIP3   OH229880   2.873   1.987  13.141 -0.3714 -0.2496 -0.1315
 2822TIP3    H129881   2.815   1.949  13.075  0.6482 -0.3863 -0.9781
 2822TIP3    H229882   2.960   1.983  13.101 -0.0566  1.8893  0.2107
 2823TIP3   OH229883   3.297   5.266  14.236 -0.0762  0.2999 -0.2796
 2823TIP3    H129884   3.266   5.294  14.150  1.7927  1.4858 -0.6309
 2823TIP3    H229885   3.236   5.198  14.263 -1.4525  0.8024 -1.9722
 2824TIP3   OH229886   6.533   2.440  13.419 -0.2885  0.2399  0.5912
 2824TIP3    H129887   6.520   2.345  13.419  0.8326  0.0434 -1.1398
 2824TIP3    H229888   6.602   2.455  13.484 -0.9591 -0.0268  1.3802
 2825TIP3   OH229889   3.780   2.038   2.919 -0.3478 -0.5094  0.4591
 2825TIP3    H129890   3.822   2.091   2.851  1.2394 -3.3117 -0.9252
 2825TIP3    H229891   3.703   2.002   2.877 -1.4860  0.6897  1.4299
 2826TIP3   OH229892   4.522   0.686  11.287 -0.3911  0.6485  0.8789
 2826TIP3    H129893   4.463   0.708  11.359  0.0802  0.8969  1.1935
 2826TIP3    H229894   4.607   0.720  11.314  0.6659 -2.5160  1.9415
 2827TIP3   OH229895   1.341   6.797   4.829 -0.0646 -0.0513  0.2760
 2827TIP3    H129896   1.388   6.794   4.746 -0.8632  0.7220 -0.2156
 2827TIP3    H229897   1.374   6.721   4.878  2.1178  0.7897  0.2095
 2828TIP3   OH229898   0.682   2.850   1.676  0.8778  0.9946  0.1083
 2828TIP3    H129899   0.640   2.765   1.688  0.5752  0.8126 -1.8945
 2828TIP3    H229900   0.642   2.906   1.743 -1.6741  0.5035 -0.8944
 2829TIP3   OH229901   5.008   5.406  12.513 -0.1963 -0.3094  0.3279
 2829TIP3    H129902   4.953   5.347  12.564  0.0870 -0.5286  0.3753
 2829TIP3    H229903   5.052   5.350  12.450 -1.4839  0.0937 -1.0128
 2830TIP3   OH229904   5.676   4.286  16.881  0.3239 -0.1011 -0.0053
 2830TIP3    H129905   5.767   4.280  16.850  0.0497  0.1714 -0.9151
 2830TIP3    H229906   5.645   4.196  16.884  0.4674 -0.1584 -0.2060
 2831TIP3   OH229907   3.333   0.204  13.803 -0.0156  0.1556 -0.2970
 2831TIP3    H129908   3.292   0.184  13.719 -0.8179  1.8585 -0.3585
 2831TIP3    H229909   3.260   0.231  13.859  0.7719  1.2722  0.2262
 2832TIP3   OH229910   6.234   2.177  15.796  0.1290  0.2580 -0.1854
 2832TIP3    H129911   6.271   2.095  15.765 -4.1157 -1.3859 -1.6109
 2832TIP3    H229912   6.230   2.233  15.718  0.0133  0.5824  0.0475
 2833TIP3   OH229913   3.537   3.647   0.481  0.0209 -0.0665  0.1556
 2833TIP3    H129914   3.598   3.677   0.547  0.9302 -0.1640 -0.6220
 2833TIP3    H229915   3.590   3.594   0.422 -0.4051  1.3609 -1.5883
 2834TIP3   OH229916   4.927   1.526  12.267  0.3061  0.0344  0.0947
 2834TIP3    H129917   4.940   1.525  12.362  0.0810 -0.4538  0.1197
 2834TIP3    H229918   4.945   1.437  12.239 -1.5514 -0.3320 -0.0624
 2835TIP3   OH229919   0.426   6.497   4.168  0.6536  0.7098  0.3949
 2835TIP3    H129920   0.348   6.510   4.114  1.4513 -1.9713 -1.5992
 2835TIP3    H229921   0.470   6.582   4.167  0.7215  0.8148 -3.4955
 2836TIP3   OH229922   0.032   0.734  14.381  0.3572 -0.1002  0.1992
 2836TIP3    H129923   0.031   0.792  14.305  0.0809 -1.6407 -1.0271
 2836TIP3    H229924   0.020   0.792  14.456  1.3495  1.5542 -0.8571
 2837TIP3   OH229925   6.572   1.197  14.980 -0.6906 -0.5929  0.0541
 2837TIP3    H129926   6.493   1.184  15.032  0.4629 -1.3841  1.7229
 2837TIP3    H229927   6.567   1.132  14.910 -2.4568  0.7337 -1.1234
 2838TIP3   OH229928   3.616   5.283  14.202  0.1673 -0.4620 -0.0612
 2838TIP3    H129929   3.630   5.318  14.291 -0.5694 -3.5784  1.4315
 2838TIP3    H229930   3.544   5.335  14.167  0.2873  0.6625  1.2590
 2839TIP3   OH229931   5.911   6.506  14.024 -0.0596  0.1163  0.0252
 2839TIP3    H129932   5.904   6.498  13.929  1.2907 -1.5501  0.0131
 2839TIP3    H229933   5.857   6.435  14.058  2.0013 -1.3967  0.3543
 2840TIP3   OH229934   5.584   5.067   2.980 -0.0294 -0.5267  0.0079
 2840TIP3    H129935   5.506   5.114   3.008  0.4136 -0.0706  0.5144
 2840TIP3    H229936   5.643   5.071   3.056  0.3277 -1.2133 -0.2208
 2841TIP3   OH229937   0.416   2.233   1.292  0.0355 -0.0311  0.7379
 2841TIP3    H129938   0.328   2.267   1.309  0.3059  0.7800  0.5152
 2841TIP3    H229939   0.405   2.138   1.292 -0.2002 -0.1591  4.5320
 2842TIP3   OH229940   0.674   0.707  15.857  0.1393  0.0655 -0.3354
 2842TIP3    H129941   0.702   0.696  15.766  1.4745 -0.8879  0.1675
 2842TIP3    H229942   0.625   0.789  15.857  2.0331  1.2514 -1.4874
 2843TIP3   OH229943   0.482   5.152   1.438 -0.2334  0.2052 -0.3902
 2843TIP3    H129944   0.533   5.073   1.422  1.5745  1.0171  0.9933
 2843TIP3    H229945   0.484   5.199   1.354  1.5926  0.3415 -0.3082
 2844TIP3   OH229946   5.536   6.314  10.687 -0.1950 -0.1029 -0.2023
 2844TIP3    H129947   5.448   6.276  10.685  0.4846 -1.9095  1.1338
 2844TIP3    H229948   5.567   6.306  10.596 -0.2809 -2.4423 -0.0998
 2845TIP3   OH229949   1.377   1.122  15.171  0.0123 -0.0698  0.1275
 2845TIP3    H129950   1.340   1.203  15.205  1.3311 -0.0596  1.6520
 2845TIP3    H229951   1.359   1.057  15.239 -0.0706 -0.8205 -0.5893
 2846TIP3   OH229952   3.017   5.338   5.062  0.2120  0.3208  0.2893
 2846TIP3    H129953   3.049   5.253   5.090 -0.8018 -0.2178 -0.1375
 2846TIP3    H229954   3.091   5.398   5.076  1.1775 -0.7587 -0.0805
 2847TIP3   OH229955   2.585   3.799   2.402 -0.1095 -0.0097  0.2392
 2847TIP3    H129956   2.510   3.816   2.460  0.3894  0.7553  0.6849
 2847TIP3    H229957   2.589   3.876   2.345 -0.4705 -0.6615 -0.6932
 2848TIP3   OH229958   1.499   1.734   2.591 -0.1561 -0.1758 -0.2637
 2848TIP3    H129959   1.406   1.754   2.603  0.0211 -0.1769  1.2884
 2848TIP3    H229960   1.503   1.639   2.588  0.0370 -0.3211  2.4116
 2849TIP3   OH229961   0.861   1.211   5.375  0.4310  0.5150 -0.2043
 2849TIP3    H129962   0.828   1.266   5.446 -3.0715 -0.8805 -0.4980
 2849TIP3    H229963   0.896   1.134   5.419 -0.7809  0.1132  0.1120
 2850TIP3   OH229964   3.426   2.655   0.887  0.4104 -0.0062  0.4093
 2850TIP3    H129965   3.428   2.751   0.891  2.1822  0.0518 -0.6066
 2850TIP3    H229966   3.498   2.628   0.945  0.2603 -0.6925  0.2818
 2851TIP3   OH229967   5.243   2.711  12.742 -0.0084 -0.0038  0.0059
 2851TIP3    H129968   5.282   2.665  12.667 -3.1809  0.0051 -1.8624
 2851TIP3    H229969   5.299   2.786  12.757  1.4778 -0.7527 -1.4898
 2852TIP3   OH229970   0.134   6.073   6.098 -0.3251  0.3889 -0.7841
 2852TIP3    H129971   0.188   6.018   6.041 -2.6521 -2.0510 -0.8547
 2852TIP3    H229972   0.158   6.045   6.187  0.0666  0.9080 -0.7220
 2853TIP3   OH229973   0.981   0.963   0.093  0.8286 -0.1814 -0.0822
 2853TIP3    H129974   0.923   0.992   0.022 -1.7472 -2.1024  1.0826
 2853TIP3    H229975   1.012   1.045   0.133 -2.3614  1.0810  0.1641
 2854TIP3   OH229976   0.112   3.260  12.501 -0.2197  0.8471 -0.5012
 2854TIP3    H129977   0.139   3.322  12.568 -2.2641  0.0705  1.1119
 2854TIP3    H229978   0.150   3.177  12.529 -1.6047  0.3914  0.0831
 2855TIP3   OH229979   6.428   1.710   3.735 -0.3590 -0.3181  0.0230
 2855TIP3    H129980   6.341   1.750   3.725  0.6801  1.8031 -1.3731
 2855TIP3    H229981   6.482   1.780   3.771  1.0143 -1.2551 -0.1595
 2856TIP3   OH229982   0.731   1.737   0.162 -0.5642 -0.3676 -0.2021
 2856TIP3    H129983   0.814   1.727   0.207  0.7686  0.9853 -2.1506
 2856TIP3    H229984   0.695   1.819   0.196  0.6942  0.9325 -1.8119
 2857TIP3   OH229985   4.472   3.945  12.761  0.1686  0.0687  0.0821
 2857TIP3    H129986   4.562   3.918  12.782 -0.3903 -1.2980  0.7925
 2857TIP3    H229987   4.434   3.870  12.716 -0.7315  0.5195  0.0789
 2858TIP3   OH229988   0.676   5.729  15.870 -0.2597  0.0242 -0.4454
 2858TIP3    H129989   0.694   5.812  15.827 -1.4534  0.4164 -0.2214
 2858TIP3    H229990   0.737   5.727  15.945 -0.3775  0.7993 -0.3233
 2859TIP3   OH229991   3.596   6.133  11.785  0.5255 -0.1846 -0.1485
 2859TIP3    H129992   3.602   6.070  11.857 -0.0922 -1.3806 -1.1041
 2859TIP3    H229993   3.514   6.111  11.741 -0.3870  2.1655  0.2555
 2860TIP3   OH229994   2.094   3.855  13.757 -0.1991 -0.4199  0.4406
 2860TIP3    H129995   2.080   3.931  13.701 -1.4508  0.1958  1.5340
 2860TIP3    H229996   2.182   3.869  13.794 -0.8208  1.1057  1.4724
 2861TIP3   OH229997   1.623   4.127  10.769  0.0277 -0.2238 -0.2204
 2861TIP3    H129998   1.598   4.118  10.677  0.4296 -0.1583 -0.3388
 2861TIP3    H229999   1.687   4.198  10.769  1.4992 -1.5005 -0.1843
 2862TIP3   OH230000   3.425   4.857  13.000 -0.3044  0.1406 -0.3831
 2862TIP3    H130001   3.361   4.858  12.928 -1.7111 -0.7906  0.7855
 2862TIP3    H230002   3.409   4.938  13.048 -0.5604 -0.0603 -0.1287
 2863TIP3   OH230003   6.185   6.351  10.366 -0.3354 -0.5874  0.0921
 2863TIP3    H130004   6.210   6.390  10.282  1.1117 -0.8315  0.3800
 2863TIP3    H230005   6.184   6.424  10.428 -2.7873 -0.1502 -0.3532
 2864TIP3   OH230006   0.357   6.281  12.796 -0.4285  0.0090 -0.5093
 2864TIP3    H130007   0.371   6.375  12.801 -0.5778  0.0396 -0.6429
 2864TIP3    H230008   0.401   6.255  12.714  1.2969 -0.3485  0.4770
 2865TIP3   OH230009   0.588   0.503  16.510 -0.3908 -0.4952 -0.0603
 2865TIP3    H130010   0.587   0.422  16.459  0.3255  0.8298 -2.3313
 2865TIP3    H230011   0.670   0.546  16.484 -2.1140  2.3225 -1.3223
 2866TIP3   OH230012   3.098   6.140  16.964 -0.6202 -0.1603  0.2221
 2866TIP3    H130013   3.131   6.057  16.930 -0.2691 -0.3299  0.9520
 2866TIP3    H230014   3.049   6.178  16.891 -1.2035 -1.2358  0.0257
 2867TIP3   OH230015   4.021   2.118  12.473 -0.1223 -0.4057  0.2145
 2867TIP3    H130016   4.085   2.052  12.444  1.2782  0.7041  0.6572
 2867TIP3    H230017   3.993   2.088  12.559 -0.7592 -1.2841 -0.2922
 2868TIP3   OH230018   2.371   4.415  14.417 -0.0590 -0.9888 -0.7256
 2868TIP3    H130019   2.332   4.397  14.503 -0.7304 -1.2000 -1.0611
 2868TIP3    H230020   2.330   4.351  14.359  1.7975 -2.1169 -0.8524
 2869TIP3   OH230021   0.612   5.848  14.038  0.2863  0.0603  0.0989
 2869TIP3    H130022   0.530   5.885  14.004  0.1612  1.0601  1.4508
 2869TIP3    H230023   0.599   5.753  14.031 -1.0172  0.2006  0.3300
 2870TIP3   OH230024   6.083   6.199   5.111 -0.5939  0.2974 -0.1999
 2870TIP3    H130025   6.126   6.212   5.027  0.2613  2.4002  0.4952
 2870TIP3    H230026   5.996   6.238   5.100 -1.1196 -0.9313 -0.5796
 2871TIP3   OH230027   4.857   4.655  16.392  0.7630 -0.1564  0.2348
 2871TIP3    H130028   4.812   4.601  16.327 -0.1167  1.7042 -0.7690
 2871TIP3    H230029   4.916   4.711  16.341  0.8412  0.6033  1.1202
 2872TIP3   OH230030   1.435   1.339   5.381 -0.1512 -0.3814  0.1632
 2872TIP3    H130031   1.384   1.417   5.399 -1.7452 -1.5060  0.7688
 2872TIP3    H230032   1.437   1.332   5.286 -2.5955 -1.1787  0.1117
 2873TIP3   OH230033   5.441   4.729   4.226 -0.6961 -0.8175 -0.2802
 2873TIP3    H130034   5.367   4.788   4.211 -1.1745 -1.5261 -0.8276
 2873TIP3    H230035   5.447   4.723   4.321 -0.3926  0.3975 -0.2105
 2874TIP3   OH230036   3.073   0.603   5.915  0.2392  0.1935 -0.0084
 2874TIP3    H130037   3.035   0.547   5.982 -1.9404  0.5994 -0.8034
 2874TIP3    H230038   3.074   0.690   5.955  0.0877  0.2200 -0.0594
 2875TIP3   OH230039   2.936   0.591   2.493  0.0078  0.3612 -0.3240
 2875TIP3    H130040   3.022   0.632   2.505 -0.7149  2.0391 -0.6221
 2875TIP3    H230041   2.946   0.538   2.414  1.5377 -1.7292  1.1647
 2876TIP3   OH230042   3.223   4.364  14.803 -0.4946  0.2723 -0.1715
 2876TIP3    H130043   3.249   4.405  14.721  0.1818  1.0517  0.4094
 2876TIP3    H230044   3.142   4.408  14.828 -1.1289 -0.5159 -0.8060
 2877TIP3   OH230045   1.160   6.658   3.397  0.2011  0.3425  0.4317
 2877TIP3    H130046   1.176   6.752   3.392 -1.6612  0.7869  1.7168
 2877TIP3    H230047   1.121   6.635   3.313  0.2881  0.7905  0.2669
 2878TIP3   OH230048   6.729   5.232  16.377 -0.0405 -0.3950 -0.3974
 2878TIP3    H130049   6.703   5.142  16.358  3.0384 -1.8727  1.6962
 2878TIP3    H230050   6.688   5.252  16.462 -0.0316 -0.1224 -0.4546
 2879TIP3   OH230051   0.490   3.117  12.375 -0.4575 -0.4679 -0.5044
 2879TIP3    H130052   0.561   3.062  12.408 -1.0776 -0.7732  0.3386
 2879TIP3    H230053   0.520   3.146  12.288 -0.1314 -2.1608 -0.9879
 2880TIP3   OH230054   3.595   3.984  15.916 -0.1500  0.3607  0.2764
 2880TIP3    H130055   3.588   4.026  15.830  0.3444 -1.2365 -0.5809
 2880TIP3    H230056   3.602   4.057  15.978 -1.5375  1.5687 -0.9142
 2881TIP3   OH230057   1.683   2.846  12.603  0.3828 -0.8732  0.1474
 2881TIP3    H130058   1.617   2.791  12.561  0.6916 -1.2990  0.2205
 2881TIP3    H230059   1.742   2.871  12.532  2.1107 -3.2983  0.6440
 2882TIP3   OH230060   4.108   0.530  16.584  0.4338  0.1861  0.2272
 2882TIP3    H130061   4.064   0.522  16.669  1.2973 -1.8763  0.5461
 2882TIP3    H230062   4.154   0.614  16.588 -0.1647  0.4724  1.4844
 2883TIP3   OH230063   5.399   6.230   5.271  0.3474 -0.3152 -0.1991
 2883TIP3    H130064   5.378   6.185   5.352 -1.6538  0.4282 -0.2567
 2883TIP3    H230065   5.430   6.160   5.212 -0.0216 -1.1517  0.5847
 2884TIP3   OH230066   6.615   4.484   3.638  0.3220 -0.3037  0.6122
 2884TIP3    H130067   6.706   4.484   3.606 -0.0594 -0.8109 -0.5185
 2884TIP3    H230068   6.623   4.500   3.732  1.5434  0.3211  0.4287
 2885TIP3   OH230069   4.509   5.589  16.780 -0.2605  0.0240  0.2097
 2885TIP3    H130070   4.467   5.510  16.814  0.1896 -1.2090 -1.8951
 2885TIP3    H230071   4.568   5.617  16.850 -1.8215 -0.3407  1.7509
 2886TIP3   OH230072   6.314   5.164  16.822  0.2417 -0.3038  0.2755
 2886TIP3    H130073   6.222   5.149  16.802 -0.4943  1.9254  1.7074
 2886TIP3    H230074   6.342   5.082  16.864 -1.4765 -0.5168  1.0982
 2887TIP3   OH230075   0.709   6.286  13.593  0.0677 -0.2932 -0.1773
 2887TIP3    H130076   0.733   6.205  13.547 -1.5579 -1.7046  1.2881
 2887TIP3    H230077   0.616   6.297  13.575  0.2527  1.2211 -0.2755
 2888TIP3   OH230078   5.091   5.086  10.790 -0.0848 -0.1111 -0.0290
 2888TIP3    H130079   5.048   5.056  10.710  0.3065  1.6722 -0.9660
 2888TIP3    H230080   5.177   5.116  10.760  1.7103 -3.0293  1.6838
 2889TIP3   OH230081   2.801   4.836  12.361  0.6571 -0.0697  0.7992
 2889TIP3    H130082   2.835   4.893  12.292  0.2516  0.2652  0.8745
 2889TIP3    H230083   2.871   4.773  12.376  2.0068  1.6847  2.2469
 2890TIP3   OH230084   5.590   5.427   5.442 -0.4141 -0.4812  0.0049
 2890TIP3    H130085   5.612   5.442   5.534 -1.1328 -1.7842  0.4168
 2890TIP3    H230086   5.673   5.406   5.400 -0.0889  0.0488  0.3686
 2891TIP3   OH230087   0.709   0.377   5.865  0.2846  0.3629  0.1164
 2891TIP3    H130088   0.738   0.310   5.927 -1.6251  0.8644  1.6671
 2891TIP3    H230089   0.634   0.337   5.820 -0.2546  1.0905  0.3560
 2892TIP3   OH230090   5.188   3.179   3.223 -0.4974 -0.0914 -0.1799
 2892TIP3    H130091   5.225   3.264   3.197 -1.1797 -0.1625 -1.4865
 2892TIP3    H230092   5.151   3.144   3.142  0.5004 -2.0366  0.1569
 2893TIP3   OH230093   5.484   6.653   4.413  0.3031  0.0152 -0.4345
 2893TIP3    H130094   5.579   6.643   4.407  0.0168 -3.4294 -1.1313
 2893TIP3    H230095   5.452   6.636   4.325 -0.9996  1.3749 -0.2633
 2894TIP3   OH230096   2.948   4.105  14.995 -0.2111 -0.3618  0.1610
 2894TIP3    H130097   2.881   4.053  15.039 -1.2336 -0.3325 -1.2980
 2894TIP3    H230098   2.912   4.193  14.991 -0.0408 -0.3176 -0.5326
 2895TIP3   OH230099   0.683   0.914   5.307  0.2122 -1.0858  0.2542
 2895TIP3    H130100   0.602   0.956   5.279  0.1026 -1.4622 -0.0037
 2895TIP3    H230101   0.710   0.962   5.385  1.0359  0.6433 -1.0135
 2896TIP3   OH230102   5.727   4.367  16.577  0.5381 -0.5141 -0.3086
 2896TIP3    H130103   5.696   4.288  16.532  1.1012 -1.9833  1.7301
 2896TIP3    H230104   5.735   4.341  16.669 -0.6276  2.3380  0.7333
 2897TIP3   OH230105   0.509   1.508  15.843  0.4096  0.3924  0.2285
 2897TIP3    H130106   0.477   1.525  15.932  0.2136 -0.7125  0.3749
 2897TIP3    H230107   0.438   1.537  15.786  1.0278  2.3058  0.3430
 2898TIP3   OH230108   4.557   4.462   0.893 -0.1880  0.6700  0.1725
 2898TIP3    H130109   4.631   4.477   0.834  0.4271  2.0950  1.2194
 2898TIP3    H230110   4.588   4.397   0.955 -1.3658 -2.0140 -1.8657
 2899TIP3   OH230111   1.433   6.312   1.138 -0.3607 -0.3025 -0.0334
 2899TIP3    H130112   1.354   6.364   1.123 -1.4565 -2.0545 -0.5499
 2899TIP3    H230113   1.487   6.327   1.060 -0.3535  0.5366  0.1181
 2900TIP3   OH230114   2.381   3.473   3.530 -0.2731  0.7063  0.3283
 2900TIP3    H130115   2.463   3.462   3.577 -0.0180 -1.1581 -0.4786
 2900TIP3    H230116   2.406   3.483   3.438 -0.9111  0.9961  0.1795
 2901TIP3   OH230117   1.561   6.621  11.152  0.1907  0.8860 -0.1232
 2901TIP3    H130118   1.642   6.578  11.124 -0.9638 -0.0972 -2.1700
 2901TIP3    H230119   1.493   6.555  11.139 -1.1235  2.1116  0.3039
 2902TIP3   OH230120   5.386   2.640   4.806  0.1501 -0.4920  0.5493
 2902TIP3    H130121   5.377   2.577   4.734  0.6316  0.1060 -0.0481
 2902TIP3    H230122   5.457   2.604   4.860 -1.4646 -1.9458  1.8229
 2903TIP3   OH230123   4.326   0.605  12.074 -0.1587 -0.8332  0.0202
 2903TIP3    H130124   4.370   0.606  12.159  1.0828  0.8198 -0.5975
 2903TIP3    H230125   4.302   0.696  12.058 -0.2737 -1.1037 -1.4462
 2904TIP3   OH230126   0.695   6.357   1.671  0.0761 -0.1873  0.6036
 2904TIP3    H130127   0.613   6.330   1.714  0.4078 -2.2208  0.0573
 2904TIP3    H230128   0.764   6.319   1.725  0.6352  0.6709  0.5019
 2905TIP3   OH230129   6.697   3.193  12.640  0.6240  0.2288  0.1801
 2905TIP3    H130130   6.769   3.209  12.580  0.6165  0.6768  0.2895
 2905TIP3    H230131   6.667   3.280  12.666 -0.1142  0.0501 -0.0567
 2906TIP3   OH230132   4.134   0.334   0.418  0.2439  0.1558  0.1596
 2906TIP3    H130133   4.157   0.302   0.505  0.2892  1.2939  0.5823
 2906TIP3    H230134   4.075   0.268   0.383 -1.1329  0.4926  1.7266
 2907TIP3   OH230135   4.133   3.562  12.486 -0.0550 -0.3933 -0.2089
 2907TIP3    H130136   4.067   3.573  12.418  0.0953 -0.8673 -0.4356
 2907TIP3    H230137   4.216   3.582  12.442 -0.0325  0.0251  0.0267
 2908TIP3   OH230138   0.453   2.493   0.793 -0.9064 -0.1904  0.2501
 2908TIP3    H130139   0.369   2.481   0.839 -0.6661 -3.1429  0.0915
 2908TIP3    H230140   0.510   2.534   0.858 -2.0919  0.7280  0.7616
 2909TIP3   OH230141   6.356   6.122  16.529  0.1433 -0.3550 -0.6743
 2909TIP3    H130142   6.451   6.122  16.514  0.1831 -1.8228 -0.5221
 2909TIP3    H230143   6.340   6.044  16.583 -0.9978  0.5331  0.3277
 2910TIP3   OH230144   5.620   3.067  14.388 -0.0581  0.3034  0.0908
 2910TIP3    H130145   5.565   3.142  14.366 -1.3523 -0.6866 -0.2315
 2910TIP3    H230146   5.676   3.054  14.311  0.0050  0.7887  0.0546
 2911TIP3   OH230147   3.975   0.123   0.389  0.4492 -0.0031  0.2304
 2911TIP3    H130148   3.944   0.096   0.476  3.1487  0.3579  1.4298
 2911TIP3    H230149   4.028   0.049   0.359  1.5421  0.8246  0.0451
 2912TIP3   OH230150   2.096   5.012  14.713  0.8196 -0.4184  0.3652
 2912TIP3    H130151   2.037   4.940  14.734  1.9069 -1.4274  0.0695
 2912TIP3    H230152   2.135   5.037  14.797  0.0703  0.1757  0.5431
 2913TIP3   OH230153   0.661   4.143   3.852  0.6348 -0.4373 -0.4694
 2913TIP3    H130154   0.707   4.097   3.781  2.4762 -0.5090  0.6977
 2913TIP3    H230155   0.669   4.085   3.927 -2.2496 -0.8705 -0.3869
 2914TIP3   OH230156   5.013   3.080   4.265 -0.2541 -0.1245 -0.3791
 2914TIP3    H130157   5.028   3.172   4.242 -1.8666  1.0061  2.5187
 2914TIP3    H230158   5.084   3.059   4.326 -0.8521 -0.1902  0.3136
 2915TIP3   OH230159   3.367   3.961  16.181  0.3481  0.1859  0.0828
 2915TIP3    H130160   3.354   3.892  16.117 -0.7423  0.4145  0.0413
 2915TIP3    H230161   3.374   3.915  16.265  1.3310 -0.0783 -0.1223
 2916TIP3   OH230162   4.699   1.512   3.515  0.0209  0.6096  0.8208
 2916TIP3    H130163   4.660   1.587   3.560 -0.8479  0.3918  0.4570
 2916TIP3    H230164   4.655   1.436   3.552  2.7874 -0.0267  3.1689
 2917TIP3   OH230165   0.248   4.038  16.051  0.6171 -0.0629  0.4395
 2917TIP3    H130166   0.284   4.022  16.138  0.6557  0.1525  0.4649
 2917TIP3    H230167   0.313   4.001  15.991  1.5212  1.4195  0.4376
 2918TIP3   OH230168   2.123   3.793   0.237  0.4883  0.4476  0.2132
 2918TIP3    H130169   2.163   3.707   0.224 -0.2541 -0.0197  0.8446
 2918TIP3    H230170   2.190   3.845   0.281  0.9285  0.1801 -0.1361
 2919TIP3   OH230171   1.850   3.305   5.987  0.1186 -0.1288 -0.2379
 2919TIP3    H130172   1.814   3.218   5.968 -1.1259  0.1073  0.8560
 2919TIP3    H230173   1.792   3.340   6.055 -0.1769  2.0474 -1.5173
 2920TIP3   OH230174   3.131   6.672  14.598  0.1873  0.0079  0.1018
 2920TIP3    H130175   3.154   6.672  14.691 -1.5005  1.8005  0.5945
 2920TIP3    H230176   3.073   6.748  14.588  0.6109  0.0794 -2.5029
 2921TIP3   OH230177   0.687   6.696   2.237 -0.3685 -0.0137 -0.3102
 2921TIP3    H130178   0.686   6.774   2.181 -0.9919  1.2592  1.3656
 2921TIP3    H230179   0.599   6.692   2.274 -0.2137 -1.2770 -0.0338
 2922TIP3   OH230180   2.067   1.530  15.409  0.1934  0.5457 -0.1287
 2922TIP3    H130181   2.122   1.522  15.331 -0.6202 -0.5003 -0.6296
 2922TIP3    H230182   1.980   1.553  15.375 -0.5768 -1.5328  0.2769
 2923TIP3   OH230183   4.469   4.202   4.227 -0.0678 -0.1421 -0.3905
 2923TIP3    H130184   4.489   4.290   4.257 -0.5012  0.0276 -0.5844
 2923TIP3    H230185   4.549   4.152   4.243  0.1440  0.2586 -0.1818
 2924TIP3   OH230186   2.724   6.472   5.991  0.5627 -0.1151 -0.3858
 2924TIP3    H130187   2.683   6.398   6.034  0.3573  0.0332 -0.3264
 2924TIP3    H230188   2.787   6.506   6.054  0.0149  0.3165 -0.0685
 2925TIP3   OH230189   2.616   6.352  14.248  0.2873  0.5323 -0.4889
 2925TIP3    H130190   2.546   6.398  14.295  0.6018 -0.3269  0.8597
 2925TIP3    H230191   2.657   6.296  14.313  0.2987 -1.2471 -1.9305
 2926TIP3   OH230192   0.179   6.590   3.263  0.3324 -0.1194  0.1374
 2926TIP3    H130193   0.267   6.597   3.228 -0.8120 -0.0825 -3.1110
 2926TIP3    H230194   0.127   6.557   3.189 -2.5126  0.6041  1.6816
 2927TIP3   OH230195   0.197   3.012  13.725  0.1354  0.1463 -0.2682
 2927TIP3    H130196   0.172   2.972  13.808 -1.3080  1.2755 -0.1065
 2927TIP3    H230197   0.213   3.103  13.746 -0.9716  0.6207 -1.3119
 2928TIP3   OH230198   2.652   1.196  12.674 -0.1773  0.3705  0.5732
 2928TIP3    H130199   2.688   1.222  12.589 -0.7880  1.0085  0.4934
 2928TIP3    H230200   2.564   1.162  12.653  0.1049 -0.5399  0.8315
 2929TIP3   OH230201   4.583   1.077  11.551 -0.1929  0.0072 -0.0852
 2929TIP3    H130202   4.490   1.075  11.530 -0.0513 -1.3472 -0.7418
 2929TIP3    H230203   4.623   1.128  11.481 -0.0893 -2.0497 -1.6076
 2930TIP3   OH230204   4.328   5.098  13.783  0.3481  0.0736  0.3251
 2930TIP3    H130205   4.366   5.015  13.754 -1.6088 -1.1268  1.0617
 2930TIP3    H230206   4.394   5.136  13.841  0.6259 -1.7269  1.2237
 2931TIP3   OH230207   4.387   3.381   3.235  0.2724 -0.3258  0.3200
 2931TIP3    H130208   4.348   3.339   3.311  0.2616 -0.1485  0.4133
 2931TIP3    H230209   4.467   3.331   3.218 -0.9096 -1.8628 -1.0015
 2932TIP3   OH230210   0.188   1.025   2.549 -0.0417  0.1249  0.2148
 2932TIP3    H130211   0.223   1.097   2.497 -2.4202  1.1606 -0.0685
 2932TIP3    H230212   0.185   0.950   2.489 -0.0872  0.5376 -0.3013
 2933TIP3   OH230213   2.266   0.519   4.203 -0.0673  0.3331  0.0438
 2933TIP3    H130214   2.254   0.424   4.205 -0.3706  0.3837  1.5068
 2933TIP3    H230215   2.246   0.543   4.112 -0.5082 -0.9247 -0.2206
 2934TIP3   OH230216   6.773   2.911   0.029  0.4680  0.6173 -0.1689
 2934TIP3    H130217   6.784   2.912   0.124  0.7578 -0.8093 -0.1762
 2934TIP3    H230218   6.863   2.911  -0.005  0.3710  0.3108 -0.4242
 2935TIP3   OH230219   4.430   3.042   0.881 -0.4054 -0.0606 -0.3507
 2935TIP3    H130220   4.402   3.065   0.793 -0.9105 -0.0176 -0.1856
 2935TIP3    H230221   4.389   2.957   0.897 -1.4971  0.5712  0.3605
 2936TIP3   OH230222   5.818   4.831  15.888  0.3167  0.5127 -0.0141
 2936TIP3    H130223   5.804   4.922  15.863  0.5602  0.2432 -1.1544
 2936TIP3    H230224   5.771   4.780  15.822 -0.9072 -0.1813  1.3334
 2937TIP3   OH230225   4.335   3.711   3.842  0.3990  0.9874  0.2338
 2937TIP3    H130226   4.259   3.756   3.806  0.5628  0.3706 -0.9509
 2937TIP3    H230227   4.380   3.776   3.895 -0.1998  1.7663 -0.2052
 2938TIP3   OH230228   5.423   5.123   4.445  0.1673 -0.0215 -0.0331
 2938TIP3    H130229   5.343   5.095   4.399  0.8039  0.8003 -1.7171
 2938TIP3    H230230   5.431   5.216   4.424 -0.6334  1.0107  3.5088
 2939TIP3   OH230231   5.524   0.585  15.713  0.1561  0.0356  0.2715
 2939TIP3    H130232   5.509   0.529  15.636 -0.0383  1.3418 -0.6729
 2939TIP3    H230233   5.615   0.612  15.706 -0.3253  1.6172 -0.5601
 2940TIP3   OH230234   0.122   3.431   4.075  0.5645  0.1156  0.0632
 2940TIP3    H130235   0.200   3.487   4.084 -0.0475  0.9588  0.2192
 2940TIP3    H230236   0.086   3.426   4.164 -0.0750  0.4855 -0.1733
 2941TIP3   OH230237   3.203   3.237   1.074  0.6227  0.3201  0.0196
 2941TIP3    H130238   3.296   3.213   1.076 -0.1835 -3.4534 -0.6804
 2941TIP3    H230239   3.178   3.231   0.982 -0.7226 -0.6901  0.4185
 2942TIP3   OH230240   5.636   3.808   3.033 -0.4610  0.4935  0.2124
 2942TIP3    H130241   5.561   3.750   3.025 -1.0419  0.7740  2.7516
 2942TIP3    H230242   5.598   3.895   3.048  0.2291  0.4690  2.6894
 2943TIP3   OH230243   2.566   4.879   5.767  0.0861 -0.1780  0.8970
 2943TIP3    H130244   2.521   4.898   5.849 -0.5349  0.1434  0.4960
 2943TIP3    H230245   2.617   4.800   5.785 -0.0347 -0.1080  1.5887
 2944TIP3   OH230246   6.181   5.386   4.516  0.5733 -0.3032  0.3056
 2944TIP3    H130247   6.196   5.342   4.600  0.7604 -0.5154  0.1626
 2944TIP3    H230248   6.264   5.429   4.497 -0.3559  2.4047  1.7543
 2945TIP3   OH230249   5.716   6.797   3.890  0.2041  0.4701 -0.0647
 2945TIP3    H130250   5.726   6.892   3.901 -0.9198  0.6413 -0.4307
 2945TIP3    H230251   5.640   6.788   3.832 -0.6360 -0.7003  1.1822
 2946TIP3   OH230252   1.293   4.977   5.323 -0.4060 -0.7324 -0.0175
 2946TIP3    H130253   1.333   4.958   5.408 -1.1481 -2.8228 -0.0770
 2946TIP3    H230254   1.365   5.013   5.271  0.4146 -0.7585  1.0582
 2947TIP3   OH230255   6.375   0.273   5.176 -0.1810 -0.3162  0.0225
 2947TIP3    H130256   6.332   0.357   5.158 -2.4365 -1.5993 -1.0862
 2947TIP3    H230257   6.323   0.233   5.246  0.2403 -1.2030 -0.1505
 2948TIP3   OH230258   3.453   6.385  12.316 -0.2371 -0.7647 -0.1149
 2948TIP3    H130259   3.510   6.441  12.263  0.1179 -2.4857 -1.6619
 2948TIP3    H230260   3.513   6.332  12.368 -0.4844 -1.0806 -0.1450
 2949TIP3   OH230261   5.662   4.826   4.556  0.7415  0.0608 -0.0962
 2949TIP3    H130262   5.578   4.784   4.574  1.6747 -0.4989  3.8898
 2949TIP3    H230263   5.652   4.865   4.470 -3.7604  0.4391  0.3936
 2950TIP3   OH230264   0.532   1.434  11.434 -0.2142  0.3624  0.2943
 2950TIP3    H130265   0.521   1.361  11.494  0.9057 -0.2111 -0.1686
 2950TIP3    H230266   0.475   1.503  11.469 -1.4388 -0.7845  0.6110
 2951TIP3   OH230267   1.542   4.467   3.948 -0.1020  0.0548 -0.1610
 2951TIP3    H130268   1.460   4.420   3.936 -0.3326  0.5801 -0.7545
 2951TIP3    H230269   1.515   4.555   3.976  0.2465  0.2649 -0.4754
 2952TIP3   OH230270   0.107   5.793   2.096 -0.3824  0.5532 -0.7269
 2952TIP3    H130271   0.138   5.833   2.176  0.3097 -0.5944 -0.3955
 2952TIP3    H230272   0.173   5.816   2.030 -0.2635  0.3957 -0.6620
 2953TIP3   OH230273   1.179   4.004  15.053  0.1020  0.1395  0.0909
 2953TIP3    H130274   1.205   4.092  15.079 -0.6683  0.3652  0.1297
 2953TIP3    H230275   1.158   3.960  15.136 -2.2304  0.8197 -0.0425
 2954TIP3   OH230276   2.290   3.001  15.986  0.0094 -0.1233 -0.1694
 2954TIP3    H130277   2.214   2.991  15.929  0.1417 -1.0863 -0.2028
 2954TIP3    H230278   2.315   3.093  15.978  0.0082 -0.2244 -1.6418
 2955TIP3   OH230279   4.658   1.768  12.838 -0.1026  0.1181  0.1179
 2955TIP3    H130280   4.687   1.761  12.747  0.7757 -0.1697  0.4065
 2955TIP3    H230281   4.617   1.854  12.844 -1.2976 -0.3365 -0.8455
 2956TIP3   OH230282   3.387   1.139  15.155 -0.3746  0.8094 -0.5298
 2956TIP3    H130283   3.436   1.081  15.215 -0.0706 -0.9820 -2.4129
 2956TIP3    H230284   3.299   1.142  15.191 -0.1808 -0.1656  0.0562
 2957TIP3   OH230285   3.048   1.962   2.697 -0.5224  0.3356 -0.2797
 2957TIP3    H130286   2.969   2.005   2.665 -0.0712  0.5479 -1.1340
 2957TIP3    H230287   3.118   2.024   2.680  0.3500 -1.2098 -2.7836
 2958TIP3   OH230288   3.927   1.748   2.880 -0.0822 -0.4358  0.1044
 2958TIP3    H130289   4.017   1.782   2.886 -0.2062 -0.1738  0.4621
 2958TIP3    H230290   3.879   1.795   2.948 -0.1771 -1.5713  0.8428
 2959TIP3   OH230291   4.163   4.934  16.125 -0.8725  0.5557  0.0970
 2959TIP3    H130292   4.185   4.998  16.193 -0.7094 -1.0491  1.6417
 2959TIP3    H230293   4.239   4.934  16.066  0.2817 -0.0113  1.5229
 2960TIP3   OH230294   5.053   5.102  14.903 -0.2425 -0.4722  0.0934
 2960TIP3    H130295   5.032   5.031  14.843  2.6306 -1.4864  0.1335
 2960TIP3    H230296   5.032   5.182  14.855  1.3573 -1.2654 -2.0416
 2961TIP3   OH230297   5.911   4.720  10.848 -0.2753  0.2210 -0.2706
 2961TIP3    H130298   5.969   4.771  10.791 -0.6935  0.6342 -0.3288
 2961TIP3    H230299   5.968   4.691  10.919  0.5016 -1.1666 -1.4055
 2962TIP3   OH230300   0.035   2.956  15.478 -0.2015  0.1151  0.2893
 2962TIP3    H130301   0.068   2.868  15.497  1.3048  0.6102  0.0815
 2962TIP3    H230302   0.037   3.002  15.562  1.6184  0.7490 -0.0512
 2963TIP3   OH230303   4.341   3.032  14.492  0.1028 -0.0179 -0.1202
 2963TIP3    H130304   4.372   2.953  14.537  0.0661 -1.1260 -1.9441
 2963TIP3    H230305   4.391   3.103  14.531 -1.2611 -0.5712  3.0160
 2964TIP3   OH230306   0.839   5.985   0.799  0.2704  0.3777  0.3347
 2964TIP3    H130307   0.813   5.929   0.872  0.2508 -0.2735 -0.1619
 2964TIP3    H230308   0.757   6.005   0.754  0.5102 -1.1441 -0.8531
 2965TIP3   OH230309   0.196   2.577   3.111 -0.3151  0.1948  0.8086
 2965TIP3    H130310   0.255   2.539   3.176  0.5073  1.9443  1.1437
 2965TIP3    H230311   0.118   2.522   3.114  0.6780 -1.2189  1.5005
 2966TIP3   OH230312   1.510   4.466   4.395 -0.6464 -0.1940  0.2804
 2966TIP3    H130313   1.593   4.513   4.407 -0.8840  0.0534  1.0355
 2966TIP3    H230314   1.457   4.493   4.470 -1.6709  0.1867 -0.5677
 2967TIP3   OH230315   3.220   3.756  12.694  0.2698 -0.0294 -0.1010
 2967TIP3    H130316   3.142   3.810  12.692 -0.1925 -0.7011 -1.2824
 2967TIP3    H230317   3.289   3.814  12.728 -0.6823  0.6133  0.7920
 2968TIP3   OH230318   5.740   4.484  14.560  0.2919 -0.4324  0.6780
 2968TIP3    H130319   5.796   4.472  14.636  0.4559 -0.5960  0.5331
 2968TIP3    H230320   5.786   4.549  14.507 -0.6210  0.9148  1.4874
 2969TIP3   OH230321   3.465   0.906  13.713 -0.0407 -0.1437 -0.2447
 2969TIP3    H130322   3.463   0.957  13.794  2.9875 -0.7258  0.3288
 2969TIP3    H230323   3.421   0.961  13.648  0.1006  1.6699  1.1222
 2970TIP3   OH230324   0.586   3.942  14.605  0.4581 -0.9026  0.2626
 2970TIP3    H130325   0.571   4.037  14.611  0.1188 -0.7510 -2.0978
 2970TIP3    H230326   0.504   3.907  14.572  1.2968 -1.6978 -1.0606
 2971TIP3   OH230327   6.374   2.346  10.072 -0.0713  0.5865  0.5699
 2971TIP3    H130328   6.454   2.346  10.018 -0.1444 -1.8442  0.3349
 2971TIP3    H230329   6.405   2.361  10.161  0.7085 -0.5245  0.5057
 2972TIP3   OH230330   1.681   2.175   3.590  0.1943  0.5180 -0.4787
 2972TIP3    H130331   1.697   2.183   3.684  0.1261  0.2856 -0.4466
 2972TIP3    H230332   1.595   2.132   3.584  1.3692 -1.9744 -0.6281
 2973TIP3   OH230333   2.034   4.092  12.085 -0.5186 -0.3254  0.5836
 2973TIP3    H130334   2.106   4.131  12.134 -0.7220  0.0527  0.5860
 2973TIP3    H230335   2.038   3.999  12.107 -0.9883 -0.0762  1.8139
 2974TIP3   OH230336   4.834   0.298  14.434 -0.4286  0.2199 -0.2937
 2974TIP3    H130337   4.913   0.318  14.385 -0.8121 -0.5226 -1.2479
 2974TIP3    H230338   4.808   0.211  14.403 -1.6415  0.4668 -0.0339
 2975TIP3   OH230339   1.461   5.392   1.074 -0.5232  0.2214 -0.0162
 2975TIP3    H130340   1.510   5.312   1.055 -2.3732 -0.8423 -0.5223
 2975TIP3    H230341   1.498   5.423   1.157  0.2244 -1.1581  0.1990
 2976TIP3   OH230342   1.046   6.461   1.734 -0.3152  0.0036  0.2105
 2976TIP3    H130343   0.991   6.492   1.806  0.4111  2.1632 -0.0774
 2976TIP3    H230344   1.118   6.524   1.730  1.6115 -2.0937 -0.1469
 2977TIP3   OH230345   4.805   3.664   3.033 -0.3892 -0.2207  0.1980
 2977TIP3    H130346   4.747   3.686   3.106 -0.3465  1.2199 -0.1716
 2977TIP3    H230347   4.859   3.593   3.066  0.3105  1.0521  1.9550
 2978TIP3   OH230348   0.564   3.387  15.470 -0.5704  0.3806  0.5651
 2978TIP3    H130349   0.585   3.421  15.557  1.3762  1.4320 -0.2426
 2978TIP3    H230350   0.519   3.305  15.487  1.0066 -0.1704  2.5972
 2979TIP3   OH230351   3.549   3.263  16.866  0.2108 -0.4698 -0.3973
 2979TIP3    H130352   3.639   3.247  16.893 -0.8876 -0.7772  3.6552
 2979TIP3    H230353   3.511   3.176  16.855  0.5624 -0.3801 -3.4274
 2980TIP3   OH230354   0.116   6.538   4.775 -0.1011  0.3238 -0.4180
 2980TIP3    H130355   0.177   6.536   4.701 -0.2126  2.9293 -0.6780
 2980TIP3    H230356   0.037   6.494   4.743  1.0109 -1.6089 -0.6315
 2981TIP3   OH230357   5.899   5.960   6.666 -0.0707  0.5309 -0.6900
 2981TIP3    H130358   5.859   5.922   6.588 -0.3418  0.7520 -0.6580
 2981TIP3    H230359   5.981   5.998   6.635 -0.5188  1.2636 -1.0098
 2982TIP3   OH230360   6.723   6.615   5.608 -0.3448  0.4382 -0.2500
 2982TIP3    H130361   6.650   6.664   5.645 -0.1294  2.1968 -2.0355
 2982TIP3    H230362   6.683   6.535   5.573 -0.9655  0.1269  1.0983
 2983TIP3   OH230363   4.172   4.928  15.583  0.2271 -0.4474 -0.5747
 2983TIP3    H130364   4.253   4.964  15.617 -1.3291  2.5035  0.3804
 2983TIP3    H230365   4.159   4.847  15.631  1.3461  0.3204  1.1007
 2984TIP3   OH230366   5.229   5.453   2.415 -0.3032  0.3106  0.9490
 2984TIP3    H130367   5.142   5.423   2.389 -0.7510  0.6413  2.0024
 2984TIP3    H230368   5.252   5.398   2.489  0.8011 -0.3885  0.1212
 2985TIP3   OH230369   2.345   6.726  14.571 -0.1622 -0.3197  0.3352
 2985TIP3    H130370   2.319   6.644  14.528 -0.9982  0.5405 -0.8600
 2985TIP3    H230371   2.433   6.743  14.539  0.7136 -1.5885  1.9104
 2986TIP3   OH230372   1.004   2.817  11.493 -0.0578  0.5193 -0.5012
 2986TIP3    H130373   1.088   2.849  11.525  0.3745  0.1761 -1.2571
 2986TIP3    H230374   0.942   2.886  11.514  0.3687  0.6829  0.2578
 2987TIP3   OH230375   6.459   4.801   4.043  0.3003  0.1789 -0.0931
 2987TIP3    H130376   6.478   4.782   4.135  1.5001  2.1971  0.1607
 2987TIP3    H230377   6.374   4.761   4.027  0.1919 -0.4838  1.8107
 2988TIP3   OH230378   0.207   6.692  13.853 -0.7412 -0.1849  0.2682
 2988TIP3    H130379   0.223   6.630  13.925  0.4482 -1.1973 -0.8081
 2988TIP3    H230380   0.119   6.725  13.869 -0.8155 -0.9917  1.7432
 2989TIP3   OH230381   3.797   6.701   0.275 -0.1084  0.2227 -0.1348
 2989TIP3    H130382   3.721   6.657   0.237  0.6185 -2.0424  0.8431
 2989TIP3    H230383   3.785   6.694   0.369  1.4577 -0.5281  0.0494
 2990TIP3   OH230384   5.155   5.451   1.263  0.3080  0.7040  0.2170
 2990TIP3    H130385   5.162   5.509   1.339 -0.1825  1.1420 -0.0659
 2990TIP3    H230386   5.102   5.378   1.294  0.4634  0.6776  0.4200
 2991TIP3   OH230387   0.505   3.897   0.314 -0.7902  0.3035 -1.0223
 2991TIP3    H130388   0.420   3.859   0.294 -1.7621  0.8330  1.6438
 2991TIP3    H230389   0.487   3.990   0.329 -0.4812 -0.0539  2.6030
 2992TIP3   OH230390   1.545   4.965   3.043  0.8560  0.2710 -0.2983
 2992TIP3    H130391   1.468   4.938   3.094  1.0473 -1.1001 -0.6965
 2992TIP3    H230392   1.510   4.985   2.957  0.8467  0.3488 -0.2766
 2993TIP3   OH230393   1.988   3.065   3.894  0.4070  0.3023 -0.1076
 2993TIP3    H130394   2.076   3.028   3.884 -0.4800 -1.7248 -0.9361
 2993TIP3    H230395   1.959   3.034   3.980  0.5414  1.1386  0.2538
 2994TIP3   OH230396   4.367   4.264   4.906 -0.4649  0.3107 -0.6900
 2994TIP3    H130397   4.381   4.205   4.832  1.1478  0.3856 -0.4853
 2994TIP3    H230398   4.399   4.349   4.876  1.5436  0.0423  0.4948
 2995TIP3   OH230399   3.176   2.190   2.660  0.5439  0.1684 -0.2777
 2995TIP3    H130400   3.168   2.225   2.749 -0.1405  0.3659 -0.4130
 2995TIP3    H230401   3.113   2.240   2.609 -0.4597 -1.2410 -0.4782
 2996TIP3   OH230402   2.269   2.482   4.861  0.6161  0.2531 -0.3558
 2996TIP3    H130403   2.238   2.520   4.944  1.5114  0.8125 -0.2590
 2996TIP3    H230404   2.189   2.464   4.812  0.1142  1.1140  0.1147
 2997TIP3   OH230405   3.310   4.554   1.591 -0.4167 -0.0765 -0.1896
 2997TIP3    H130406   3.255   4.491   1.545 -0.0319 -0.6464  0.1156
 2997TIP3    H230407   3.248   4.614   1.633 -0.8005 -0.6097  0.0175
 2998TIP3   OH230408   2.552   3.719  13.164  0.3713  0.2123 -0.4680
 2998TIP3    H130409   2.518   3.726  13.253  0.0131  1.5568 -0.6825
 2998TIP3    H230410   2.506   3.788  13.116  1.3907  0.2560 -1.4185
 2999TIP3   OH230411   4.748   0.960   2.204 -0.3343 -1.1459  0.0879
 2999TIP3    H130412   4.673   0.994   2.157 -0.4894  0.8982  1.6563
 2999TIP3    H230413   4.723   0.965   2.297  1.8241  0.0225  0.6932
 3000TIP3   OH230414   4.758   1.506   1.834 -0.3045  0.0542 -0.1584
 3000TIP3    H130415   4.720   1.493   1.747 -2.0792 -1.4802  0.7569
 3000TIP3    H230416   4.706   1.577   1.872  0.4276  0.6794 -0.2977
 3001TIP3   OH230417   1.449   4.112  11.433  0.2271  0.4150 -0.0687
 3001TIP3    H130418   1.408   4.026  11.425 -0.1759  0.7317 -1.7710
 3001TIP3    H230419   1.526   4.108  11.377  0.6347  0.9132  0.4524
 3002TIP3   OH230420   1.076   3.877  12.978  0.9757  0.3489 -0.7518
 3002TIP3    H130421   1.076   3.784  13.000  1.2175  0.3292 -0.8386
 3002TIP3    H230422   1.124   3.919  13.050 -0.4185  0.5935  0.0813
 3003TIP3   OH230423   6.524   2.886  16.387 -0.4478 -0.6640  0.2307
 3003TIP3    H130424   6.559   2.890  16.476 -1.0726 -0.4865  0.4741
 3003TIP3    H230425   6.457   2.955  16.385 -0.4454 -0.6781 -0.3724
 3004TIP3   OH230426   0.818   0.307   3.350  0.0262  0.2123 -0.2445
 3004TIP3    H130427   0.724   0.314   3.331  0.1702  0.4200 -0.8870
 3004TIP3    H230428   0.854   0.260   3.275  0.8301  2.2666 -1.2224
 3005TIP3   OH230429   6.809   1.809   0.017 -0.1588 -0.7081 -0.6786
 3005TIP3    H130430   6.832   1.774  -0.069  2.3380 -1.0105  0.0484
 3005TIP3    H230431   6.795   1.732   0.072  0.7764 -0.5473 -0.2049
 3006TIP3   OH230432   1.747   2.164   1.840  0.2825  0.4250 -0.3468
 3006TIP3    H130433   1.836   2.196   1.833  0.5680 -0.2439  0.0995
 3006TIP3    H230434   1.728   2.164   1.934  0.2611 -0.5899 -0.3380
 3007TIP3   OH230435   2.651   2.348   3.076  0.3235  0.0182  0.1379
 3007TIP3    H130436   2.708   2.294   3.022 -1.0398  1.5028 -3.0333
 3007TIP3    H230437   2.578   2.291   3.098 -0.3414  0.0427 -1.8420
 3008TIP3   OH230438   2.299   4.453  12.996 -0.2993  0.1040 -0.7304
 3008TIP3    H130439   2.308   4.525  13.058 -0.5862  0.1623 -0.7571
 3008TIP3    H230440   2.352   4.479  12.920 -0.5773  0.3859 -0.8301
 3009TIP3   OH230441   4.841   1.446  10.770 -0.1786  0.3238  0.5814
 3009TIP3    H130442   4.925   1.401  10.778 -0.3783 -0.1969 -0.1423
 3009TIP3    H230443   4.797   1.402  10.697 -0.5324  1.4533  0.0809
 3010TIP3   OH230444   4.959   1.854   5.271 -0.3441  0.2042 -0.3613
 3010TIP3    H130445   4.876   1.849   5.318 -0.9216 -0.5549 -1.4105
 3010TIP3    H230446   4.956   1.938   5.225  0.5873  1.3358  1.5607
 3011TIP3   OH230447   5.149   3.825  13.056  0.3652 -0.2585  0.8148
 3011TIP3    H130448   5.191   3.768  12.992  1.0367  0.2995  0.7499
 3011TIP3    H230449   5.173   3.914  13.028 -0.6700  0.0641  0.9041
 3012TIP3   OH230450   3.309   2.050   5.033 -0.4857 -0.0743 -0.0414
 3012TIP3    H130451   3.385   1.999   5.007 -0.4295  0.7981 -1.7399
 3012TIP3    H230452   3.345   2.129   5.072 -0.5353  0.0247 -0.1973
 3013TIP3   OH230453   0.817   2.088  11.061  0.1907  0.3693 -0.2866
 3013TIP3    H130454   0.842   2.011  11.112  0.4694  1.5877  1.4778
 3013TIP3    H230455   0.753   2.055  10.998  0.9617 -1.4615 -0.1782
 3014TIP3   OH230456   3.786   2.342  15.098  1.0899 -0.4506  0.2603
 3014TIP3    H130457   3.704   2.370  15.140  0.0836  0.2254 -1.9748
 3014TIP3    H230458   3.795   2.249  15.122 -0.8018 -0.7691 -0.1004
 3015TIP3   OH230459   5.004   6.428  12.441  0.0560  0.2172  0.0205
 3015TIP3    H130460   4.923   6.457  12.401 -0.3152  1.3013  1.4851
 3015TIP3    H230461   5.009   6.475  12.524  2.2886  0.3627 -0.1175
 3016TIP3   OH230462   1.319   0.832  15.163 -0.0168 -0.1487  0.0645
 3016TIP3    H130463   1.391   0.806  15.220  0.4478 -0.8994 -0.8352
 3016TIP3    H230464   1.361   0.857  15.081 -0.6703  0.9452  0.0389
 3017TIP3   OH230465   0.406   0.736  10.456  0.0858  0.2691 -0.2711
 3017TIP3    H130466   0.492   0.767  10.485  0.4816 -0.7511 -0.3151
 3017TIP3    H230467   0.344   0.789  10.505  0.6929  2.8076 -2.0951
 3018TIP3   OH230468   4.442   6.809  15.065 -0.0705 -0.3501  0.6219
 3018TIP3    H130469   4.526   6.772  15.093 -0.7744 -1.1187  1.8120
 3018TIP3    H230470   4.408   6.852  15.144 -0.1310  1.2798 -0.2386
 3019TIP3   OH230471   0.062   6.691   0.646  0.3280  0.3399 -0.6394
 3019TIP3    H130472   0.132   6.717   0.706  0.0661  0.6230 -0.4580
 3019TIP3    H230473   0.061   6.595   0.651 -0.4583  0.3895  0.6953
 3020TIP3   OH230474   2.482   5.248  11.721  0.9976  0.2670  0.0956
 3020TIP3    H130475   2.515   5.232  11.810  1.9856 -0.5083 -0.3948
 3020TIP3    H230476   2.555   5.224  11.664  0.2168  0.3336 -0.9549
 3021TIP3   OH230477   6.791   0.261   2.795 -0.0634  0.6527  0.4314
 3021TIP3    H130478   6.866   0.201   2.793 -1.5428 -1.2848  0.1001
 3021TIP3    H230479   6.806   0.314   2.873  1.5686  0.2118  0.4581
 3022TIP3   OH230480   4.915   4.930   0.650  0.7740 -0.4114  0.3642
 3022TIP3    H130481   4.947   4.974   0.729  0.5947 -0.4817  0.4768
 3022TIP3    H230482   4.919   4.997   0.582  0.9229 -0.3481  0.4358
 3023TIP3   OH230483   2.971   6.085   4.445 -0.1369 -0.0726 -0.1268
 3023TIP3    H130484   2.920   6.160   4.416 -0.2723 -0.2331 -0.3055
 3023TIP3    H230485   3.017   6.116   4.523 -1.9153 -0.4723  1.1388
 3024TIP3   OH230486   3.333   0.190  10.694  0.7969  0.3450  0.6880
 3024TIP3    H130487   3.266   0.257  10.685 -0.4567 -0.6271  2.1137
 3024TIP3    H230488   3.345   0.156  10.605 -0.9398  0.2674  0.4378
 3025TIP3   OH230489   5.545   5.578  11.016  0.3980  0.8880  0.1540
 3025TIP3    H130490   5.562   5.567  10.922 -2.4676 -0.4111 -0.3236
 3025TIP3    H230491   5.598   5.511  11.059 -0.4580 -0.4727 -0.8424
 3026TIP3   OH230492   1.425   3.685  16.319 -0.2164 -0.4698  0.7301
 3026TIP3    H130493   1.507   3.713  16.278 -0.9723 -0.0860 -0.6085
 3026TIP3    H230494   1.450   3.614  16.377  0.6872 -3.0994 -2.5427
 3027TIP3   OH230495   5.777   5.081   6.129 -0.2710  0.4051 -0.2989
 3027TIP3    H130496   5.841   5.087   6.058 -0.8271  1.8855 -0.7088
 3027TIP3    H230497   5.734   5.166   6.130 -2.5763 -0.6743 -0.3415
 3028TIP3   OH230498   6.576   5.534  15.241 -0.0430  0.0573 -0.0567
 3028TIP3    H130499   6.486   5.514  15.267  0.3377  0.3449  1.5975
 3028TIP3    H230500   6.628   5.513  15.318  1.1685  1.1168 -0.5482
 3029TIP3   OH230501   3.011   5.753  11.326 -0.0082  0.2754 -0.4707
 3029TIP3    H130502   2.986   5.845  11.331 -1.3839 -0.1040  0.1314
 3029TIP3    H230503   2.961   5.711  11.395  0.3006 -0.9884 -0.9901
 3030TIP3   OH230504   4.831   3.416  14.919 -0.9629  0.2215  0.8061
 3030TIP3    H130505   4.879   3.398  15.000 -0.3559  0.3010  0.4690
 3030TIP3    H230506   4.783   3.497  14.936  0.5661  1.2272  0.4912
 3031TIP3   OH230507   1.041   0.054   5.410 -0.1594 -0.1235  0.0602
 3031TIP3    H130508   0.974   0.069   5.343 -1.8164 -1.0608  1.4432
 3031TIP3    H230509   0.992   0.036   5.490  1.7485 -1.3620  1.0241
 3032TIP3   OH230510   3.770   4.594  10.575 -0.1957 -0.0005  0.0571
 3032TIP3    H130511   3.817   4.623  10.497 -0.3881  0.1507 -0.0043
 3032TIP3    H230512   3.714   4.668  10.598 -1.0467 -0.4959 -0.3805
 3033TIP3   OH230513   1.102   4.718   0.835 -0.1374  0.5944 -0.2373
 3033TIP3    H130514   1.085   4.638   0.885 -1.4784  0.9348 -0.1264
 3033TIP3    H230515   1.181   4.697   0.784  0.9109  0.0416  1.5297
 3034TIP3   OH230516   2.187   3.365   0.921 -0.1419  0.0866  0.2064
 3034TIP3    H130517   2.247   3.302   0.960  1.0066  0.5596 -0.7430
 3034TIP3    H230518   2.243   3.422   0.868 -0.7865  3.2211  2.6094
 3035TIP3   OH230519   4.587   4.162   3.023  0.4392  0.1932  0.4968
 3035TIP3    H130520   4.552   4.210   2.948  0.3985 -0.7883 -0.1298
 3035TIP3    H230521   4.676   4.196   3.035  1.1360 -0.9148 -1.1743
 3036TIP3   OH230522   4.907   6.180   2.707 -0.1687 -0.2603 -0.1128
 3036TIP3    H130523   4.945   6.266   2.691 -4.1807  2.3804  2.4853
 3036TIP3    H230524   4.846   6.167   2.634  1.0879 -1.4193 -0.9862
 3037TIP3   OH230525   3.669   6.129  15.420 -0.2073 -0.4465  0.0109
 3037TIP3    H130526   3.740   6.146  15.482  1.3260 -0.2735 -1.7193
 3037TIP3    H230527   3.710   6.078  15.350 -0.9567  2.2844 -2.6290
 3038TIP3   OH230528   3.483   3.035  13.684 -0.9963  0.5221  0.3939
 3038TIP3    H130529   3.501   2.942  13.671  1.8702  1.0772 -0.4799
 3038TIP3    H230530   3.478   3.045  13.779 -4.5115 -0.8970  0.4986
 3039TIP3   OH230531   5.654   0.151   2.737 -0.0214 -0.6459  0.2460
 3039TIP3    H130532   5.687   0.135   2.826 -0.1702 -2.2608  0.0408
 3039TIP3    H230533   5.686   0.077   2.686 -0.0615  0.1913 -1.0271
 3040TIP3   OH230534   5.463   6.547  14.171 -0.3128 -0.4808 -0.2416
 3040TIP3    H130535   5.402   6.618  14.187  0.7443 -0.0758  2.4429
 3040TIP3    H230536   5.408   6.475  14.139 -1.5837  1.0523 -1.6563
 3041TIP3   OH230537   5.780   1.624  13.712 -0.3084  0.1882  0.1637
 3041TIP3    H130538   5.746   1.553  13.658 -2.0783  1.1914 -0.0958
 3041TIP3    H230539   5.712   1.639  13.778  1.0553  0.1309  1.6375
 3042TIP3   OH230540   0.368   5.091  12.939 -0.0447  0.2537  0.1763
 3042TIP3    H130541   0.303   5.075  12.871  0.3439 -1.3294  0.1468
 3042TIP3    H230542   0.379   5.007  12.983  2.4371  0.2855 -0.2221
 3043TIP3   OH230543   6.256   3.800   2.147 -0.2280 -0.2002  1.1222
 3043TIP3    H130544   6.302   3.768   2.225 -1.8299 -3.2694  0.9245
 3043TIP3    H230545   6.198   3.869   2.181 -0.4786 -1.0846  2.5726
 3044TIP3   OH230546   6.627   6.154  16.171 -0.0255  0.4812  0.5568
 3044TIP3    H130547   6.660   6.233  16.214 -1.5177  1.6163 -0.2829
 3044TIP3    H230548   6.679   6.147  16.091  0.4852  0.2986  0.9053
 3045TIP3   OH230549   3.943   1.306   2.391 -0.2202  0.2874 -0.8274
 3045TIP3    H130550   3.907   1.379   2.341 -0.5808 -0.0234 -1.0329
 3045TIP3    H230551   4.028   1.288   2.351 -0.7347 -0.3039 -1.6959
 3046TIP3   OH230552   1.025   1.926  12.629 -0.6627 -0.2267 -0.2019
 3046TIP3    H130553   1.047   1.835  12.649 -1.8078 -0.3981  0.4229
 3046TIP3    H230554   1.052   1.975  12.707  0.7068  0.1141 -0.8678
 3047TIP3   OH230555   3.952   1.839  15.235 -0.3103  0.0637  0.3466
 3047TIP3    H130556   3.965   1.856  15.142 -0.0310  0.5027  0.4637
 3047TIP3    H230557   3.978   1.748  15.247  0.2793  0.1963  0.1095
 3048TIP3   OH230558   6.200   1.220  15.435 -0.0745  0.2741  0.3555
 3048TIP3    H130559   6.282   1.184  15.467 -1.2051 -1.1839  1.7479
 3048TIP3    H230560   6.196   1.193  15.343  1.0308  0.4574  0.2397
 3049TIP3   OH230561   6.083   3.098   4.465  0.2474  0.3474 -0.4964
 3049TIP3    H130562   6.060   3.102   4.558 -0.3872 -0.5933 -0.6038
 3049TIP3    H230563   6.000   3.081   4.420  0.5516  0.7912 -1.2411
 3050TIP3   OH230564   5.291   0.174  12.788  0.1806 -0.1014  0.4855
 3050TIP3    H130565   5.268   0.222  12.867 -0.1032 -1.4770  1.2761
 3050TIP3    H230566   5.305   0.084  12.818 -0.8377 -0.8563 -1.1585
 3051TIP3   OH230567   5.827   5.915  11.273  0.2728  0.0448  0.4041
 3051TIP3    H130568   5.783   5.983  11.324 -1.1908 -1.5955  1.4312
 3051TIP3    H230569   5.918   5.946  11.266 -0.5784  2.6776 -0.2630
 3052TIP3   OH230570   4.376   0.277   6.107  0.3840 -0.3006 -0.0232
 3052TIP3    H130571   4.341   0.336   6.041 -0.0626  1.1712  1.4652
 3052TIP3    H230572   4.301   0.257   6.163  0.9847 -0.6048  0.6845
 3053TIP3   OH230573   0.821   2.971   5.592  0.3424  0.5660 -0.2497
 3053TIP3    H130574   0.800   2.997   5.682  1.1844  0.0961  0.0937
 3053TIP3    H230575   0.737   2.973   5.547 -0.2634 -0.1170  0.7914
 3054TIP3   OH230576   3.500   3.630   4.630  0.0862 -0.3511  0.1611
 3054TIP3    H130577   3.477   3.711   4.585 -1.7797 -0.8092  0.2085
 3054TIP3    H230578   3.466   3.641   4.719 -1.4313 -1.6700 -0.2049
 3055TIP3   OH230579   5.876   4.221   4.415 -0.2355  0.0356 -0.2019
 3055TIP3    H130580   5.841   4.220   4.326 -1.9576  0.7697  0.4233
 3055TIP3    H230581   5.866   4.312   4.444 -2.2719 -0.6747  1.6529
 3056TIP3   OH230582   0.813   2.946   5.231  0.4251  0.4470 -0.2302
 3056TIP3    H130583   0.894   2.922   5.276 -0.2506  0.2512  0.9269
 3056TIP3    H230584   0.797   2.873   5.171  2.1900  1.4556 -2.0523
 3057TIP3   OH230585   2.827   3.870  14.625 -0.7420 -0.4449  0.1343
 3057TIP3    H130586   2.756   3.921  14.664  0.2273  0.8670  0.2378
 3057TIP3    H230587   2.784   3.791  14.592 -1.9225 -0.6013  1.9216
 3058TIP3   OH230588   3.913   0.370  15.184  0.2179 -0.1835  0.5850
 3058TIP3    H130589   3.956   0.398  15.103 -0.6248  0.0475  0.2090
 3058TIP3    H230590   3.830   0.331  15.156  0.7313 -1.8295  1.2012
 3059TIP3   OH230591   5.654   6.493   1.061 -0.4722 -0.3268  0.4311
 3059TIP3    H130592   5.604   6.515   0.982 -0.4336 -1.2146  0.1523
 3059TIP3    H230593   5.744   6.487   1.031 -0.5478 -1.3777  0.3878
 3060TIP3   OH230594   4.884   5.215   2.773 -0.2503 -0.2373  0.0331
 3060TIP3    H130595   4.910   5.131   2.735  0.1489 -0.4948  0.8413
 3060TIP3    H230596   4.879   5.198   2.867 -1.1168  0.4075  0.1097
 3061TIP3   OH230597   3.823   6.440  10.349 -0.2121  0.0223  0.0115
 3061TIP3    H130598   3.895   6.500  10.325  0.1511  0.0385  1.0714
 3061TIP3    H230599   3.826   6.372  10.283  0.1573  0.5444 -0.5235
 3062TIP3   OH230600   6.214   3.460  11.500 -0.0109  0.3148  0.3926
 3062TIP3    H130601   6.238   3.401  11.571  1.2253 -0.0289 -0.2966
 3062TIP3    H230602   6.196   3.544  11.544  1.4245  0.2996  1.0566
 3063TIP3   OH230603   5.752   5.664   2.973  0.8770 -0.0136 -0.4970
 3063TIP3    H130604   5.694   5.739   2.988  0.5079 -0.4373  0.2708
 3063TIP3    H230605   5.750   5.650   2.878  0.5948  0.6678 -0.5911
 3064TIP3   OH230606   3.198   4.117  15.933 -0.6961  0.7494  0.0496
 3064TIP3    H130607   3.229   4.057  16.002  1.2656  0.2619 -1.1653
 3064TIP3    H230608   3.103   4.117  15.942 -0.6207 -0.9627  1.4124
 3065TIP3   OH230609   6.600   3.244  16.715 -0.6778  0.1513 -0.4808
 3065TIP3    H130610   6.643   3.236  16.629  2.1218  1.6337  0.6263
 3065TIP3    H230611   6.622   3.163  16.760 -1.0328 -0.0755 -0.7118
 3066TIP3   OH230612   5.512   4.241   4.064  0.4376 -0.2122 -0.4187
 3066TIP3    H130613   5.456   4.188   4.007  1.8745 -1.9653 -0.2968
 3066TIP3    H230614   5.528   4.321   4.015 -1.6290  0.0708 -0.7129
 3067TIP3   OH230615   5.062   4.338   0.539 -0.6992 -0.3231 -0.0334
 3067TIP3    H130616   5.008   4.370   0.466 -0.3442 -0.9019 -0.5627
 3067TIP3    H230617   5.147   4.320   0.500 -0.3030 -0.0039  0.6700
 3068TIP3   OH230618   5.316   6.732  14.469  0.1081 -0.3017 -0.3859
 3068TIP3    H130619   5.396   6.769  14.506  0.1793 -0.5575 -0.2823
 3068TIP3    H230620   5.334   6.727  14.375  0.5977 -1.2861 -0.2468
 3069TIP3   OH230621   6.026   1.237   0.883  0.0868  0.0304  0.2537
 3069TIP3    H130622   6.053   1.325   0.856 -0.3078  0.2293  0.5025
 3069TIP3    H230623   6.087   1.214   0.953  0.1511  0.1321  0.2324
 3070TIP3   OH230624   2.743   0.916   2.680 -0.6087  0.4091  0.4469
 3070TIP3    H130625   2.681   0.860   2.727 -1.5337 -1.0301 -2.2274
 3070TIP3    H230626   2.695   0.997   2.666 -0.7085  0.4649  1.0771
 3071TIP3   OH230627   3.826   4.704   3.030  0.0467  0.5320  0.1306
 3071TIP3    H130628   3.902   4.726   3.085 -0.8865  1.8404  0.9656
 3071TIP3    H230629   3.814   4.782   2.975 -0.0735 -0.0916 -0.7337
 3072TIP3   OH230630   6.319   6.502  10.601  0.0279 -0.0971 -0.4943
 3072TIP3    H130631   6.245   6.466  10.649  0.3940 -2.5831 -1.5905
 3072TIP3    H230632   6.383   6.526  10.668 -0.7158 -0.4927  0.3663
 3073TIP3   OH230633   3.874   5.751   3.808 -0.2461 -0.1116  0.0805
 3073TIP3    H130634   3.848   5.666   3.844  1.8295 -0.4548  0.9264
 3073TIP3    H230635   3.869   5.739   3.713 -2.1627 -0.4169  0.1826
 3074TIP3   OH230636   6.523   0.548   3.574 -0.0068  0.4579  0.3184
 3074TIP3    H130637   6.433   0.574   3.590  0.5124  1.9575  1.0497
 3074TIP3    H230638   6.520   0.453   3.564 -1.1528 -0.2512  4.8874
 3075TIP3   OH230639   2.045   6.365   6.163 -0.5611  0.2339 -0.2432
 3075TIP3    H130640   2.034   6.271   6.177  0.1390  0.1831 -0.0241
 3075TIP3    H230641   2.033   6.404   6.250 -1.9785  0.4663 -0.5156
 3076TIP3   OH230642   3.009   3.594   6.666 -0.5777 -1.0011  0.1152
 3076TIP3    H130643   3.048   3.512   6.694 -0.1994 -0.3509  1.5869
 3076TIP3    H230644   2.927   3.568   6.623 -0.0668 -2.1753 -0.1885
 3077TIP3   OH230645   4.773   4.975   1.495  0.3240 -0.2134 -0.0198
 3077TIP3    H130646   4.825   4.901   1.463  1.3516 -0.1999  1.5179
 3077TIP3    H230647   4.695   4.975   1.439  0.9753 -1.5615 -0.9914
 3078TIP3   OH230648   1.988   5.928  11.135  0.2187 -0.4246 -0.4883
 3078TIP3    H130649   1.919   5.904  11.197 -0.4602  0.2224 -0.9941
 3078TIP3    H230650   1.991   5.854  11.074 -0.2122 -0.3285 -0.6279
 3079TIP3   OH230651   0.431   2.864   4.807 -0.1365 -0.5245  0.2567
 3079TIP3    H130652   0.431   2.788   4.749 -0.0303 -1.2174  1.1505
 3079TIP3    H230653   0.510   2.854   4.860 -0.6651 -0.3426  1.0932
 3080TIP3   OH230654   4.624   6.130  12.837 -0.0873  0.5446  0.4260
 3080TIP3    H130655   4.674   6.085  12.905 -1.3121 -0.0257  0.9930
 3080TIP3    H230656   4.686   6.141  12.765 -0.0251 -3.5033 -0.4174
 3081TIP3   OH230657   2.154   3.210   6.018  0.3354  0.0101  0.2424
 3081TIP3    H130658   2.121   3.163   6.094 -0.8948 -0.4230 -0.5411
 3081TIP3    H230659   2.076   3.235   5.968  1.0513 -3.8263 -3.3405
 3082TIP3   OH230660   0.234   4.619   4.886 -0.0872  0.0951  0.2177
 3082TIP3    H130661   0.280   4.588   4.808 -1.7078 -1.8186 -0.0479
 3082TIP3    H230662   0.233   4.543   4.945  1.6986  1.6577  2.4922
 3083TIP3   OH230663   4.052   4.745   0.012  0.1772  0.6057 -0.1850
 3083TIP3    H130664   3.978   4.778   0.063  0.3793 -0.1426  0.6069
 3083TIP3    H230665   4.017   4.670  -0.035 -0.3179  1.9671 -2.0962
 3084TIP3   OH230666   3.380   6.588   1.056  0.2617  0.6493  0.8074
 3084TIP3    H130667   3.456   6.630   1.097  1.8882 -1.5960  0.3281
 3084TIP3    H230668   3.369   6.634   0.973  1.7797  0.4154  0.4372
 3085TIP3   OH230669   0.895   6.665   0.869  0.1419  0.5731  0.0648
 3085TIP3    H130670   0.936   6.741   0.911  0.5132  0.6530 -0.4334
 3085TIP3    H230671   0.895   6.687   0.776 -2.8644  1.4843  0.1754
 3086TIP3   OH230672   2.439   3.959   5.951 -0.1489 -0.9083  0.6275
 3086TIP3    H130673   2.527   3.922   5.959  0.7339  0.8664 -0.3754
 3086TIP3    H230674   2.410   3.935   5.863 -0.2717 -0.7117  0.6120
 3087TIP3   OH230675   2.115   1.048   0.352  0.1361 -0.4981  0.8194
 3087TIP3    H130676   2.183   1.039   0.286  0.8619  1.6705  1.1820
 3087TIP3    H230677   2.036   1.071   0.302  0.7008  1.2156  0.6398
 3088TIP3   OH230678   0.969   2.876   2.990 -0.3062 -0.0495 -1.0316
 3088TIP3    H130679   1.036   2.821   2.950 -0.0410 -0.0338 -0.6142
 3088TIP3    H230680   0.916   2.906   2.917  0.2349  0.0618 -1.3801
 3089TIP3   OH230681   0.951   2.523  12.058  0.0834  0.4152 -0.2790
 3089TIP3    H130682   0.976   2.431  12.065 -1.2713 -0.0477 -1.2884
 3089TIP3    H230683   1.035   2.570  12.051  0.8081 -0.6591  0.8322
 3090TIP3   OH230684   6.570   6.262  12.925 -0.5398  0.8736  0.1370
 3090TIP3    H130685   6.645   6.256  12.983 -0.7455 -0.6241  0.2967
 3090TIP3    H230686   6.510   6.322  12.969  0.4071  1.8453  0.1533
 3091TIP3   OH230687   1.757   6.618  12.559  0.0589 -0.5072  0.1579
 3091TIP3    H130688   1.833   6.565  12.581  2.8763  3.4519  1.0511
 3091TIP3    H230689   1.774   6.649  12.470 -0.6764  0.1994  0.2503
 3092TIP3   OH230690   3.662   2.632  11.849  0.0171 -0.1421 -0.2329
 3092TIP3    H130691   3.716   2.598  11.920  0.0720  1.7283  0.6947
 3092TIP3    H230692   3.721   2.686  11.797 -0.3120 -0.4421 -0.9264
 3093TIP3   OH230693   4.637   5.312   4.914 -0.3127 -0.4555 -0.2064
 3093TIP3    H130694   4.571   5.269   4.968  1.2101 -1.1900  1.1463
 3093TIP3    H230695   4.609   5.404   4.909 -1.7109 -0.8693 -0.1367
 3094TIP3   OH230696   5.996   0.532   5.876  0.4764  0.0919 -0.4184
 3094TIP3    H130697   5.931   0.534   5.806 -0.2180  1.6403  0.2161
 3094TIP3    H230698   6.029   0.442   5.877 -1.5064 -0.6816 -0.8943
 3095TIP3   OH230699   6.248   0.909   2.494 -0.3145  0.0049  0.1361
 3095TIP3    H130700   6.200   0.909   2.577  1.2186  1.3871  1.0744
 3095TIP3    H230701   6.336   0.882   2.517 -0.2759 -1.3256 -1.3683
 3096TIP3   OH230702   0.847   1.002  11.460 -0.2471 -0.0702  0.0648
 3096TIP3    H130703   0.877   0.980  11.548  2.1186 -1.9993 -1.0894
 3096TIP3    H230704   0.880   1.091  11.445  0.2824 -0.1479  0.7281
 3097TIP3   OH230705   1.907   2.162  13.617 -0.0357 -0.7521 -0.5041
 3097TIP3    H130706   1.981   2.203  13.663 -1.4287  0.5771  0.6339
 3097TIP3    H230707   1.835   2.165  13.679 -2.0710  1.2356 -2.7491
 3098TIP3   OH230708   2.111   2.350  16.606  0.6679  0.1943  0.9736
 3098TIP3    H130709   2.112   2.442  16.578  1.1151 -0.1979 -0.3809
 3098TIP3    H230710   2.121   2.354  16.701  2.0498  1.5199  0.8129
 3099TIP3   OH230711   6.188   6.436   0.843  0.1375  0.1882  1.2135
 3099TIP3    H130712   6.098   6.404   0.851 -0.3697  1.7042  1.9913
 3099TIP3    H230713   6.196   6.503   0.910  2.4157 -1.0726  2.3542
 3100TIP3   OH230714   0.337   0.257   5.146  0.4430 -0.0622  0.6156
 3100TIP3    H130715   0.335   0.164   5.124 -0.7325 -0.1322  0.9613
 3100TIP3    H230716   0.272   0.266   5.216  1.7536  0.7198  1.7836
 3101TIP3   OH230717   2.567   6.633   5.822 -0.5046 -0.3558  0.4271
 3101TIP3    H130718   2.579   6.705   5.883 -1.3255 -1.0085  1.3916
 3101TIP3    H230719   2.617   6.561   5.860 -0.5540 -0.6069  0.0207
 3102TIP3   OH230720   6.247   2.883   0.685  0.2550 -0.3817 -0.0603
 3102TIP3    H130721   6.241   2.977   0.669 -0.8150 -0.4210  0.0313
 3102TIP3    H230722   6.296   2.876   0.767 -1.3710  0.2110  1.0109
 3103TIP3   OH230723   0.073   0.176  15.900  1.0097  0.0069 -0.0382
 3103TIP3    H130724   0.088   0.159  15.807 -1.7977 -0.7407 -0.4504
 3103TIP3    H230725  -0.008   0.129  15.920  2.4340 -1.3620  3.2720
 3104TIP3   OH230726   2.779   5.999   0.102 -0.1705 -0.2013 -0.0938
 3104TIP3    H130727   2.804   5.931   0.164 -0.0146 -0.8345 -0.8336
 3104TIP3    H230728   2.686   6.014   0.119  0.0942  0.3329  0.9379
 3105TIP3   OH230729   6.710   1.432  15.026  0.7205 -0.2365 -0.3205
 3105TIP3    H130730   6.661   1.350  15.029  1.1438 -0.4787  1.8151
 3105TIP3    H230731   6.781   1.415  14.964 -0.7273 -0.5146 -1.9885
 3106TIP3   OH230732   2.176   6.761   1.159  0.1423 -0.1507 -0.0345
 3106TIP3    H130733   2.192   6.842   1.208  0.6783 -0.8813  1.0527
 3106TIP3    H230734   2.250   6.755   1.099 -1.7016  1.9607 -2.7360
 3107TIP3   OH230735   4.302   5.626  11.103 -0.4006  0.0591 -0.0209
 3107TIP3    H130736   4.392   5.651  11.083 -0.0939 -0.5961  0.5016
 3107TIP3    H230737   4.310   5.539  11.142 -1.2989 -0.1770 -0.3489
 3108TIP3   OH230738   3.422   2.580   1.246  0.4889 -0.0349  0.2629
 3108TIP3    H130739   3.423   2.564   1.340 -0.8565  0.7545  0.4288
 3108TIP3    H230740   3.339   2.544   1.216  1.3480 -1.2016 -0.8118
 3109TIP3   OH230741   2.383   3.530  14.054 -0.3666 -0.0069 -0.2949
 3109TIP3    H130742   2.476   3.517  14.072 -0.8321 -0.5067  2.0586
 3109TIP3    H230743   2.375   3.519  13.960  1.8674 -0.4879 -0.4828
 3110TIP3   OH230744   2.306   2.124  13.777 -1.4558 -0.0764  0.6495
 3110TIP3    H130745   2.339   2.174  13.851  2.6859 -0.3536 -0.7492
 3110TIP3    H230746   2.249   2.184  13.730 -1.6540  1.1114  2.3145
 3111TIP3   OH230747   0.287   1.744  12.126 -0.1809  0.1300  0.5268
 3111TIP3    H130748   0.368   1.717  12.083  0.6622  2.0183  0.8289
 3111TIP3    H230749   0.304   1.731  12.219  0.1982  1.5127  0.6677
 3112TIP3   OH230750   3.732   6.373  12.720  0.7068  0.1797 -0.3568
 3112TIP3    H130751   3.655   6.429  12.732  0.3089 -0.9370  3.9373
 3112TIP3    H230752   3.806   6.428  12.746  0.7603 -0.1001  0.1035
 3113TIP3   OH230753   1.202   3.411   1.059  0.2124  0.4544 -0.0301
 3113TIP3    H130754   1.165   3.330   1.093  0.4866  0.3379 -0.0079
 3113TIP3    H230755   1.274   3.431   1.119  1.3965 -0.3189 -1.1495
 3114TIP3   OH230756   5.397   5.600  16.545 -0.2910  0.1648  0.0333
 3114TIP3    H130757   5.339   5.673  16.524 -0.0026 -0.0209 -1.5502
 3114TIP3    H230758   5.442   5.627  16.626 -0.1424  1.7756 -0.5481
 3115TIP3   OH230759   5.396   4.700  13.675  0.4247  0.3384  0.1027
 3115TIP3    H130760   5.448   4.620  13.685  1.0978  0.8175  0.5654
 3115TIP3    H230761   5.313   4.681  13.720 -0.2276 -0.7824 -1.4880
 3116TIP3   OH230762   3.227   6.073  12.309 -0.5603  0.2426  0.4578
 3116TIP3    H130763   3.141   6.035  12.292 -0.2017 -0.9866  1.3057
 3116TIP3    H230764   3.220   6.113  12.396  0.0277 -0.8334  1.0161
 3117TIP3   OH230765   3.834   2.662   1.730 -0.5954 -0.7074 -0.4940
 3117TIP3    H130766   3.743   2.676   1.706  0.0601  0.8676 -2.2913
 3117TIP3    H230767   3.868   2.750   1.749  0.2517 -1.3931  1.4107
 3118TIP3   OH230768   3.396   2.771  12.502 -0.4549 -0.0504  0.3266
 3118TIP3    H130769   3.450   2.797  12.427 -1.5974  1.3569 -0.0726
 3118TIP3    H230770   3.308   2.802  12.479 -0.7613  0.7809  2.3981
 3119TIP3   OH230771   3.142   3.084   0.838  0.0893  0.2384  0.0682
 3119TIP3    H130772   3.150   3.001   0.791  2.2384  1.0386 -1.1189
 3119TIP3    H230773   3.069   3.128   0.795  0.7000  0.0825 -1.1712
 3120TIP3   OH230774   0.087   6.497  16.586  0.0143 -0.2243  0.0557
 3120TIP3    H130775   0.018   6.487  16.651 -0.4393 -0.2112 -0.4126
 3120TIP3    H230776   0.159   6.442  16.618  0.2531  0.7180  1.1633
 3121TIP3   OH230777   1.496   0.159   2.811  0.2167 -0.2838 -0.1544
 3121TIP3    H130778   1.502   0.193   2.722  1.0922  0.6242  0.2237
 3121TIP3    H230779   1.563   0.091   2.816  0.0649 -0.4398 -0.2284
 3122TIP3   OH230780   4.697   4.770  11.283 -0.2100  0.7302  0.5052
 3122TIP3    H130781   4.664   4.687  11.316  0.8474 -0.1464 -0.5458
 3122TIP3    H230782   4.668   4.835  11.347 -1.0398 -0.4423  1.3558
 3123TIP3   OH230783   4.511   6.317  12.245  0.9789 -0.2866  0.3277
 3123TIP3    H130784   4.606   6.303  12.247  0.8115 -1.5583  0.1677
 3123TIP3    H230785   4.491   6.357  12.330  1.5767 -0.5823  0.6151
 3124TIP3   OH230786   3.799   6.795   3.107 -0.2284  0.3024 -0.3908
 3124TIP3    H130787   3.873   6.802   3.167  0.3119  0.6373 -1.0760
 3124TIP3    H230788   3.800   6.703   3.079 -1.1240 -0.1228  0.8871
 3125TIP3   OH230789   4.018   1.683   1.584 -0.1000 -0.0539  0.3467
 3125TIP3    H130790   3.968   1.762   1.601  0.6247  0.4916  0.0244
 3125TIP3    H230791   4.090   1.712   1.528  0.9803 -0.6732  1.3723
 3126TIP3   OH230792   1.975   2.486   1.996  0.6516  0.5411 -0.2478
 3126TIP3    H130793   1.987   2.537   1.916  2.4392  0.4502 -0.0694
 3126TIP3    H230794   1.981   2.550   2.067  1.0663  0.3452 -0.1026
 3127TIP3   OH230795   6.108   4.817  16.830  0.4543 -0.0353 -0.3174
 3127TIP3    H130796   6.080   4.824  16.739 -2.9895  0.6330  0.6688
 3127TIP3    H230797   6.077   4.731  16.858 -1.1360  0.8974  0.9448
 3128TIP3   OH230798   1.758   0.853  16.485  0.0976  0.4317  0.3344
 3128TIP3    H130799   1.763   0.815  16.573  0.7972  0.9561  0.5278
 3128TIP3    H230800   1.755   0.947  16.499 -0.7511  0.4920 -0.1800
 3129TIP3   OH230801   0.112   2.063   1.154 -0.0632  0.1783 -0.0086
 3129TIP3    H130802   0.147   2.057   1.243 -0.7794  0.3820  0.2924
 3129TIP3    H230803   0.031   2.113   1.163 -0.6278 -0.6070 -0.6393
 3130TIP3   OH230804   2.360   0.202  14.126  0.0537 -0.4351  0.0746
 3130TIP3    H130805   2.421   0.135  14.157  0.8513 -0.4811 -1.5133
 3130TIP3    H230806   2.343   0.179  14.035 -2.9471 -0.8304  0.6450
 3131TIP3   OH230807   6.451   6.817   2.198  0.4812  0.4257  0.1645
 3131TIP3    H130808   6.361   6.821   2.166  0.2333  0.6142  0.8730
 3131TIP3    H230809   6.503   6.857   2.129  0.0735 -0.0473 -0.4284
 3132TIP3   OH230810   1.081   2.204   4.914  0.2986  0.1047  0.1702
 3132TIP3    H130811   1.141   2.140   4.952  2.6088  1.8663 -0.2965
 3132TIP3    H230812   0.994   2.165   4.926  1.4651 -2.4396  1.1316
 3133TIP3   OH230813   2.079   3.652  13.146  0.7027  0.0971 -0.6018
 3133TIP3    H130814   2.144   3.620  13.084  1.7995  1.0036  0.0381
 3133TIP3    H230815   2.111   3.739  13.170  0.2034 -0.1653  1.0964
 3134TIP3   OH230816   2.501   0.913  15.747  0.7448  0.4215  0.5867
 3134TIP3    H130817   2.418   0.882  15.711 -0.0526  3.4102 -0.4990
 3134TIP3    H230818   2.547   0.834  15.774 -2.2023 -1.3963  0.7333
 3135TIP3   OH230819   4.268   5.738  11.683  0.1266 -0.1147  0.7579
 3135TIP3    H130820   4.289   5.681  11.757  1.8794 -2.2037 -1.1949
 3135TIP3    H230821   4.220   5.682  11.623  0.0564  1.0981 -0.3488
 3136TIP3   OH230822   3.969   3.680   5.620 -0.3225 -1.1039  0.9331
 3136TIP3    H130823   3.906   3.681   5.692 -0.0173 -1.2648  1.2037
 3136TIP3    H230824   3.998   3.771   5.612 -1.4945 -0.7779 -0.0029
 3137TIP3   OH230825   2.087   6.205   2.092 -0.4769  0.8951  0.2950
 3137TIP3    H130826   2.007   6.188   2.140 -1.3397  3.0791 -0.2261
 3137TIP3    H230827   2.059   6.260   2.018  1.2121  0.0327 -1.0653
 3138TIP3   OH230828   0.585   2.588   1.667 -0.5514  0.3577  0.3591
 3138TIP3    H130829   0.643   2.555   1.599  1.5138  2.5048  0.9385
 3138TIP3    H230830   0.565   2.512   1.721  1.5426 -0.5361 -0.0245
 3139TIP3   OH230831   5.700   6.715   0.833 -0.0737  0.6968 -0.3419
 3139TIP3    H130832   5.745   6.655   0.774  1.0049  0.0842  1.0443
 3139TIP3    H230833   5.757   6.719   0.910 -2.6014 -0.5270  1.7389
 3140TIP3   OH230834   0.155   4.915  10.629  0.0482  0.2569  0.0235
 3140TIP3    H130835   0.177   4.908  10.722 -1.6552  0.0007  0.4482
 3140TIP3    H230836   0.206   4.990  10.598  0.2630  0.6667  1.2894
 3141TIP3   OH230837   1.456   1.944   4.290 -0.2955  0.6068 -0.2612
 3141TIP3    H130838   1.476   1.852   4.308  0.5195  0.6670 -0.8073
 3141TIP3    H230839   1.371   1.958   4.331  0.1044 -0.0689  0.8701
 3142TIP3   OH230840   1.665   2.087   4.402 -0.3507  0.5877 -0.3226
 3142TIP3    H130841   1.709   2.037   4.471 -0.3440  2.7947  1.3779
 3142TIP3    H230842   1.603   2.025   4.364  2.4092 -1.8993 -1.1427
 3143TIP3   OH230843   0.289   3.245  16.490  0.2423 -0.0278 -0.4664
 3143TIP3    H130844   0.342   3.255  16.569  0.7313  0.3185 -0.8359
 3143TIP3    H230845   0.353   3.225  16.421 -0.0890  0.6032 -0.9572
 3144TIP3   OH230846   2.858   4.414  11.521 -0.4263 -0.2742 -0.0141
 3144TIP3    H130847   2.868   4.478  11.451 -0.7663 -0.7511 -0.5133
 3144TIP3    H230848   2.894   4.456  11.598 -0.0159  0.2522 -0.4862
 3145TIP3   OH230849   0.942   2.904  15.029 -0.0110 -0.5130 -0.4554
 3145TIP3    H130850   1.007   2.917  15.099 -0.7701  0.6193  0.0796
 3145TIP3    H230851   0.858   2.901  15.075 -0.3520 -2.0499 -1.1347
 3146TIP3   OH230852   0.953   3.769   1.247 -0.2594 -0.5510  0.0716
 3146TIP3    H130853   1.004   3.842   1.213  0.0826 -0.5815  0.5176
 3146TIP3    H230854   0.982   3.759   1.338 -1.7062  0.0272  0.6298
 3147TIP3   OH230855   3.773   5.885   4.520 -0.5625  0.2061 -0.0869
 3147TIP3    H130856   3.724   5.932   4.588 -0.6348 -0.7283  0.5256
 3147TIP3    H230857   3.713   5.883   4.445 -0.6699  0.8278 -0.0250
 3148TIP3   OH230858   6.377   3.494  14.250 -0.2639  0.0483  0.0795
 3148TIP3    H130859   6.312   3.456  14.191  2.0888 -0.5090 -2.3561
 3148TIP3    H230860   6.398   3.578  14.211 -1.0483  1.2524  2.0894
 3149TIP3   OH230861   2.408   5.767  11.401  0.1347  0.3094  0.4667
 3149TIP3    H130862   2.411   5.835  11.469  1.1111  0.6849  0.0660
 3149TIP3    H230863   2.331   5.789  11.349  0.7393  1.4827  0.0021
 3150TIP3   OH230864   6.615   5.163   2.003  0.0864 -0.0283  0.6565
 3150TIP3    H130865   6.705   5.188   1.980 -0.8404  1.2874 -1.9290
 3150TIP3    H230866   6.599   5.083   1.952 -0.4544  0.1830  0.4892
 3151TIP3   OH230867   5.141   2.746  16.601  0.3786 -0.1574  0.1304
 3151TIP3    H130868   5.060   2.737  16.652 -0.4957  2.0445 -0.7376
 3151TIP3    H230869   5.202   2.789  16.662  0.2932 -0.1947  0.2434
 3152TIP3   OH230870   2.935   1.600  12.509 -0.8051  0.1526 -0.1597
 3152TIP3    H130871   2.900   1.660  12.444 -0.4499 -0.8773 -1.3389
 3152TIP3    H230872   2.869   1.599  12.579 -1.3046  1.0934 -0.6056
 3153TIP3   OH230873   6.070   4.132  14.336 -0.3164  0.4850  0.0414
 3153TIP3    H130874   5.989   4.180  14.317 -0.1836  0.9414  0.5849
 3153TIP3    H230875   6.136   4.172  14.280 -0.4255  0.2265 -0.2767
 3154TIP3   OH230876   2.214   4.335   4.663  0.2408  0.3384 -0.4332
 3154TIP3    H130877   2.120   4.342   4.680  0.3269  1.2255 -0.2878
 3154TIP3    H230878   2.253   4.323   4.750  0.1548 -1.5730 -0.6131
 3155TIP3   OH230879   3.771   1.966   4.145 -1.1095 -0.0389  0.0309
 3155TIP3    H130880   3.864   1.981   4.157 -0.7355 -0.0091 -2.4716
 3155TIP3    H230881   3.759   1.874   4.169  0.0366 -0.7086 -1.7889
 3156TIP3   OH230882   5.271   6.751   4.804 -0.0645 -0.4580 -0.5374
 3156TIP3    H130883   5.314   6.762   4.889 -1.5507 -2.4471  0.5718
 3156TIP3    H230884   5.313   6.674   4.767  1.6272  1.2529 -2.3911
 3157TIP3   OH230885   0.511   4.739   4.927  0.3926  0.4015  0.3152
 3157TIP3    H130886   0.551   4.660   4.963  0.8242  0.2444 -0.4922
 3157TIP3    H230887   0.417   4.724   4.934  0.4283  0.9138  2.5394
 3158TIP3   OH230888   4.343   5.347  14.796  0.3870 -0.4919  0.2527
 3158TIP3    H130889   4.276   5.350  14.865 -1.2638 -2.1943 -1.1451
 3158TIP3    H230890   4.344   5.435  14.759 -0.4585 -0.2077  0.8729
 3159TIP3   OH230891   2.653   6.248   4.265  0.2332  0.0432  0.0245
 3159TIP3    H130892   2.583   6.303   4.231  0.5013 -0.1009 -0.7907
 3159TIP3    H230893   2.659   6.271   4.358 -0.1002  0.9063 -0.1587
 3160TIP3   OH230894   0.339   1.749   3.601 -1.1586  0.1885  0.5546
 3160TIP3    H130895   0.409   1.687   3.581 -0.4802  1.2301 -0.3800
 3160TIP3    H230896   0.288   1.753   3.520 -1.2160  0.8298  0.6240
 3161TIP3   OH230897   3.790   4.165   2.257  0.1866  0.4309  0.1690
 3161TIP3    H130898   3.865   4.143   2.202  1.0833 -0.6838  1.7352
 3161TIP3    H230899   3.801   4.109   2.335 -3.0863 -0.9328 -0.1913
 3162TIP3   OH230900   5.138   5.287  15.450 -0.2018  0.2188 -0.1163
 3162TIP3    H130901   5.159   5.379  15.436  0.2970  0.3165  1.1526
 3162TIP3    H230902   5.095   5.285  15.536 -0.3304 -0.7101 -0.1880
 3163TIP3   OH230903   3.388   0.649  13.294  0.6798  0.3436  0.6998
 3163TIP3    H130904   3.401   0.637  13.388  1.3781 -0.9066  0.4586
 3163TIP3    H230905   3.370   0.561  13.260 -0.0831  0.8493 -0.2688
 3164TIP3   OH230906   3.437   0.811  16.558  0.1708  0.5899 -0.1706
 3164TIP3    H130907   3.354   0.856  16.562 -0.7864 -0.8521 -2.0900
 3164TIP3    H230908   3.503   0.880  16.562 -1.2080  2.1890 -2.7173
 3165TIP3   OH230909   5.333   3.842  15.621  0.4702  0.6831 -0.0270
 3165TIP3    H130910   5.351   3.784  15.547 -2.2557  1.1029 -1.1447
 3165TIP3    H230911   5.410   3.835  15.677  0.9588 -2.7207 -0.9308
 3166TIP3   OH230912   6.558   3.396   2.533  0.2250  0.1274  0.2632
 3166TIP3    H130913   6.625   3.337   2.566  1.1614  0.7505 -0.4815
 3166TIP3    H230914   6.604   3.478   2.516 -0.9973  1.0097  1.0412
 3167TIP3   OH230915   4.416   5.721   2.972  0.4163  0.4288  0.2251
 3167TIP3    H130916   4.459   5.666   2.907  1.1779  0.1095  0.9951
 3167TIP3    H230917   4.358   5.777   2.920  2.9746  2.0926 -1.0733
 3168TIP3   OH230918   0.183   6.738   2.437 -0.1050  0.2648 -0.4309
 3168TIP3    H130919   0.105   6.707   2.483 -0.6852 -0.3472 -1.7562
 3168TIP3    H230920   0.195   6.828   2.468 -0.1326 -0.2992  1.2857
 3169TIP3   OH230921   2.220   0.744  12.233 -0.0477  1.1567 -0.2938
 3169TIP3    H130922   2.224   0.823  12.178  1.4746 -0.0061 -1.9887
 3169TIP3    H230923   2.264   0.676  12.180 -2.2160 -1.1151  0.6286
 3170TIP3   OH230924   2.985   6.509  16.645  0.2249  0.0995 -0.3119
 3170TIP3    H130925   2.954   6.494  16.734 -0.2880 -0.7854 -0.6249
 3170TIP3    H230926   2.942   6.590  16.618 -1.2760 -0.7122 -0.4783
 3171TIP3   OH230927   0.678   0.455   1.705  0.1091  0.2617 -0.6150
 3171TIP3    H130928   0.612   0.433   1.639  0.5259  0.6599 -1.1803
 3171TIP3    H230929   0.758   0.469   1.654  0.5320  0.1774  0.0211
 3172TIP3   OH230930   1.885   0.252   5.134  0.0820  0.0595  0.2388
 3172TIP3    H130931   1.866   0.293   5.050 -1.6782  1.7797  1.3832
 3172TIP3    H230932   1.852   0.162   5.125  1.5923 -0.3860 -1.4539
 3173TIP3   OH230933   1.916   6.019   2.690  0.1128 -0.7030  0.4155
 3173TIP3    H130934   1.868   5.938   2.675  0.9849 -1.1816  0.1403
 3173TIP3    H230935   1.957   6.039   2.606  0.1177 -0.1240  0.5519
 3174TIP3   OH230936   0.247   6.570  16.206 -0.5427  0.0217 -0.3189
 3174TIP3    H130937   0.185   6.617  16.261 -1.1404  0.4041 -1.2970
 3174TIP3    H230938   0.227   6.477  16.220 -1.3127  0.1417 -0.6015
 3175TIP3   OH230939   0.162   6.029   0.146 -0.1777  0.1683  0.4809
 3175TIP3    H130940   0.079   5.986   0.125 -0.2928  0.0026  1.2598
 3175TIP3    H230941   0.190   6.067   0.063 -0.2825 -1.0452 -0.1345
 3176TIP3   OH230942   2.677   6.578   0.323 -0.0173  0.4126 -0.3278
 3176TIP3    H130943   2.688   6.646   0.256 -0.1920  0.9123  0.1410
 3176TIP3    H230944   2.757   6.525   0.317 -0.0550  0.4213 -0.9605
 3177TIP3   OH230945   4.267   2.294  13.117  0.0963  0.1446 -0.4329
 3177TIP3    H130946   4.272   2.201  13.138  1.7373  0.4202  0.5950
 3177TIP3    H230947   4.295   2.338  13.197 -1.0213  1.5537 -0.7773
 3178TIP3   OH230948   0.350   6.033   1.399 -0.1746 -0.4724  0.2127
 3178TIP3    H130949   0.397   6.088   1.336  0.2814  0.1399  1.0795
 3178TIP3    H230950   0.259   6.034   1.368  0.0579 -0.2433 -0.4786
 3179TIP3   OH230951   0.608   1.253  15.814  0.4745 -0.1345  0.7128
 3179TIP3    H130952   0.679   1.287  15.869 -0.5078  0.6439  1.5629
 3179TIP3    H230953   0.544   1.324  15.812 -0.3553 -0.8770  0.1121
 3180TIP3   OH230954   1.104   2.023  13.781 -0.2381  0.3408  0.1282
 3180TIP3    H130955   1.022   2.024  13.831  0.2920  1.1531  1.0262
 3180TIP3    H230956   1.109   2.110  13.741 -0.4162 -0.1389 -0.9753
 3181TIP3   OH230957   4.705   1.736  10.632  0.0062  0.6527  0.0395
 3181TIP3    H130958   4.747   1.716  10.716 -0.4329  0.7008  0.2716
 3181TIP3    H230959   4.695   1.651  10.590 -2.0797  0.3009  1.1294
 3182TIP3   OH230960   0.866   0.565  16.566 -0.1635 -0.0075  0.1656
 3182TIP3    H130961   0.860   0.595  16.657 -1.4652  1.9916 -0.5176
 3182TIP3    H230962   0.946   0.512  16.564 -0.8809 -1.3903  2.7855
 3183TIP3   OH230963   0.387   2.286   4.385  0.1761 -0.4297  0.7361
 3183TIP3    H130964   0.294   2.290   4.365 -0.0360 -0.6861  1.6436
 3183TIP3    H230965   0.399   2.348   4.458  0.8186  0.0272  0.2572
 3184TIP3   OH230966   4.483   1.403  15.711 -0.1040  0.7947  0.0639
 3184TIP3    H130967   4.522   1.428  15.795  1.1394  0.5651 -0.4286
 3184TIP3    H230968   4.405   1.353  15.735  0.5702  0.1937  1.0928
 3185TIP3   OH230969   3.924   4.381  12.818  0.0828 -0.2090 -0.0468
 3185TIP3    H130970   4.017   4.377  12.840  0.3239 -1.1043 -1.2026
 3185TIP3    H230971   3.909   4.473  12.796  0.8602 -0.1914 -0.5452
 3186TIP3   OH230972   5.049   6.754  12.470 -0.0064 -0.9590  0.0327
 3186TIP3    H130973   5.067   6.773  12.378  1.4715 -0.4923  0.3908
 3186TIP3    H230974   5.135   6.738  12.509 -0.7463 -3.0646  0.9427
 3187TIP3   OH230975   3.114   0.373  13.570 -0.0013 -0.7291  0.0777
 3187TIP3    H130976   3.043   0.309  13.573 -0.7839  0.0771 -0.6523
 3187TIP3    H230977   3.193   0.321  13.556 -0.6587 -1.5280 -0.7698
 3188TIP3   OH230978   4.994   0.551  11.353  0.3526 -0.3669 -0.0250
 3188TIP3    H130979   5.020   0.586  11.438  0.8184  1.1367 -0.7462
 3188TIP3    H230980   4.965   0.628  11.303 -1.2988 -1.3991 -0.7546
 3189TIP3   OH230981   2.659   1.582  13.237 -0.2628 -0.4686  0.5652
 3189TIP3    H130982   2.674   1.655  13.177 -1.3566 -0.2041  0.5808
 3189TIP3    H230983   2.738   1.528  13.230 -0.2209 -0.2781 -0.8905
 3190TIP3   OH230984   5.781   0.361  16.077  0.0206  0.1148  0.1067
 3190TIP3    H130985   5.705   0.310  16.105  0.6322  0.1403  1.9779
 3190TIP3    H230986   5.823   0.307  16.010 -1.5002  0.0125 -0.7970
 3191TIP3   OH230987   4.607   0.153   6.039  0.8241 -0.1230 -0.1045
 3191TIP3    H130988   4.587   0.072   6.086  0.4627 -1.0094 -1.7316
 3191TIP3    H230989   4.528   0.206   6.047  1.0820  0.1152  1.0094
 3192TIP3   OH230990   0.618   0.034   2.882  0.2226 -0.0328 -0.2985
 3192TIP3    H130991   0.677   0.106   2.859 -0.9934  2.4097  3.4343
 3192TIP3    H230992   0.563   0.024   2.805  1.9031  1.4327 -1.8067
 3193TIP3   OH230993   6.796   0.648  12.182  0.2980  0.6600  0.0516
 3193TIP3    H130994   6.798   0.714  12.112  0.2812  1.9228  1.2054
 3193TIP3    H230995   6.887   0.622  12.193  0.8180  2.9286  1.7769
 3194TIP3   OH230996   2.041   6.259  10.491  0.2020  0.1048  0.1520
 3194TIP3    H130997   1.947   6.278  10.501 -0.9780 -2.6834 -3.2322
 3194TIP3    H230998   2.055   6.179  10.541  0.5920  0.1121  0.0567
 3195TIP3   OH230999   0.430   4.190   2.161 -0.4682  0.3226 -0.3249
 3195TIP3    H131000   0.434   4.270   2.213  2.9579 -0.0925  0.3073
 3195TIP3    H231001   0.516   4.149   2.173 -1.9474 -3.3629 -0.7964
 3196TIP3   OH231002   0.750   6.360  13.856  0.2360  0.0819  0.1001
 3196TIP3    H131003   0.836   6.401  13.848  0.0206  0.4525 -0.3190
 3196TIP3    H231004   0.728   6.332  13.768  0.1957 -0.5678  0.3154
 3197TIP3   OH231005   3.641   4.711   5.600  0.8239 -0.2875  0.0641
 3197TIP3    H131006   3.593   4.674   5.674 -0.4408  0.0807 -0.5439
 3197TIP3    H231007   3.687   4.787   5.637  0.0137  0.0349  0.4255
 3198TIP3   OH231008   2.861   3.860  10.634 -0.2053 -0.2920 -0.0728
 3198TIP3    H131009   2.950   3.852  10.667 -0.5064  0.2868  0.8937
 3198TIP3    H231010   2.841   3.772  10.600  0.8227 -0.3494 -0.5704
 3199TIP3   OH231011   2.198   1.763  13.903  0.1226  0.2315  0.0880
 3199TIP3    H131012   2.244   1.690  13.946 -0.1402  0.4602  0.7661
 3199TIP3    H231013   2.106   1.737  13.904 -0.1905  1.2367  1.7506
 3200TIP3   OH231014   6.533   0.634  12.258 -0.7464 -0.4500 -0.9340
 3200TIP3    H131015   6.485   0.624  12.175 -0.4450  0.8941 -1.2828
 3200TIP3    H231016   6.625   0.633  12.232 -0.6675  1.1302 -0.7635
 3201TIP3   OH231017   1.065   6.578   2.828 -0.1644  0.1503  0.2488
 3201TIP3    H131018   1.013   6.525   2.888  1.1646 -1.4781  0.0511
 3201TIP3    H231019   1.114   6.637   2.885 -1.4253  0.9857  0.4978
 3202TIP3   OH231020   5.107   4.499  16.400  0.2247 -0.1353  0.1981
 3202TIP3    H131021   5.024   4.547  16.401 -0.7246 -1.6982  0.9892
 3202TIP3    H231022   5.121   4.477  16.308  2.4832  4.4194 -0.8329
 3203TIP3   OH231023   5.581   5.817  12.712 -0.1959 -0.1170  0.7428
 3203TIP3    H131024   5.546   5.820  12.801 -1.1274  1.2572  0.3608
 3203TIP3    H231025   5.504   5.828  12.656  0.4710 -0.1876 -0.2103
 3204TIP3   OH231026   3.781   3.631  15.040  0.5561 -0.5390 -0.1949
 3204TIP3    H131027   3.748   3.710  14.996  0.1365  0.1533  1.3169
 3204TIP3    H231028   3.856   3.604  14.987  0.9469  1.1073 -0.5313
 3205TIP3   OH231029   2.898   2.046  13.966 -0.4426  0.5376  0.2292
 3205TIP3    H131030   2.961   1.982  13.933 -0.9509 -0.8177  1.7471
 3205TIP3    H231031   2.925   2.129  13.926  1.2589 -0.2992 -0.4802
 3206TIP3   OH231032   3.872   3.593  16.260  0.1996  0.2052 -0.5501
 3206TIP3    H131033   3.843   3.512  16.218  0.1516  0.0715 -0.2582
 3206TIP3    H231034   3.958   3.571  16.296  1.0868  0.8315 -2.1445
 3207TIP3   OH231035   2.760   2.993  14.076  0.3134 -0.0402  0.0578
 3207TIP3    H131036   2.773   3.005  14.170  1.5350 -0.5128 -0.0386
 3207TIP3    H231037   2.722   3.076  14.047  1.0688  0.5691  0.7636
 3208TIP3   OH231038   5.929   1.807  11.276  0.0878 -0.0246  0.5722
 3208TIP3    H131039   5.862   1.852  11.226 -0.4177  1.8401  2.7532
 3208TIP3    H231040   6.010   1.821  11.228 -0.4122  1.4782  0.1177
 3209TIP3   OH231041   3.675   4.696   2.568 -0.0815 -0.4233 -0.3961
 3209TIP3    H131042   3.664   4.705   2.662  0.6010 -0.0308 -0.3490
 3209TIP3    H231043   3.694   4.603   2.555 -0.7108 -0.5834 -0.2090
 3210TIP3   OH231044   5.288   0.845   1.939  0.7155  0.5646  0.3948
 3210TIP3    H131045   5.242   0.763   1.920 -2.3037  2.3813 -0.7675
 3210TIP3    H231046   5.379   0.818   1.952 -0.0581 -2.9110 -0.2487
 3211TIP3   OH231047   6.617   0.299   4.292 -0.2618 -0.6347 -0.0311
 3211TIP3    H131048   6.564   0.342   4.225 -0.5807  0.7311  1.0316
 3211TIP3    H231049   6.565   0.223   4.319 -0.3561 -0.9114 -0.9697
 3212TIP3   OH231050   2.628   6.790   4.490  0.0115  0.7727 -0.8732
 3212TIP3    H131051   2.582   6.857   4.540 -1.4820 -0.8712  0.0552
 3212TIP3    H231052   2.597   6.707   4.525  1.7905 -0.4527 -1.9758
 3213TIP3   OH231053   3.094   1.811   3.553  0.2744 -0.6839  0.0321
 3213TIP3    H131054   3.028   1.824   3.485  0.6831 -0.3352 -0.3159
 3213TIP3    H231055   3.153   1.745   3.516  0.1390 -0.9622  0.3197
 3214TIP3   OH231056   1.656   2.965   4.447 -0.1418  0.5009 -0.0773
 3214TIP3    H131057   1.690   2.947   4.535  0.0878  2.7967  0.3726
 3214TIP3    H231058   1.602   2.889   4.426 -0.3994 -0.0019  2.1543
 3215TIP3   OH231059   6.353   3.683  12.863  0.0290 -0.3127  0.2336
 3215TIP3    H131060   6.288   3.711  12.927  0.4226  0.3676  0.3401
 3215TIP3    H231061   6.352   3.587  12.868 -0.0954 -0.2690  1.0960
 3216TIP3   OH231062   0.055   0.786   5.349  0.5335  0.3698  0.0097
 3216TIP3    H131063  -0.009   0.760   5.282 -0.4683 -0.4399  1.2356
 3216TIP3    H231064   0.021   0.868   5.384  0.7479  0.4918 -0.0656
 3217TIP3   OH231065   5.914   0.524  11.451 -0.2657  0.2954  0.0878
 3217TIP3    H131066   5.979   0.578  11.406  0.8464 -1.0898 -0.0320
 3217TIP3    H231067   5.962   0.448  11.481 -0.8912  1.2153  3.9457
 3218TIP3   OH231068   5.406   6.542   4.678 -0.9125  0.1483 -0.1214
 3218TIP3    H131069   5.474   6.505   4.733 -2.0552 -1.1853  0.4653
 3218TIP3    H231070   5.447   6.553   4.592 -0.0317 -0.8367  0.1585
 3219TIP3   OH231071   0.169   3.744   5.691  0.2770 -0.3528  0.1742
 3219TIP3    H131072   0.166   3.832   5.727 -0.3119 -0.5226  0.5451
 3219TIP3    H231073   0.186   3.687   5.766  0.9861 -0.5314 -0.1123
 3220TIP3   OH231074   6.681   6.088  12.445  0.0827  0.5969  0.6306
 3220TIP3    H131075   6.692   6.161  12.505 -1.0528 -0.2778  1.9722
 3220TIP3    H231076   6.587   6.086  12.426  0.0152 -0.7333  0.9639
 3221TIP3   OH231077   2.006   2.033   4.232  0.4251 -0.2354 -0.1661
 3221TIP3    H131078   2.025   1.985   4.312  0.7333  0.0364 -0.0718
 3221TIP3    H231079   2.084   2.021   4.177  0.7255  0.5708  0.0676
 3222TIP3   OH231080   6.211   3.584   3.516 -0.1435 -0.4689 -0.0103
 3222TIP3    H131081   6.231   3.607   3.425 -1.5899 -0.2853 -0.3003
 3222TIP3    H231082   6.233   3.492   3.523  1.5496 -0.1003 -0.0625
 3223TIP3   OH231083   5.876   1.960   6.376 -0.4407  0.2763 -0.2597
 3223TIP3    H131084   5.784   1.982   6.361 -0.8039 -1.2913 -0.4466
 3223TIP3    H231085   5.918   1.975   6.291 -0.6267  0.4883 -0.3163
 3224TIP3   OH231086   5.553   3.559  11.740 -0.2241 -0.2289 -0.3049
 3224TIP3    H131087   5.536   3.584  11.649 -0.4949  0.2006 -0.1431
 3224TIP3    H231088   5.612   3.485  11.734  0.3121  0.2280 -0.8192
 3225TIP3   OH231089   6.635   0.150  15.930  0.2323 -0.8764 -0.3915
 3225TIP3    H131090   6.579   0.087  15.977 -0.4765 -0.9363 -1.2812
 3225TIP3    H231091   6.585   0.171  15.851  0.1992  1.2511  0.1540
 3226TIP3   OH231092   1.951   2.031   3.589 -0.2773  0.5943  0.5323
 3226TIP3    H131093   1.879   2.092   3.607 -3.0677 -2.1405 -0.3343
 3226TIP3    H231094   1.933   1.956   3.646  0.6563 -1.0422 -1.2161
 3227TIP3   OH231095   1.558   1.962  16.315  0.5518  0.1722  0.6810
 3227TIP3    H131096   1.562   2.055  16.340 -0.5861  0.4520 -0.1018
 3227TIP3    H231097   1.469   1.950  16.283  0.6803 -1.2116  0.7859
 3228TIP3   OH231098   6.268   5.824  16.911 -0.2396 -0.1398 -0.2137
 3228TIP3    H131099   6.240   5.893  16.971  0.6424 -0.1750  0.2620
 3228TIP3    H231100   6.317   5.762  16.965  0.4303 -0.2580 -0.9210
 3229TIP3   OH231101   1.328   3.863   0.254  0.3800 -0.0582 -0.3304
 3229TIP3    H131102   1.387   3.934   0.279 -0.1902  0.4539 -0.3977
 3229TIP3    H231103   1.385   3.792   0.227  0.9764  0.8964 -1.7163
 3230TIP3   OH231104   1.560   4.195  15.360  0.3746 -0.4987 -0.1244
 3230TIP3    H131105   1.569   4.134  15.433 -0.9161  1.6690  1.9809
 3230TIP3    H231106   1.595   4.278  15.392 -0.0189  0.4815 -2.0468
 3231TIP3   OH231107   4.000   6.030   4.491  0.0773 -0.2649  0.1461
 3231TIP3    H131108   3.918   5.980   4.500 -0.4397  0.2863 -1.2777
 3231TIP3    H231109   3.973   6.114   4.454  1.4485 -0.6713 -1.9465
 3232TIP3   OH231110   6.107   5.883  12.428  0.7085  0.2818 -0.2260
 3232TIP3    H131111   6.126   5.817  12.495  0.6131  0.1150 -0.3593
 3232TIP3    H231112   6.161   5.856  12.353 -1.5638 -1.4498 -1.3771
 3233TIP3   OH231113   1.960   5.975  16.721 -0.0747  0.1648 -0.5254
 3233TIP3    H131114   2.002   5.900  16.762  0.8731  1.4192  0.8904
 3233TIP3    H231115   1.937   6.032  16.793  0.6686  1.9757 -1.6510
 3234TIP3   OH231116   6.061   6.591   3.677  0.5037 -0.5906  0.1226
 3234TIP3    H131117   6.080   6.528   3.746  1.7717 -1.1437 -0.7013
 3234TIP3    H231118   6.146   6.630   3.656 -0.1833  1.0703  0.2810
 3235TIP3   OH231119   3.352   1.654  16.404 -0.3012 -0.4362 -0.0539
 3235TIP3    H131120   3.368   1.562  16.385 -0.2365  0.0328 -2.5664
 3235TIP3    H231121   3.257   1.662  16.405 -0.3071 -0.4468 -0.3619
 3236TIP3   OH231122   4.588   6.081  16.142  0.4682  0.2038  0.2030
 3236TIP3    H131123   4.622   6.125  16.220  0.7922 -0.2596  0.3294
 3236TIP3    H231124   4.666   6.065  16.089  0.4951 -1.1049  0.6133
 3237TIP3   OH231125   4.178   1.812   1.407 -0.4255  0.6925 -0.1018
 3237TIP3    H131126   4.233   1.837   1.333 -0.4020 -0.1106 -0.3575
 3237TIP3    H231127   4.164   1.894   1.455  1.6830  0.7738  0.4382
 3238TIP3   OH231128   4.291   2.269   2.986 -0.1420  0.5207  0.1424
 3238TIP3    H131129   4.306   2.211   3.060  0.2792  1.0565  0.4830
 3238TIP3    H231130   4.341   2.231   2.914 -0.9327 -0.2676 -0.0196
 3239TIP3   OH231131   1.179   4.727  12.080  0.0960  0.3987  0.0405
 3239TIP3    H131132   1.240   4.800  12.078  0.4821  0.1533  1.7744
 3239TIP3    H231133   1.106   4.757  12.134  0.7243 -0.8121  1.6251
 3240TIP3   OH231134   1.779   0.606   1.984  0.2303 -0.3692  0.5845
 3240TIP3    H131135   1.705   0.614   2.044 -1.7134  0.6206 -1.7827
 3240TIP3    H231136   1.802   0.513   1.987 -3.0617 -1.3708 -0.6870
 3241TIP3   OH231137   2.533   6.226   3.468  0.2639  0.2011  0.1111
 3241TIP3    H131138   2.628   6.240   3.462  0.4230 -1.0706 -0.7515
 3241TIP3    H231139   2.506   6.274   3.546  1.9636 -1.0921  1.5795
 3242TIP3   OH231140   0.710   4.894   2.397 -0.4733  0.0326 -0.0767
 3242TIP3    H131141   0.727   4.976   2.443  0.0524 -1.4648  2.5992
 3242TIP3    H231142   0.621   4.870   2.423  0.1645 -1.3009  0.9951
 3243TIP3   OH231143   0.876   1.115   2.659  0.1475  0.0750  0.0609
 3243TIP3    H131144   0.952   1.173   2.662 -0.0711  0.3199  2.7914
 3243TIP3    H231145   0.811   1.157   2.714 -1.3022 -1.1008 -0.6755
 3244TIP3   OH231146   0.361   4.495   4.057 -0.2890 -0.0171 -0.1362
 3244TIP3    H131147   0.280   4.542   4.038 -1.6382 -1.9934  0.4244
 3244TIP3    H231148   0.371   4.434   3.984 -0.4900 -1.2457  0.8306
 3245TIP3   OH231149   4.500   4.031   5.282  0.0660  0.1492 -0.3483
 3245TIP3    H131150   4.482   4.004   5.372 -0.5572 -0.0111 -0.5201
 3245TIP3    H231151   4.453   3.968   5.228  2.3336 -1.2091 -0.8705
 3246TIP3   OH231152   6.714   4.847  13.730 -0.0120  0.0960  0.1887
 3246TIP3    H131153   6.658   4.895  13.791  0.0828 -0.3920  0.6787
 3246TIP3    H231154   6.781   4.910  13.704 -0.8405  0.7160 -0.4905
 3247TIP3   OH231155   4.285   2.876  11.317 -0.1707  0.0428 -0.0061
 3247TIP3    H131156   4.232   2.798  11.335 -0.5348  0.6573  1.8026
 3247TIP3    H231157   4.348   2.878  11.389  1.4260  0.1036 -1.3615
 3248TIP3   OH231158   5.064   5.012   5.743  0.2469  0.0142  0.4731
 3248TIP3    H131159   5.029   5.091   5.702  0.9170 -0.7849 -1.7784
 3248TIP3    H231160   5.148   5.039   5.780  0.6677  0.2890 -0.6567
 3249TIP3   OH231161   4.826   4.121  16.757  0.2434  0.5425  0.1053
 3249TIP3    H131162   4.895   4.055  16.761 -0.0504  0.0535 -1.6597
 3249TIP3    H231163   4.866   4.195  16.712 -0.2574  0.3921 -0.6061
 3250TIP3   OH231164   5.517   1.529  12.660 -0.3210 -0.3038  0.3209
 3250TIP3    H131165   5.537   1.505  12.751 -0.3468  2.3390  1.0965
 3250TIP3    H231166   5.431   1.570  12.664 -0.5575 -0.6237 -1.0001
 3251TIP3   OH231167   2.298   5.145  15.708 -0.5658 -0.0473  0.2404
 3251TIP3    H131168   2.390   5.129  15.684 -1.0871 -0.9440 -1.2813
 3251TIP3    H231169   2.303   5.188  15.793  1.3107  0.9678 -0.3226
 3252TIP3   OH231170   0.712   0.688  11.850  0.1591  0.2949 -0.0861
 3252TIP3    H131171   0.770   0.681  11.925 -0.3808  1.2466  0.4389
 3252TIP3    H231172   0.759   0.746  11.789 -0.5613  1.7563  0.6942
 3253TIP3   OH231173   6.356   2.432  14.075 -0.2796 -0.6246 -0.9271
 3253TIP3    H131174   6.426   2.368  14.060  1.5380  0.5903  1.5863
 3253TIP3    H231175   6.323   2.411  14.162 -0.9865  0.6344 -0.8699
 3254TIP3   OH231176   3.074   5.553  14.524  0.3315  0.0764  0.0400
 3254TIP3    H131177   3.112   5.520  14.443  0.0451  0.1683 -0.1315
 3254TIP3    H231178   3.011   5.486  14.550 -0.3661  0.5516 -0.3912
 3255TIP3   OH231179   5.273   4.969  13.799 -0.5714  0.2826  0.3154
 3255TIP3    H131180   5.295   4.876  13.788 -0.6422  0.1104  1.5142
 3255TIP3    H231181   5.230   4.993  13.717 -1.4953 -1.0242  0.3746
 3256TIP3   OH231182   1.499   2.047  13.113  0.0137  0.2954 -0.1254
 3256TIP3    H131183   1.484   1.980  13.047  0.8712  0.8332 -0.8915
 3256TIP3    H231184   1.468   2.128  13.072  0.9173  0.6975 -0.0339
 3257TIP3   OH231185   3.854   5.215  15.348 -0.1006  0.8530 -0.0727
 3257TIP3    H131186   3.862   5.288  15.287 -1.5057  0.3234 -0.9367
 3257TIP3    H231187   3.767   5.224  15.386  0.1624  0.2887  0.7054
 3258TIP3   OH231188   2.974   4.848   0.004  0.0642  0.2350  0.1876
 3258TIP3    H131189   2.997   4.937  -0.023 -1.2633  0.8198  0.9436
 3258TIP3    H231190   3.050   4.795  -0.024 -0.0608  1.2051 -2.2830
 3259TIP3   OH231191   6.182   5.985   4.679  0.0905  0.3135 -0.1252
 3259TIP3    H131192   6.201   6.072   4.644  0.7344 -0.5757 -2.1558
 3259TIP3    H231193   6.265   5.954   4.716  0.0845  0.2276 -0.1827
 3260TIP3   OH231194   1.432   4.245   2.486  0.2133 -0.2726 -0.0627
 3260TIP3    H131195   1.461   4.196   2.409  1.6578  0.6795 -0.1590
 3260TIP3    H231196   1.513   4.276   2.527 -0.6060  0.8958  0.7422
 3261TIP3   OH231197   5.197   4.116  12.690  0.4237 -0.4848 -0.6423
 3261TIP3    H131198   5.155   4.130  12.605  2.0282  0.3864 -1.3083
 3261TIP3    H231199   5.265   4.051  12.673 -0.1727 -1.3948  0.3008
 3262TIP3   OH231200   0.496   0.539   0.873  0.0498 -0.7586 -0.0279
 3262TIP3    H131201   0.447   0.505   0.798 -0.7442 -2.4503  1.1950
 3262TIP3    H231202   0.472   0.481   0.945  1.0215  0.6427  1.4777
 3263TIP3   OH231203   2.039   0.612   5.345 -0.1642  0.0689  1.0310
 3263TIP3    H131204   2.128   0.590   5.319  0.6274  1.3448  2.5412
 3263TIP3    H231205   1.988   0.534   5.324  0.9803 -0.1592 -1.2555
 3264TIP3   OH231206   2.198   5.831  12.428 -0.0607 -0.5348  0.0160
 3264TIP3    H131207   2.131   5.764  12.441 -1.3385  0.4945 -1.0526
 3264TIP3    H231208   2.214   5.866  12.515 -1.3005 -0.4296  0.2157
 3265TIP3   OH231209   2.257   1.368  13.499  0.4076  0.1664 -0.2148
 3265TIP3    H131210   2.248   1.463  13.509  0.0195  0.1705 -0.5858
 3265TIP3    H231211   2.309   1.341  13.574  0.9327  0.7403 -0.3684
 3266TIP3   OH231212   5.598   2.920   1.386 -0.3803  0.4418 -0.8022
 3266TIP3    H131213   5.635   2.834   1.365  0.1610  0.6316 -0.6212
 3266TIP3    H231214   5.609   2.929   1.480 -0.8505  0.5217 -0.7507
 3267TIP3   OH231215   6.403   5.521  16.420  0.3195  0.0667 -0.2723
 3267TIP3    H131216   6.361   5.573  16.351  1.1621 -0.6018 -1.3343
 3267TIP3    H231217   6.448   5.585  16.474 -0.7691  0.6481 -0.0420
 3268TIP3   OH231218   6.690   4.457  11.726 -0.3887  0.6027  0.1388
 3268TIP3    H131219   6.770   4.489  11.767 -0.8826  1.1327  0.7031
 3268TIP3    H231220   6.627   4.448  11.798 -0.9671  0.5956 -0.3582
 3269TIP3   OH231221   6.701   1.270   2.461  0.2449  0.4964 -0.1836
 3269TIP3    H131222   6.653   1.352   2.474 -0.2862  0.1554  0.0845
 3269TIP3    H231223   6.649   1.205   2.510  0.3432 -0.1029 -0.8693
 3270TIP3   OH231224   1.504   5.482  13.979 -0.7999  0.0188  0.8461
 3270TIP3    H131225   1.438   5.534  13.933 -0.1241  1.9923  1.9860
 3270TIP3    H231226   1.454   5.427  14.039 -1.5334 -0.7525 -0.4182
 3271TIP3   OH231227   4.442   3.962   4.476 -0.3601  0.1828  0.0907
 3271TIP3    H131228   4.401   3.927   4.398 -1.8425  3.2160 -0.6431
 3271TIP3    H231229   4.451   3.887   4.534 -1.4420 -1.7211 -2.0396
 3272TIP3   OH231230   3.433   6.399   5.373 -0.1218  0.6092 -0.4430
 3272TIP3    H131231   3.435   6.481   5.422 -1.2089 -0.1140  0.8751
 3272TIP3    H231232   3.369   6.344   5.419  1.1162 -1.2758 -0.8257
 3273TIP3   OH231233   6.325   6.379  15.314 -0.3630  0.4469 -0.6161
 3273TIP3    H131234   6.287   6.366  15.227  0.5196 -2.0650 -0.6918
 3273TIP3    H231235   6.420   6.378  15.300 -0.2085  0.4506  0.3319
 3274TIP3   OH231236   1.919   0.174  15.593 -0.4676  0.2006  0.6006
 3274TIP3    H131237   1.826   0.160  15.580 -0.1975 -1.1651 -0.0370
 3274TIP3    H231238   1.933   0.266  15.569 -1.6768  0.4941  0.9717
 3275TIP3   OH231239   2.394   1.686   6.279 -0.5447  0.2716 -0.3414
 3275TIP3    H131240   2.330   1.665   6.211 -0.7758 -0.4547  0.0966
 3275TIP3    H231241   2.410   1.780   6.268 -1.1711  0.3206 -0.8903
 3276TIP3   OH231242   1.105   2.653  14.484 -0.3028  0.0582 -0.5872
 3276TIP3    H131243   1.124   2.585  14.419  1.6144  0.4517 -0.4749
 3276TIP3    H231244   1.185   2.661  14.536 -0.2773  2.7121 -0.8777
 3277TIP3   OH231245   0.996   5.203  11.803 -0.5329 -0.2663 -0.9238
 3277TIP3    H131246   0.995   5.155  11.720 -0.4385  1.3024 -1.8724
 3277TIP3    H231247   0.927   5.161  11.855  0.8457 -2.6732 -0.9190
 3278TIP3   OH231248   0.408   0.785  16.540 -0.6130  0.4412 -0.0975
 3278TIP3    H131249   0.426   0.785  16.446 -0.4014 -0.2848 -0.0603
 3278TIP3    H231250   0.342   0.716  16.552 -0.3814  0.2943  0.3371
 3279TIP3   OH231251   1.426   4.940  12.336 -0.0513 -0.3554  0.0486
 3279TIP3    H131252   1.411   4.927  12.242  0.0209 -1.9419  0.2304
 3279TIP3    H231253   1.487   5.013  12.341 -0.9336  0.4911 -1.0874
 3280TIP3   OH231254   6.183   5.983   0.068  0.0291  0.2611  0.6468
 3280TIP3    H131255   6.098   5.940   0.078 -0.0624 -0.0192 -1.0799
 3280TIP3    H231256   6.161   6.075   0.049  0.1218  0.2749  0.6052
 3281TIP3   OH231257   5.963   2.282  11.502 -1.2174  0.0096 -0.1512
 3281TIP3    H131258   5.868   2.272  11.504 -1.0474 -1.8353  0.1622
 3281TIP3    H231259   5.992   2.258  11.590 -0.5347  1.9763  0.2294
 3282TIP3   OH231260   4.016   6.159  12.576 -0.2070  0.0432 -0.1883
 3282TIP3    H131261   3.941   6.214  12.601  1.4912  1.2478  2.8665
 3282TIP3    H231262   3.982   6.069  12.580 -1.6986  0.5888  0.2661
 3283TIP3   OH231263   3.084   4.838  13.289  0.0800  0.5016  0.7740
 3283TIP3    H131264   3.174   4.867  13.308 -0.1146  1.3641  0.4158
 3283TIP3    H231265   3.085   4.745  13.308  1.2558  0.3510  0.0657
 3284TIP3   OH231266   1.026   5.566  16.170  0.1218 -0.2950 -0.2204
 3284TIP3    H131267   1.119   5.549  16.186  0.8112  1.3715 -2.1756
 3284TIP3    H231268   0.997   5.492  16.117  0.0651 -1.2544  1.0887
 3285TIP3   OH231269   3.260   2.719   0.656 -0.1595 -0.7384 -0.1787
 3285TIP3    H131270   3.285   2.715   0.748  1.0413 -1.2265 -0.5019
 3285TIP3    H231271   3.341   2.701   0.609 -0.9768 -1.6391 -1.3112
 3286TIP3   OH231272   0.338   2.902  14.830  0.2253  0.0095 -0.3623
 3286TIP3    H131273   0.310   2.810  14.838  1.8471 -0.6883 -1.9077
 3286TIP3    H231274   0.300   2.930  14.746  1.4245  0.0664 -0.8982
 3287TIP3   OH231275   5.921   1.290   1.466 -0.1160 -0.5691 -0.1410
 3287TIP3    H131276   6.001   1.327   1.429 -0.5366 -0.1531 -0.6648
 3287TIP3    H231277   5.878   1.247   1.392  0.0412 -1.5374  0.3225
 3288TIP3   OH231278   5.966   1.651   1.590 -0.1647 -0.3380  0.4757
 3288TIP3    H131279   6.007   1.715   1.532 -1.8561  0.5096  0.1547
 3288TIP3    H231280   6.033   1.584   1.603  1.3766  1.0681  0.1649
 3289TIP3   OH231281   5.990   0.132  16.957  0.0579  0.5136  0.1127
 3289TIP3    H131282   6.006   0.093  16.871 -0.0562 -0.5327  0.5424
 3289TIP3    H231283   6.076   0.136  16.998 -0.3392 -5.1839  2.4562
 3290TIP3   OH231284   4.170   2.419   1.354  0.2067 -0.2949  0.1156
 3290TIP3    H131285   4.223   2.430   1.433  1.2437  1.8908 -0.8229
 3290TIP3    H231286   4.227   2.373   1.293  0.2176  0.0380 -0.1257
 3291TIP3   OH231287   6.717   2.216  16.110  0.1384  0.7523  0.2932
 3291TIP3    H131288   6.758   2.276  16.172  1.6079  0.5287 -0.4182
 3291TIP3    H231289   6.721   2.262  16.026 -1.0489  0.6952  0.1832
 3292TIP3   OH231290   6.089   4.189  11.312 -0.2615  0.3567  0.5603
 3292TIP3    H131291   6.156   4.225  11.372 -1.3878 -0.8676  2.6765
 3292TIP3    H231292   6.101   4.094  11.318 -0.2118  0.1966 -1.4877
 3293TIP3   OH231293   6.017   2.044   4.396  0.2658  0.2587 -0.0312
 3293TIP3    H131294   5.947   2.109   4.398  0.4246  0.4268  1.1165
 3293TIP3    H231295   6.000   1.988   4.472  1.6623  0.6378  0.6027
 3294TIP3   OH231296   4.965   2.408  12.132  0.1198 -0.0693 -0.5716
 3294TIP3    H131297   5.041   2.465  12.145  0.3211 -0.5049  0.2026
 3294TIP3    H231298   5.002   2.321  12.121 -0.1216  0.0627 -2.8419
 3295TIP3   OH231299   1.125   2.867   3.881 -0.4320  0.6445  0.5963
 3295TIP3    H131300   1.045   2.868   3.828  1.2533  0.3922 -2.1038
 3295TIP3    H231301   1.123   2.950   3.928 -2.2827  0.6160  0.6454
 3296TIP3   OH231302   1.780   6.341   2.761 -0.2213  0.0839 -0.4411
 3296TIP3    H131303   1.837   6.399   2.711  0.6514  1.5378  2.0356
 3296TIP3    H231304   1.840   6.285   2.810 -1.0330 -1.1220 -0.7855
 3297TIP3   OH231305   2.568   2.810   0.612  0.4178 -0.1494 -0.1495
 3297TIP3    H131306   2.531   2.898   0.619 -2.5972 -1.3806  1.4997
 3297TIP3    H231307   2.539   2.778   0.527  0.3700  0.0000 -0.1897
 3298TIP3   OH231308   0.836   6.411   4.354  0.3659 -0.2693 -0.8778
 3298TIP3    H131309   0.829   6.315   4.350  1.6082 -0.4276  0.0572
 3298TIP3    H231310   0.862   6.429   4.444 -2.3568  1.1718 -0.2754
 3299TIP3   OH231311   1.346   4.615  12.798  0.6761  0.0446  0.0513
 3299TIP3    H131312   1.343   4.592  12.891 -1.0559 -1.2999 -0.2729
 3299TIP3    H231313   1.291   4.549  12.756  1.9972  0.1850 -2.0391
 3300TIP3   OH231314   1.780   3.296  15.832  0.4586  0.0549  0.5127
 3300TIP3    H131315   1.724   3.297  15.909  1.8609 -0.3074  1.5584
 3300TIP3    H231316   1.777   3.206  15.800  3.2091 -0.9905  2.7269
 3301TIP3   OH231317   1.699   2.885  13.978  0.8330  0.2034 -0.5725
 3301TIP3    H131318   1.614   2.890  14.022  0.8283  2.1846 -0.7379
 3301TIP3    H231319   1.681   2.838  13.896  0.4450 -1.6627  0.5189
 3302TIP3   OH231320   6.696   6.139  12.164 -0.1679  0.6621  0.2563
 3302TIP3    H131321   6.616   6.187  12.183  0.7940  2.0832  0.8633
 3302TIP3    H231322   6.746   6.142  12.246  0.3761 -0.5083 -0.0062
 3303TIP3   OH231323   0.596   2.964  16.426  0.1138  0.4548  0.4688
 3303TIP3    H131324   0.671   3.013  16.460  0.3739 -0.2059  0.8709
 3303TIP3    H231325   0.539   2.952  16.501  0.1572 -0.0406  0.4287
 3304TIP3   OH231326   5.063   5.236  13.881  0.4604 -0.1945  0.1037
 3304TIP3    H131327   5.105   5.247  13.796  1.2795 -2.0510  0.2310
 3304TIP3    H231328   5.039   5.144  13.885 -4.0216  0.7563 -0.0645
 3305TIP3   OH231329   0.495   6.596  15.127  0.0606 -0.1935 -0.4566
 3305TIP3    H131330   0.426   6.555  15.180  0.7849 -1.0956 -0.1715
 3305TIP3    H231331   0.549   6.642  15.191  0.4906 -0.6292 -0.5029
 3306TIP3   OH231332   5.348   2.638  15.462  0.0699 -0.4212 -0.0336
 3306TIP3    H131333   5.422   2.697  15.443  1.5851 -2.5900 -1.3537
 3306TIP3    H231334   5.306   2.625  15.377  1.2082 -2.9963 -0.2824
 3307TIP3   OH231335   0.567   6.032  12.046  0.2704 -0.1003  0.0518
 3307TIP3    H131336   0.558   6.063  11.956 -1.1170  1.9066  0.8103
 3307TIP3    H231337   0.653   5.990  12.049  0.4486  0.0159 -2.1228
 3308TIP3   OH231338   6.251   4.574  12.908 -0.2571 -0.2935 -0.0535
 3308TIP3    H131339   6.245   4.535  12.821  0.5986 -2.0529  0.6306
 3308TIP3    H231340   6.185   4.643  12.908  1.5651  1.6492 -3.0233
 3309TIP3   OH231341   2.415   2.480   4.650  0.1110  0.2043 -0.1131
 3309TIP3    H131342   2.496   2.438   4.678 -0.2934 -1.0900 -0.8309
 3309TIP3    H231343   2.364   2.490   4.731  0.8891  0.8797  0.3164
 3310TIP3   OH231344   4.724   5.160   2.188 -0.0324  0.1024  0.2523
 3310TIP3    H131345   4.802   5.201   2.224 -0.7106  0.0738  1.8182
 3310TIP3    H231346   4.717   5.076   2.232 -0.2655 -0.4535 -0.8031
 3311TIP3   OH231347   6.634   2.232  11.644 -0.0600 -0.5973  0.6274
 3311TIP3    H131348   6.615   2.325  11.656 -1.7067 -1.0465  1.7529
 3311TIP3    H231349   6.698   2.211  11.711  0.8641 -0.1464 -0.0866
 3312TIP3   OH231350   2.643   4.460  12.890  0.1238 -0.1557  0.3410
 3312TIP3    H131351   2.706   4.532  12.885  0.6563 -0.6761 -0.8356
 3312TIP3    H231352   2.564   4.494  12.849 -0.0411  0.1584  0.9051
 3313TIP3   OH231353   5.746   4.875  13.612  0.2700  0.3070 -0.2168
 3313TIP3    H131354   5.836   4.864  13.645  0.1747 -1.4272 -0.4413
 3313TIP3    H231355   5.714   4.953  13.657  1.0129 -0.5304  1.9468
 3314TIP3   OH231356   0.099   3.249  14.123 -0.7796 -0.4069  0.0362
 3314TIP3    H131357   0.111   3.163  14.083 -1.1867 -0.0743 -0.8194
 3314TIP3    H231358   0.144   3.242  14.208  0.5173 -0.9688 -0.6677
 3315TIP3   OH231359   3.655   3.730   2.253 -0.5519  0.1716 -0.1640
 3315TIP3    H131360   3.702   3.719   2.170  0.7830 -1.0854  0.6963
 3315TIP3    H231361   3.690   3.661   2.310 -1.3876  1.0176  1.4683
 3316TIP3   OH231362   2.763   1.831  12.413  0.2994 -0.4807  1.4428
 3316TIP3    H131363   2.727   1.897  12.353  1.3322  0.4802  1.8502
 3316TIP3    H231364   2.712   1.842  12.494  1.5795  1.0158  2.0879
 3317TIP3   OH231365   5.435   2.484   4.593 -0.6040 -0.4633 -0.3927
 3317TIP3    H131366   5.496   2.555   4.574  2.1663 -2.6118 -0.0989
 3317TIP3    H231367   5.415   2.446   4.508 -1.1917 -0.0584 -0.4421
 3318TIP3   OH231368   4.499   4.834   1.064  0.2875  0.0125 -0.4192
 3318TIP3    H131369   4.428   4.805   1.007  0.1511 -0.8459  0.1758
 3318TIP3    H231370   4.572   4.851   1.003 -0.1876  0.2005 -0.9525
 3319TIP3   OH231371   2.432   1.150  14.936  0.3793 -0.4759  0.7580
 3319TIP3    H131372   2.338   1.138  14.941  0.2128 -1.4097 -2.4289
 3319TIP3    H231373   2.448   1.236  14.976 -2.1949  0.9186 -0.9627
 3320TIP3   OH231374   4.343   1.696  15.815  0.6535  0.0568  0.2839
 3320TIP3    H131375   4.421   1.750  15.825  1.4984 -0.9266 -0.7662
 3320TIP3    H231376   4.300   1.730  15.736  0.9682 -0.5040 -0.1404
 3321TIP3   OH231377   1.852   0.423  16.424 -0.1932  0.3634  0.6060
 3321TIP3    H131378   1.945   0.444  16.422 -0.2034  0.3730 -0.1718
 3321TIP3    H231379   1.809   0.504  16.449  0.0324  0.2453  1.4008
 3322TIP3   OH231380   2.276   6.291   1.010  0.0900  0.1034  0.0170
 3322TIP3    H131381   2.344   6.352   0.983  0.7933  1.4110  4.0608
 3322TIP3    H231382   2.294   6.211   0.960  0.9369  2.1608 -3.2788
 3323TIP3   OH231383   1.485   6.771   3.139  0.1183 -0.2994  0.1681
 3323TIP3    H131384   1.547   6.818   3.083 -2.1828  0.7121 -1.6854
 3323TIP3    H231385   1.498   6.679   3.116  0.4868 -0.0507 -0.6491
 3324TIP3   OH231386   4.083   3.057   4.593  0.6490  0.6002  0.3285
 3324TIP3    H131387   4.049   3.140   4.559  2.9632  1.6691  0.4323
 3324TIP3    H231388   4.106   3.076   4.684  2.2979  0.2418  0.0313
 3325TIP3   OH231389   4.008   1.417   2.876  0.1776 -0.5458 -0.2385
 3325TIP3    H131390   3.920   1.451   2.895  0.5796 -0.9595  2.7432
 3325TIP3    H231391   4.000   1.322   2.887  1.3783 -0.4377  2.2657
 3326TIP3   OH231392   4.695   0.903  14.119 -0.4349 -0.7337 -0.2906
 3326TIP3    H131393   4.788   0.879  14.120 -0.9568 -2.9972  0.6900
 3326TIP3    H231394   4.683   0.955  14.198 -0.2632 -1.6160  0.3248
 3327TIP3   OH231395   4.664   4.678  10.635  0.4568 -0.0266 -0.3390
 3327TIP3    H131396   4.644   4.625  10.557 -0.5588  0.5646 -0.4996
 3327TIP3    H231397   4.684   4.764  10.600  0.9246  0.0020  0.0003
 3328TIP3   OH231398   1.295   5.400  14.176  0.6076  0.0291 -0.2033
 3328TIP3    H131399   1.296   5.340  14.251  1.4884  0.2300 -0.0370
 3328TIP3    H231400   1.248   5.353  14.108 -2.0246  0.6120  1.0704
 3329TIP3   OH231401   1.246   6.756  13.760 -0.2687 -0.1333  0.5047
 3329TIP3    H131402   1.229   6.663  13.774 -0.2404 -0.5415 -1.8474
 3329TIP3    H231403   1.258   6.765  13.665 -0.1034  2.2458  0.6849
 3330TIP3   OH231404   0.863   3.795   0.583  0.0973  0.1006 -0.0204
 3330TIP3    H131405   0.822   3.842   0.510  0.1887  0.3571  0.0928
 3330TIP3    H231406   0.918   3.861   0.626  0.3990 -0.1674  0.0052
 3331TIP3   OH231407   2.507   4.751   2.073 -0.7925  0.3529 -0.2482
 3331TIP3    H131408   2.522   4.797   1.991 -0.5656  0.3993 -0.1821
 3331TIP3    H231409   2.427   4.790   2.108 -1.3813 -0.2880 -0.8734
 3332TIP3   OH231410   5.542   6.566   1.766 -0.1789 -0.2651  0.7780
 3332TIP3    H131411   5.634   6.540   1.762  0.4988  2.0268  0.0114
 3332TIP3    H231412   5.494   6.487   1.741  1.6664 -0.9828 -0.7734
 3333TIP3   OH231413   3.205   1.032  13.199 -0.3831 -0.2528  0.1635
 3333TIP3    H131414   3.277   0.971  13.214 -0.7834 -1.0487 -0.9851
 3333TIP3    H231415   3.148   1.021  13.274 -0.2671 -1.0456  0.1436
 3334TIP3   OH231416   1.313   6.491  11.708  0.2939  0.0391 -0.3046
 3334TIP3    H131417   1.325   6.578  11.747  1.0762 -0.3584  0.3561
 3334TIP3    H231418   1.302   6.509  11.614  2.1879  0.7410 -0.4281
 3335TIP3   OH231419   2.663   2.153  16.746 -0.2132  0.1651 -0.1320
 3335TIP3    H131420   2.581   2.200  16.733 -0.3731  0.2276  0.9751
 3335TIP3    H231421   2.731   2.221  16.738 -0.4816  0.7726  2.1365
 3336TIP3   OH231422   3.419   0.488   4.779 -0.1398 -0.1707 -0.1061
 3336TIP3    H131423   3.385   0.568   4.740  0.7098 -0.0411 -0.6217
 3336TIP3    H231424   3.483   0.517   4.843 -0.3120 -0.4203  0.1796
 3337TIP3   OH231425   1.153   1.452  16.130 -0.0782  0.6305  0.3988
 3337TIP3    H131426   1.205   1.470  16.208  0.3579  0.7672  0.0772
 3337TIP3    H231427   1.216   1.452  16.058 -0.1442 -1.4354  0.2721
 3338TIP3   OH231428   5.169   4.195   2.601 -0.2894  0.6729 -0.4522
 3338TIP3    H131429   5.077   4.174   2.620 -0.6759  2.2781 -0.3841
 3338TIP3    H231430   5.165   4.245   2.519  0.4347  1.4185 -0.0427
 3339TIP3   OH231431   4.174   6.591   0.198 -0.0971  0.6174 -0.2285
 3339TIP3    H131432   4.174   6.653   0.271 -0.8355 -0.2359  0.5188
 3339TIP3    H231433   4.211   6.640   0.125  0.1660  1.6564  0.5780
 3340TIP3   OH231434   5.484   1.059   0.792  0.5215  0.5725  0.1303
 3340TIP3    H131435   5.538   0.987   0.759 -0.5241  1.1831 -3.2850
 3340TIP3    H231436   5.545   1.131   0.808  1.3013 -0.3585  1.5758
 3341TIP3   OH231437   4.803   3.123   2.385  0.0661  0.1673  0.3388
 3341TIP3    H131438   4.833   3.207   2.350  2.5426 -0.6231  0.3636
 3341TIP3    H231439   4.728   3.099   2.329  1.3832  0.8350 -1.8359
 3342TIP3   OH231440   4.471   0.021  10.648  0.0602 -0.6093 -0.4329
 3342TIP3    H131441   4.443  -0.070  10.649 -2.9188  0.1582  1.7921
 3342TIP3    H231442   4.422   0.061  10.576 -2.2090  0.0232  1.3350
 3343TIP3   OH231443   2.267   6.635   3.550  0.0740  0.2878 -0.0940
 3343TIP3    H131444   2.282   6.668   3.638  0.6006  0.5023 -0.2618
 3343TIP3    H231445   2.177   6.603   3.552  0.1912 -0.0195  0.6126
 3344TIP3   OH231446   5.645   3.093   3.936  0.3646 -0.3520 -0.0271
 3344TIP3    H131447   5.609   3.021   3.989 -0.4631  1.1650  1.5583
 3344TIP3    H231448   5.573   3.118   3.878  0.8580 -1.1738 -1.0265
 3345TIP3   OH231449   0.214   2.611  11.805 -0.2457  0.3653 -0.5306
 3345TIP3    H131450   0.143   2.649  11.753  1.9403  1.2794 -3.0555
 3345TIP3    H231451   0.282   2.679  11.806  1.9279 -1.6672 -1.1181
 3346TIP3   OH231452   1.783   4.003  14.432 -0.1353 -0.1192  0.6499
 3346TIP3    H131453   1.801   4.088  14.471  2.9798 -0.2619 -0.1946
 3346TIP3    H231454   1.809   4.012  14.340 -1.8105 -1.4120 -0.0272
 3347TIP3   OH231455   4.877   3.947  14.178  0.3782  0.5669  0.1656
 3347TIP3    H131456   4.781   3.944  14.170  0.3978 -0.1853  0.1362
 3347TIP3    H231457   4.893   3.968  14.270  0.1838  0.1213  0.3030
 3348TIP3   OH231458   3.178   3.244   3.289 -0.1201 -0.4910  0.1136
 3348TIP3    H131459   3.222   3.219   3.208  0.6481 -0.1255  0.4132
 3348TIP3    H231460   3.245   3.288   3.341 -1.2551  1.6465 -0.1282
 3349TIP3   OH231461   3.189   2.103   0.848  0.5358 -0.1559  0.2770
 3349TIP3    H131462   3.185   2.009   0.832  0.1970 -0.0425 -0.3670
 3349TIP3    H231463   3.097   2.132   0.841  0.6083  0.1839  0.6993
 3350TIP3   OH231464   3.363   3.747  14.095 -0.1377  0.0049 -0.2562
 3350TIP3    H131465   3.325   3.804  14.162  1.6461 -0.7190  1.4776
 3350TIP3    H231466   3.318   3.664  14.106  2.7497 -1.3774  2.9295
 3351TIP3   OH231467   0.852   1.264  16.466 -0.4253 -0.1031 -0.0710
 3351TIP3    H131468   0.897   1.341  16.430  0.1320 -0.1159  0.5769
 3351TIP3    H231469   0.824   1.215  16.389 -0.2097  0.4127 -0.4882
 3352TIP3   OH231470   0.497   6.575  13.943  0.6893  0.2676 -0.1791
 3352TIP3    H131471   0.490   6.663  13.979 -0.3724  0.3458 -0.5421
 3352TIP3    H231472   0.465   6.518  14.013  3.1123 -0.0420  0.7741
 3353TIP3   OH231473   1.572   5.380  12.146  0.1738 -0.1434  0.1313
 3353TIP3    H131474   1.617   5.410  12.225  0.9957  1.0903 -0.7708
 3353TIP3    H231475   1.631   5.312  12.111 -0.1858 -0.6833  0.5511
 3354TIP3   OH231476   6.486   5.479   2.393  0.1180  0.3505 -0.3211
 3354TIP3    H131477   6.557   5.420   2.367  0.6012  0.4765  0.6461
 3354TIP3    H231478   6.420   5.422   2.433 -0.0568  0.3018 -0.6796
 3355TIP3   OH231479   3.803   3.912   5.169  0.0798 -0.0911 -0.0044
 3355TIP3    H131480   3.753   3.875   5.241 -0.3070 -0.0536 -0.2535
 3355TIP3    H231481   3.875   3.959   5.212  0.6845 -1.2658  0.3116
 3356TIP3   OH231482   5.838   2.911   0.117 -0.9708  0.1420  0.2548
 3356TIP3    H131483   5.897   2.839   0.095  0.1197  1.3853 -1.0714
 3356TIP3    H231484   5.866   2.983   0.061 -1.9919  1.6324  1.5772
 3357TIP3   OH231485   3.329   3.352  11.959  0.2741  0.3946  0.1883
 3357TIP3    H131486   3.381   3.411  12.013 -0.2279  0.2247  0.8748
 3357TIP3    H231487   3.371   3.353  11.874  0.8573  0.9659  0.4805
 3358TIP3   OH231488   5.432   5.811   4.385 -0.2514  0.6597 -0.2282
 3358TIP3    H131489   5.377   5.782   4.312 -0.5416 -1.4819  0.7616
 3358TIP3    H231490   5.370   5.828   4.456  0.1641  0.7531  0.1183
 3359TIP3   OH231491   1.114   3.350  15.656  0.3136  0.0367  0.1011
 3359TIP3    H131492   1.144   3.399  15.733  2.1862 -0.5413 -0.2155
 3359TIP3    H231493   1.095   3.417  15.590 -2.8582  0.6753  1.4607
 3360TIP3   OH231494   3.251   6.781  16.913  0.0581 -0.0862  0.0787
 3360TIP3    H131495   3.284   6.865  16.944  0.4273 -0.3060  0.2868
 3360TIP3    H231496   3.240   6.794  16.818  0.8712 -0.0425 -0.0217
 3361TIP3   OH231497   4.117   1.828  13.645 -0.2189 -0.3858  0.1113
 3361TIP3    H131498   4.198   1.810  13.596  0.0488 -1.2749  0.8477
 3361TIP3    H231499   4.114   1.759  13.711 -1.7234 -0.5210 -0.0766
 3362TIP3   OH231500   4.338   0.410   5.583 -0.0446 -0.1880  0.5204
 3362TIP3    H131501   4.315   0.350   5.654  1.0663  1.3100  2.2270
 3362TIP3    H231502   4.290   0.490   5.602  0.6485  0.3992 -0.1579
 3363TIP3   OH231503   2.306   5.203   3.059 -0.0812 -0.0589 -0.2608
 3363TIP3    H131504   2.385   5.202   3.112 -0.5961  0.6966  0.5489
 3363TIP3    H231505   2.281   5.110   3.051 -0.6082 -0.1302  1.7848
 3364TIP3   OH231506   3.318   4.230  11.914  0.1486  0.0777  0.0360
 3364TIP3    H131507   3.411   4.205  11.911  0.2809  0.1415  2.0913
 3364TIP3    H231508   3.319   4.324  11.929 -0.0736 -0.3340  3.6077
 3365TIP3   OH231509   5.406   6.239  16.176  0.8640 -0.4304  0.0713
 3365TIP3    H131510   5.323   6.239  16.128  0.5533 -0.0474  0.5881
 3365TIP3    H231511   5.426   6.332  16.189 -0.5267 -0.4341  3.0876
 3366TIP3   OH231512   5.727   5.686  10.288  0.7390  0.0671 -0.0141
 3366TIP3    H131513   5.735   5.689  10.384 -1.5017  1.7995  0.2011
 3366TIP3    H231514   5.644   5.642  10.271  2.0091 -1.9830 -1.3095
 3367TIP3   OH231515   0.116   2.120  12.169 -0.3223  0.1891  0.4116
 3367TIP3    H131516   0.072   2.147  12.088 -2.0178 -1.3566  0.7616
 3367TIP3    H231517   0.206   2.101  12.142  0.1878  3.1619 -0.3824
 3368TIP3   OH231518   1.187   4.988   4.468  0.0697 -0.2249  0.4770
 3368TIP3    H131519   1.168   4.894   4.469 -1.1935 -0.0018  0.2149
 3368TIP3    H231520   1.202   5.011   4.560  1.3244 -0.8351  0.4463
 3369TIP3   OH231521   5.442   0.452   4.277 -0.2322 -0.0605  0.0968
 3369TIP3    H131522   5.424   0.413   4.362  1.3529  2.2311  1.5769
 3369TIP3    H231523   5.418   0.384   4.214 -0.1711 -2.3516  2.3996
 3370TIP3   OH231524   4.143   2.209  12.245 -0.3367  0.0098  0.2419
 3370TIP3    H131525   4.103   2.175  12.325 -0.8773  1.7955  0.7933
 3370TIP3    H231526   4.114   2.150  12.176 -2.4366  0.1690  0.9124
 3371TIP3   OH231527   0.558   2.188   0.418 -0.0846  0.1865 -0.2621
 3371TIP3    H131528   0.462   2.181   0.425 -0.0830 -0.1840 -0.5407
 3371TIP3    H231529   0.583   2.249   0.487 -0.4931  0.0438  0.0163
 3372TIP3   OH231530   5.012   6.043   5.344  0.0917 -0.1338 -0.1274
 3372TIP3    H131531   4.934   5.993   5.321 -0.0271 -0.5051  1.0129
 3372TIP3    H231532   5.051   6.066   5.260 -1.5730  0.5955 -0.7558
 3373TIP3   OH231533   2.335   4.058   0.547  0.1389  0.9291 -0.5081
 3373TIP3    H131534   2.419   4.089   0.514  0.0491  1.4497 -0.2634
 3373TIP3    H231535   2.341   4.069   0.642  0.0646  0.2828 -0.4285
 3374TIP3   OH231536   5.766   3.269  15.958  0.0848 -0.1988 -0.3192
 3374TIP3    H131537   5.842   3.216  15.982 -0.3767 -1.1434 -0.8978
 3374TIP3    H231538   5.694   3.234  16.011 -0.2208 -0.1420 -0.6878
 3375TIP3   OH231539   0.340   6.201   4.657 -0.9164 -0.0196  0.1593
 3375TIP3    H131540   0.400   6.140   4.613 -0.9667 -1.1514  1.6080
 3375TIP3    H231541   0.379   6.287   4.641  1.5007 -0.7600  1.5780
 3376TIP3   OH231542   6.280   2.500  13.330 -0.1710 -0.1616 -0.2238
 3376TIP3    H131543   6.375   2.495  13.332 -0.1898 -2.2821 -1.8452
 3376TIP3    H231544   6.260   2.569  13.267  0.2443  0.6244  0.4780
 3377TIP3   OH231545   0.361   1.047   4.109 -0.1322 -0.2925 -0.5770
 3377TIP3    H131546   0.326   1.117   4.163  0.8408 -0.5361  0.4077
 3377TIP3    H231547   0.424   1.003   4.165 -0.3628 -1.6551 -1.3378
 3378TIP3   OH231548   6.237   5.657  14.229 -0.3393  0.0312 -0.6942
 3378TIP3    H131549   6.281   5.737  14.202 -1.9816  1.7858  1.4986
 3378TIP3    H231550   6.302   5.610  14.281 -0.5233  1.9179  1.3504
 3379TIP3   OH231551   1.133   4.590  13.583 -0.1043  0.7952 -0.0317
 3379TIP3    H131552   1.174   4.508  13.610 -3.4198 -1.0805 -0.1001
 3379TIP3    H231553   1.164   4.604  13.494  0.6384 -0.2975  0.0290
 3380TIP3   OH231554   0.657   2.015  15.144 -0.2592 -0.0914 -0.1197
 3380TIP3    H131555   0.636   1.960  15.069 -0.6954 -0.2435  0.1133
 3380TIP3    H231556   0.713   2.084  15.108 -1.8935  0.8656 -0.9328
 3381TIP3   OH231557   4.892   2.059  15.231  0.3166 -0.0236  0.5603
 3381TIP3    H131558   4.921   2.021  15.148  0.4064 -1.6437  1.2733
 3381TIP3    H231559   4.848   2.140  15.207 -0.4829 -0.9048 -1.1587
 3382TIP3   OH231560   0.070   1.890   4.762  0.4007 -0.1429 -0.0288
 3382TIP3    H131561   0.117   1.924   4.685 -0.1083 -0.1879 -0.3643
 3382TIP3    H231562   0.128   1.823   4.797  0.6389 -0.1241 -0.3778
 3383TIP3   OH231563   4.476   3.483  13.563  0.0696  0.4524  0.0917
 3383TIP3    H131564   4.486   3.558  13.622 -1.2790  1.5255 -0.9658
 3383TIP3    H231565   4.529   3.414  13.602 -0.5704  1.1852  2.4344
 3384TIP3   OH231566   3.713   5.315  11.643 -0.0002  0.0481  0.0727
 3384TIP3    H131567   3.647   5.384  11.643 -0.0130  0.0363 -0.0838
 3384TIP3    H231568   3.772   5.338  11.714 -0.1059  0.1237  0.1352
 3385TIP3   OH231569   4.736   4.911  12.324  0.0450  0.3738 -0.0470
 3385TIP3    H131570   4.808   4.969  12.349 -0.9122  1.2986  0.6468
 3385TIP3    H231571   4.702   4.948  12.243  0.9849 -0.6592 -0.9360
 3386TIP3   OH231572   4.628   0.204  13.491  0.1971 -0.1567 -0.0922
 3386TIP3    H131573   4.711   0.210  13.443  0.1707  0.8780 -0.0381
 3386TIP3    H231574   4.646   0.242  13.576 -0.4895  0.7123 -0.3126
 3387TIP3   OH231575   1.302   0.506  15.414 -0.1440  0.0265 -0.2581
 3387TIP3    H131576   1.312   0.492  15.320 -1.0952 -0.9968 -0.2308
 3387TIP3    H231577   1.366   0.448  15.454  0.0675  0.2541 -0.2635
 3388TIP3   OH231578   1.291   2.437  13.682 -0.2831  0.0773 -0.3401
 3388TIP3    H131579   1.204   2.411  13.654 -0.4343 -0.7183  0.7994
 3388TIP3    H231580   1.278   2.477  13.768  0.3370  1.1128 -0.7053
 3389TIP3   OH231581   6.744   3.416   1.692  0.4201  0.0713 -0.2582
 3389TIP3    H131582   6.714   3.452   1.608 -2.0331 -0.8377  0.1458
 3389TIP3    H231583   6.697   3.465   1.758 -0.1750 -1.3519  0.4262
 3390TIP3   OH231584   3.558   1.968   6.599 -0.1673  0.0555 -0.3590
 3390TIP3    H131585   3.630   2.025   6.626  1.4695 -1.5399 -1.0923
 3390TIP3    H231586   3.593   1.919   6.524 -1.7134 -1.3888 -0.2081
 3391TIP3   OH231587   4.059   3.372   5.793  0.5165 -0.6582 -0.0363
 3391TIP3    H131588   3.972   3.391   5.828 -0.5101 -1.4741 -1.9822
 3391TIP3    H231589   4.111   3.450   5.814 -0.6373 -0.1896  1.2311
 3392TIP3   OH231590   1.401   3.567   5.027  0.0506  0.2747 -0.3350
 3392TIP3    H131591   1.362   3.610   5.102  0.3034 -1.8001  1.0657
 3392TIP3    H231592   1.383   3.474   5.040  0.6644 -0.2100 -2.5189
 3393TIP3   OH231593   0.633   2.844   0.569 -0.5046  0.0661 -0.6894
 3393TIP3    H131594   0.669   2.789   0.499  0.5948 -0.0079 -0.0836
 3393TIP3    H231595   0.546   2.806   0.586  0.5234 -2.0271  0.2524
 3394TIP3   OH231596   1.163   0.612  12.615  0.2571  0.1886 -0.1062
 3394TIP3    H131597   1.250   0.603  12.655  0.7352 -0.9456 -1.3347
 3394TIP3    H231598   1.167   0.696  12.570  0.7904  0.0632 -0.3074
 3395TIP3   OH231599   6.462   5.944   4.615  0.5152 -0.6651 -0.2667
 3395TIP3    H131600   6.538   5.896   4.650  1.8994  0.5792 -1.3972
 3395TIP3    H231601   6.431   5.997   4.688  3.4798  2.0544 -0.7260
 3396TIP3   OH231602   4.215   2.772  17.021  0.1881  0.2426  0.0187
 3396TIP3    H131603   4.210   2.853  17.071 -0.2480  0.3955 -0.2658
 3396TIP3    H231604   4.210   2.799  16.930  0.6620 -0.0594 -0.1019
 3397TIP3   OH231605   0.595   0.876  11.566  0.4521 -0.2320 -0.1718
 3397TIP3    H131606   0.673   0.927  11.546 -0.7830  1.9530  0.1855
 3397TIP3    H231607   0.596   0.867  11.662  0.9286 -1.3987 -0.2679
 3398TIP3   OH231608   6.706   4.950  16.531  0.5155 -0.1009  0.2536
 3398TIP3    H131609   6.664   5.023  16.577  1.1354 -0.3004  1.1678
 3398TIP3    H231610   6.660   4.873  16.563  0.7402 -0.2164  0.2952
 3399TIP3   OH231611   2.753   2.593   1.645 -0.0786 -0.0433 -0.2135
 3399TIP3    H131612   2.788   2.678   1.619  1.4588 -0.4214  0.4612
 3399TIP3    H231613   2.659   2.599   1.630  0.3991  0.4884 -3.6830
 3400TIP3   OH231614   1.824   4.010   4.339  0.0589 -0.0542  0.3906
 3400TIP3    H131615   1.831   3.954   4.262 -0.6873  0.2350  0.1048
 3400TIP3    H231616   1.757   3.968   4.393 -0.5835  0.6102  0.1248
 3401TIP3   OH231617   5.695   3.919  10.512 -0.2863 -0.2979 -0.1723
 3401TIP3    H131618   5.781   3.907  10.472 -0.0694 -0.7830  0.4222
 3401TIP3    H231619   5.708   3.987  10.578 -0.7763  0.9338 -1.2950
 3402TIP3   OH231620   2.175   6.515   0.148  0.4828  0.6518 -0.4458
 3402TIP3    H131621   2.126   6.564   0.083  1.4047  0.4063 -1.3494
 3402TIP3    H231622   2.146   6.424   0.138 -0.7651  0.8676  0.8059
 3403TIP3   OH231623   5.634   2.428   2.780  0.0377 -0.0949 -0.3874
 3403TIP3    H131624   5.607   2.476   2.858 -0.0402 -0.4809 -0.1763
 3403TIP3    H231625   5.635   2.336   2.807  2.2609 -0.0563 -0.1723
 3404TIP3   OH231626   0.636   3.270  14.619  0.1267  0.1444 -0.3182
 3404TIP3    H131627   0.580   3.220  14.560 -1.2997  0.8540  0.3827
 3404TIP3    H231628   0.700   3.207  14.652 -0.7373 -0.8732 -0.5498
 3405TIP3   OH231629   4.865   2.680  13.424  0.3723 -0.0870  0.1202
 3405TIP3    H131630   4.949   2.724  13.411  0.6883  0.0392  2.2405
 3405TIP3    H231631   4.818   2.737  13.485 -1.3641 -0.0744 -1.1385
 3406TIP3   OH231632   5.629   5.923   2.757 -0.3112 -0.3066  0.4384
 3406TIP3    H131633   5.672   5.840   2.778 -0.6647 -0.8518 -0.8701
 3406TIP3    H231634   5.537   5.908   2.778 -0.7575 -1.0292 -1.7720
 3407TIP3   OH231635   0.351   5.925  12.201 -0.3477  0.8998  0.2483
 3407TIP3    H131636   0.416   5.947  12.134 -2.8914 -0.1231 -2.7405
 3407TIP3    H231637   0.346   6.003  12.255  2.4067  1.4631 -0.1237
 3408TIP3   OH231638   4.903   5.802   3.743 -0.5194  0.2075 -0.2156
 3408TIP3    H131639   4.932   5.712   3.758  1.0614  0.3029 -2.2305
 3408TIP3    H231640   4.984   5.854   3.750 -1.0106  1.1592 -1.3653
 3409TIP3   OH231641   3.981   6.505   4.082 -0.0392 -0.2495 -0.0635
 3409TIP3    H131642   4.041   6.436   4.051  0.7311  0.2840  0.2029
 3409TIP3    H231643   4.031   6.586   4.070 -0.2106  0.0889  1.3861
 3410TIP3   OH231644   2.827   4.213  14.370  0.1032  0.0221 -0.5500
 3410TIP3    H131645   2.874   4.244  14.447 -0.5973  1.8847 -0.8261
 3410TIP3    H231646   2.868   4.129  14.349  0.4087 -0.4452  1.7284
 3411TIP3   OH231647   2.341   5.669  16.928 -0.4154  0.5265 -0.1362
 3411TIP3    H131648   2.394   5.736  16.972  0.2355  1.2407 -1.9073
 3411TIP3    H231649   2.395   5.642  16.854 -1.3279 -0.8719 -0.3079
 3412TIP3   OH231650   0.283   6.304   2.694  0.1816 -0.9684  0.7693
 3412TIP3    H131651   0.312   6.295   2.603 -0.8667 -1.0999  0.4357
 3412TIP3    H231652   0.189   6.289   2.691 -0.2038  0.9209  1.5880
 3413TIP3   OH231653   1.498   4.245   3.438 -0.1047  0.0783 -0.0940
 3413TIP3    H131654   1.566   4.225   3.373 -0.2926 -0.5561 -0.0993
 3413TIP3    H231655   1.542   4.300   3.502 -0.2605  1.8788 -1.4552
 3414TIP3   OH231656   1.057   0.996   1.406  0.3149 -0.1767 -0.9829
 3414TIP3    H131657   0.969   0.976   1.374  0.3133  0.3038 -1.3040
 3414TIP3    H231658   1.093   0.912   1.432  0.5824 -0.7276 -2.9504
 3415TIP3   OH231659   1.274   2.780   2.052 -0.0401  0.5845  0.2108
 3415TIP3    H131660   1.218   2.830   1.993  0.7132 -0.8566 -1.8463
 3415TIP3    H231661   1.362   2.789   2.015  0.4067 -0.6622  0.8987
 3416TIP3   OH231662   2.646   0.406   2.991  0.9459 -0.3465  0.0601
 3416TIP3    H131663   2.697   0.427   2.913  1.0652 -1.4743 -0.1748
 3416TIP3    H231664   2.565   0.367   2.957 -0.7780  2.6145  0.3456
 3417TIP3   OH231665   2.402   4.886   0.228  0.0088 -0.1242 -0.0995
 3417TIP3    H131666   2.482   4.902   0.277 -0.3789  0.6474  0.2946
 3417TIP3    H231667   2.372   4.800   0.257  0.5916 -0.3341 -0.1159
 3418TIP3   OH231668   1.857   6.620   4.838  0.4246 -0.0043  0.7706
 3418TIP3    H131669   1.807   6.699   4.855 -1.3714 -0.4258 -1.8656
 3418TIP3    H231670   1.804   6.549   4.874  1.3218 -0.1683  1.8331
 3419TIP3   OH231671   2.352   6.353  16.670  0.5101 -0.2892  0.4333
 3419TIP3    H131672   2.334   6.425  16.609 -0.6476 -0.2945  0.7625
 3419TIP3    H231673   2.429   6.383  16.719 -0.2195  0.9458  0.8865
 3420TIP3   OH231674   3.556   0.316  16.733  0.6510  0.4638 -0.2893
 3420TIP3    H131675   3.543   0.368  16.813 -2.3608  0.2520 -0.5284
 3420TIP3    H231676   3.532   0.227  16.758 -0.2913  0.3856 -1.3546
 3421TIP3   OH231677   0.326   4.829  15.091  0.6442 -0.4972  0.1036
 3421TIP3    H131678   0.302   4.792  15.006  0.5682  0.2954 -0.2313
 3421TIP3    H231679   0.380   4.906  15.069 -1.0863  0.9546  0.6903
 3422TIP3   OH231680   2.409   1.104   0.848 -0.1321 -0.1194 -0.6094
 3422TIP3    H131681   2.376   1.056   0.924 -0.3430 -0.3022 -0.8159
 3422TIP3    H231682   2.331   1.133   0.801 -0.0120 -0.6441 -1.1534
 3423TIP3   OH231683   0.495   1.611   6.319  0.3651 -0.9406 -0.2210
 3423TIP3    H131684   0.433   1.642   6.254  0.3882  0.7068  0.5119
 3423TIP3    H231685   0.566   1.572   6.267 -0.1666 -0.7331 -1.1252
 3424TIP3   OH231686   6.572   1.846   5.914  0.1717  0.0837 -0.5225
 3424TIP3    H131687   6.559   1.860   6.008 -0.7526 -0.1320 -0.6077
 3424TIP3    H231688   6.573   1.934   5.877 -1.1285  0.1346 -0.5008
 3425TIP3   OH231689   1.850   6.708  14.828 -0.4604  0.2779 -0.2580
 3425TIP3    H131690   1.852   6.678  14.919  1.0702  2.8149  0.6497
 3425TIP3    H231691   1.941   6.733  14.809 -1.0130  1.1319 -2.0058
 3426TIP3   OH231692   0.046   4.469   2.749 -0.4799  0.6069 -0.4700
 3426TIP3    H131693  -0.037   4.442   2.789  0.6035 -1.5872  0.5219
 3426TIP3    H231694   0.048   4.424   2.665 -0.0655  0.1494 -0.2241
 3427TIP3   OH231695   3.554   4.048   5.950 -0.2221 -0.2569 -0.2085
 3427TIP3    H131696   3.548   4.001   6.033 -2.0392 -1.2068 -0.8266
 3427TIP3    H231697   3.534   4.139   5.972 -0.6369 -0.4910  0.4047
 3428TIP3   OH231698   2.018   2.625   2.231  0.7300 -0.4373  0.2409
 3428TIP3    H131699   1.971   2.586   2.304  0.5858  1.2421  1.0900
 3428TIP3    H231700   2.080   2.686   2.271  0.5577  0.6238 -1.0269
 3429TIP3   OH231701   3.745   5.273  14.925 -0.3956  0.2322  0.0403
 3429TIP3    H131702   3.659   5.306  14.951 -0.0744  0.7143  0.5125
 3429TIP3    H231703   3.758   5.195  14.978 -1.4131 -1.0629 -1.4982
 3430TIP3   OH231704   2.070   3.530   5.512 -0.0565 -0.5086  0.1707
 3430TIP3    H131705   2.061   3.478   5.432  1.9352 -1.1403  0.2929
 3430TIP3    H231706   2.139   3.593   5.491 -1.6333  1.3761  0.4227
 3431TIP3   OH231707   5.332   3.911  15.046  0.5757  0.1701 -0.0432
 3431TIP3    H131708   5.281   3.990  15.032  0.9793  0.4484  0.0479
 3431TIP3    H231709   5.271   3.839  15.026 -0.0471  0.4816  0.7157
 3432TIP3   OH231710   5.064   2.780   5.417  1.0503  0.1769  0.2893
 3432TIP3    H131711   5.081   2.861   5.465 -1.3813  0.4148  0.9219
 3432TIP3    H231712   5.076   2.804   5.325 -1.9314  2.0904  0.2285
 3433TIP3   OH231713   4.202   1.144  15.689  0.5131  0.0037  0.1188
 3433TIP3    H131714   4.277   1.120  15.634  0.8942  0.9320  0.2264
 3433TIP3    H231715   4.212   1.091  15.768  0.4133 -0.7312 -0.3516
 3434TIP3   OH231716   0.369   4.958   2.045  0.3932 -0.1350 -0.1834
 3434TIP3    H131717   0.360   4.870   2.082  1.3932  0.3894  1.3921
 3434TIP3    H231718   0.325   5.016   2.107  2.2520  0.7862  0.3533
 3435TIP3   OH231719   4.340   4.909  16.840 -0.1036 -0.0614 -0.6645
 3435TIP3    H131720   4.320   4.989  16.889  0.6851 -0.2013 -0.0788
 3435TIP3    H231721   4.292   4.841  16.886  1.8380 -0.4464  0.9241
 3436TIP3   OH231722   0.412   3.839  14.286  0.1898  0.0899 -0.0270
 3436TIP3    H131723   0.350   3.891  14.337 -0.8418  1.4204 -2.4316
 3436TIP3    H231724   0.360   3.802  14.215  1.8085 -0.2625 -1.0973
 3437TIP3   OH231725   0.691   5.477  12.402 -0.0564 -0.2394 -0.4936
 3437TIP3    H131726   0.655   5.491  12.490  1.4485 -1.2137  0.3352
 3437TIP3    H231727   0.733   5.561  12.380 -0.2140 -0.0689 -0.1566
 3438TIP3   OH231728   2.617   0.854  14.574 -0.3039  0.5080  0.0443
 3438TIP3    H131729   2.567   0.933  14.595  0.0547  1.0949 -1.2490
 3438TIP3    H231730   2.707   0.884  14.566  0.0074 -0.2388  0.6150
 3439TIP3   OH231731   5.909   6.648  16.453 -0.7246 -0.0277 -0.1600
 3439TIP3    H131732   5.973   6.698  16.504 -1.6449  1.3969 -0.3597
 3439TIP3    H231733   5.824   6.675  16.486 -1.2863 -0.6432 -1.0415
 3440TIP3   OH231734   4.208   3.220  11.726  0.1426 -0.3701 -0.2988
 3440TIP3    H131735   4.206   3.131  11.690  0.3421 -0.6973  0.4815
 3440TIP3    H231736   4.231   3.208  11.818 -0.4023  0.4476 -0.0468
 3441TIP3   OH231737   3.246   6.076  11.938  0.3605  0.2503 -0.8473
 3441TIP3    H131738   3.218   6.167  11.948  1.3161  0.6202 -1.4016
 3441TIP3    H231739   3.307   6.078  11.864  0.8269 -0.7411 -0.4983
 3442TIP3   OH231740   0.825   3.539   3.359 -0.6946 -0.4109  0.0462
 3442TIP3    H131741   0.824   3.626   3.318 -1.0098 -0.6637 -0.4867
 3442TIP3    H231742   0.856   3.556   3.448 -1.8001  0.4050  0.3010
 3443TIP3   OH231743   4.133   1.025   1.797  0.8753 -0.3665 -0.2489
 3443TIP3    H131744   4.079   1.092   1.839 -1.8388 -2.5752  0.0713
 3443TIP3    H231745   4.185   0.988   1.868  0.6155 -0.1891  0.0339
 3444TIP3   OH231746   2.359   3.961   6.417  0.0293  0.0261 -0.5869
 3444TIP3    H131747   2.404   3.879   6.436 -0.8333 -1.0851 -3.0039
 3444TIP3    H231748   2.279   3.957   6.469  0.5984 -0.0130  0.3188
 3445TIP3   OH231749   5.035   4.796  16.233  0.4936 -0.1311 -0.0064
 3445TIP3    H131750   5.128   4.798  16.256  0.7289  1.5882 -0.9736
 3445TIP3    H231751   5.031   4.739  16.156  0.7835 -0.0210 -0.1063
 3446TIP3   OH231752   0.248   6.544   5.510 -0.3311  0.3062  0.2168
 3446TIP3    H131753   0.329   6.582   5.475  0.2045 -1.2180 -0.2707
 3446TIP3    H231754   0.203   6.618   5.550  0.7205  1.4283 -0.5813
 3447TIP3   OH231755   4.267   2.788   0.946 -0.4551 -0.1933  0.4588
 3447TIP3    H131756   4.190   2.815   0.996 -0.3573  0.2735  0.3618
 3447TIP3    H231757   4.279   2.696   0.969 -1.8785 -0.6694 -0.6127
 3448TIP3   OH231758   6.217   3.730   4.694  0.0915 -0.3018  0.3266
 3448TIP3    H131759   6.136   3.686   4.718 -1.0472  1.6858  0.3500
 3448TIP3    H231760   6.207   3.753   4.602 -0.3404  1.7737  0.8245
 3449TIP3   OH231761   2.322   1.701   5.581  0.0527 -0.1291  0.3538
 3449TIP3    H131762   2.375   1.621   5.584  1.2162  0.6480  1.4738
 3449TIP3    H231763   2.314   1.720   5.487  3.0885  0.5439  0.1169
 3450TIP3   OH231764   0.380   6.447   3.467  0.1053 -0.1792  0.1367
 3450TIP3    H131765   0.394   6.491   3.383  0.6689  1.0928  0.8808
 3450TIP3    H231766   0.390   6.354   3.447 -2.1696 -0.1233 -1.6765
 3451TIP3   OH231767   1.449   2.055  15.411 -0.2796  0.2334  0.1008
 3451TIP3    H131768   1.509   2.048  15.337 -1.0727  1.5783 -0.7182
 3451TIP3    H231769   1.362   2.051  15.372 -0.7495 -1.2413  1.2185
 3452TIP3   OH231770   2.068   3.934  14.775  0.1806  0.1553 -0.7447
 3452TIP3    H131771   2.148   3.881  14.770  1.1651  1.3462  1.0621
 3452TIP3    H231772   2.055   3.967  14.687 -0.2929 -2.7565 -1.8808
 3453TIP3   OH231773   2.719   1.076  11.357 -0.4794 -0.2953  0.0603
 3453TIP3    H131774   2.697   1.035  11.441 -0.7484 -0.1884  0.0446
 3453TIP3    H231775   2.809   1.050  11.340 -0.2372  0.1300  0.6493
 3454TIP3   OH231776   2.030   0.434  13.752  0.1013 -0.2833 -0.2831
 3454TIP3    H131777   2.085   0.437  13.830  0.6451  0.9372 -0.6875
 3454TIP3    H231778   1.940   0.438  13.785  0.3212  0.0285  0.2763
 3455TIP3   OH231779   4.620   6.822   1.070  0.6348 -0.0395  0.6838
 3455TIP3    H131780   4.596   6.911   1.045 -0.5510 -0.3571  0.6492
 3455TIP3    H231781   4.693   6.799   1.012 -0.9719 -0.1486 -1.3818
 3456TIP3   OH231782   5.912   5.261  13.607  0.3351 -0.3414  0.1865
 3456TIP3    H131783   5.916   5.247  13.701  0.9192 -0.2600  0.1819
 3456TIP3    H231784   5.831   5.219  13.579  0.2506 -0.5219  0.6954
 3457TIP3   OH231785   0.114   4.849   2.639  0.2912 -0.1626 -0.1175
 3457TIP3    H131786   0.108   4.811   2.726 -0.4022  0.8236  0.2938
 3457TIP3    H231787   0.120   4.944   2.655  0.7428 -0.0115 -1.1220
 3458TIP3   OH231788   4.826   0.123  12.777  0.3469  0.4095  0.5009
 3458TIP3    H131789   4.801   0.197  12.722 -0.2618 -0.3053 -0.2245
 3458TIP3    H231790   4.758   0.057  12.760  0.2502  0.0843  1.9624
 3459TIP3   OH231791   5.394   1.117   1.611  0.5401 -0.4967 -0.1795
 3459TIP3    H131792   5.329   1.177   1.574  0.5106  0.1538  0.9117
 3459TIP3    H231793   5.478   1.151   1.582  0.4418 -1.1541 -1.3209
 3460TIP3   OH231794   1.596   6.079  16.478  0.1507  0.6363  0.2462
 3460TIP3    H131795   1.685   6.092  16.510 -0.3191  2.4833  0.9075
 3460TIP3    H231796   1.590   6.133  16.400  0.1280 -0.9115 -0.8773
 3461TIP3   OH231797   3.759   4.576  11.869  0.7041 -0.1762  0.5689
 3461TIP3    H131798   3.816   4.546  11.799 -0.6300 -0.6500 -0.3574
 3461TIP3    H231799   3.801   4.546  11.949  1.8836 -0.2587 -0.0643
 3462TIP3   OH231800   2.947   0.207  11.330 -0.0853  0.0680 -0.0085
 3462TIP3    H131801   2.871   0.262  11.352 -0.0148  1.3221 -2.5910
 3462TIP3    H231802   2.998   0.260  11.269  0.3267 -2.6122 -2.1791
 3463TIP3   OH231803   5.360   2.522  11.476 -0.2924 -0.8543 -0.1346
 3463TIP3    H131804   5.343   2.556  11.388 -1.4449 -0.1878  0.3187
 3463TIP3    H231805   5.309   2.579  11.534  1.6543 -0.3034  1.1377
 3464TIP3   OH231806   6.413   3.351  11.334 -0.1685  0.6456 -0.4136
 3464TIP3    H131807   6.339   3.379  11.388 -1.0537  0.8210 -1.6832
 3464TIP3    H231808   6.476   3.424  11.340  0.2826  0.1538  1.3010
 3465TIP3   OH231809   0.294   3.071  13.086 -0.1659 -0.0994 -0.5557
 3465TIP3    H131810   0.350   3.087  13.162  0.6761  2.3370 -1.5924
 3465TIP3    H231811   0.231   3.005  13.117  0.3451  0.5272  2.1310
 3466TIP3   OH231812   4.176   4.987  16.611  0.7104  0.0851  0.4377
 3466TIP3    H131813   4.182   4.936  16.692 -1.4592 -0.3852  0.3534
 3466TIP3    H231814   4.154   4.923  16.544 -1.3271  0.9679  0.2011
 3467TIP3   OH231815   4.917   1.096   0.236  0.0360  0.3875  0.4687
 3467TIP3    H131816   5.010   1.091   0.213  0.0474  0.3191  0.5292
 3467TIP3    H231817   4.913   1.069   0.328 -0.0108  0.6756  0.5506
 3468TIP3   OH231818   6.560   1.244  12.437 -0.2155 -0.2163  0.0530
 3468TIP3    H131819   6.539   1.223  12.346 -0.5938 -0.3379  0.1647
 3468TIP3    H231820   6.641   1.294  12.432 -1.4119  1.7910 -0.5619
 3469TIP3   OH231821   5.677   3.797  11.550  0.3244 -0.3051 -0.3422
 3469TIP3    H131822   5.740   3.741  11.597 -0.7948 -1.3560 -0.0473
 3469TIP3    H231823   5.633   3.737  11.489 -0.4913  0.3813 -0.4392
 3470TIP3   OH231824   3.205   5.949  13.281 -0.3756 -0.2380  0.7746
 3470TIP3    H131825   3.227   5.887  13.351  0.8683  1.0499  1.5595
 3470TIP3    H231826   3.126   5.993  13.312 -0.6220 -0.6342  0.7195
 3471TIP3   OH231827   6.204   1.158   4.525 -0.1131  0.3114 -0.4730
 3471TIP3    H131828   6.294   1.187   4.509 -0.6563  1.7354 -1.1174
 3471TIP3    H231829   6.180   1.201   4.607  0.7100 -2.3633  1.3030
 3472TIP3   OH231830   3.732   3.494   0.350 -0.3183  0.5494 -0.2801
 3472TIP3    H131831   3.777   3.493   0.266  1.0096  0.4230  0.3858
 3472TIP3    H231832   3.773   3.423   0.399 -2.4336 -0.6586 -0.1871
 3473TIP3   OH231833   4.481   1.340   2.242  0.2648  0.2750 -0.5501
 3473TIP3    H131834   4.453   1.339   2.150  0.5471 -2.0339 -0.6667
 3473TIP3    H231835   4.576   1.346   2.238  0.3090 -0.3402 -0.4277
 3474TIP3   OH231836   1.167   2.326  15.500  0.6221 -0.1600  0.3338
 3474TIP3    H131837   1.169   2.421  15.509  0.5779  0.0348 -1.4474
 3474TIP3    H231838   1.228   2.294  15.567  1.7400  1.2068  0.0059
 3475TIP3   OH231839   3.493   5.416   5.345  0.1629  0.1518 -0.2616
 3475TIP3    H131840   3.502   5.466   5.426  0.5036 -0.2259 -0.0613
 3475TIP3    H231841   3.558   5.455   5.286  0.8361 -0.4154  0.0854
 3476TIP3   OH231842   3.465   1.288  16.492 -0.0821  0.0715  0.2185
 3476TIP3    H131843   3.483   1.351  16.562  1.5485 -0.4264  0.2913
 3476TIP3    H231844   3.512   1.209  16.518 -0.9574 -0.7337 -0.5630
 3477TIP3   OH231845   1.739   1.419  12.093 -0.0034  0.1416  0.1796
 3477TIP3    H131846   1.795   1.408  12.016 -0.5735 -1.3560 -0.0645
 3477TIP3    H231847   1.738   1.513  12.109  0.1909  0.4860 -1.6151
 3478TIP3   OH231848   4.007   4.459  14.388  0.0736  0.1714 -0.3815
 3478TIP3    H131849   3.982   4.523  14.322 -0.6475  0.3524  0.0566
 3478TIP3    H231850   4.000   4.506  14.471  2.8498  0.5415 -0.2603
 3479TIP3   OH231851   2.902   0.462  11.976 -0.7276 -0.4525  0.0863
 3479TIP3    H131852   2.824   0.414  12.006 -0.1656 -1.4226  0.0231
 3479TIP3    H231853   2.868   0.548  11.948 -1.5482 -0.2695  1.5471
 3480TIP3   OH231854   6.588   5.140  10.909 -0.5134  0.1612  0.0616
 3480TIP3    H131855   6.536   5.118  10.987  1.3635 -2.6368  0.6822
 3480TIP3    H231856   6.524   5.139  10.837 -2.0602  1.5458  1.3205
 3481TIP3   OH231857   3.984   5.319  16.088  0.3585  0.1990  0.3920
 3481TIP3    H131858   4.037   5.385  16.044 -0.4122  0.3441 -0.3564
 3481TIP3    H231859   4.045   5.272  16.145  0.9880  1.2991  0.6418
 3482TIP3   OH231860   5.225   0.797   0.346 -0.2261 -0.5568  0.0579
 3482TIP3    H131861   5.221   0.702   0.355  0.8755 -0.5887  0.4031
 3482TIP3    H231862   5.216   0.830   0.435 -1.2332 -0.3003 -0.1309
 3483TIP3   OH231863   2.694   0.797   3.782  0.1018  0.1134 -0.4719
 3483TIP3    H131864   2.726   0.883   3.755 -2.1691  1.3159  0.4093
 3483TIP3    H231865   2.701   0.797   3.877  0.4050 -0.8527 -0.4762
 3484TIP3   OH231866   0.578   3.071  13.982 -0.0139  0.2112  0.5120
 3484TIP3    H131867   0.669   3.099  13.986 -0.5343  2.3021 -0.7002
 3484TIP3    H231868   0.574   3.011  13.907  0.2899  0.5413  0.2264
 3485TIP3   OH231869   2.186   5.995   1.471  0.1441  0.1252  0.4331
 3485TIP3    H131870   2.247   5.981   1.399  0.1214  0.7633  0.2857
 3485TIP3    H231871   2.123   6.059   1.438  1.3981  2.1190  1.7374
 3486TIP3   OH231872   6.179   3.960   0.064 -0.2205 -0.1016 -0.2163
 3486TIP3    H131873   6.218   3.875   0.043  0.2543  0.3274 -1.0848
 3486TIP3    H231874   6.171   3.959   0.160 -1.1510 -1.5249 -0.2822
 3487TIP3   OH231875   2.414   5.756   4.438 -0.6080  0.1832 -0.8053
 3487TIP3    H131876   2.448   5.675   4.476 -1.0003 -0.4762 -1.8235
 3487TIP3    H231877   2.405   5.816   4.512  1.3993 -0.0880 -0.2776
 3488TIP3   OH231878   2.619   2.646   0.153  0.5274  0.1744 -0.6676
 3488TIP3    H131879   2.636   2.554   0.134 -1.2889 -0.3300 -0.0711
 3488TIP3    H231880   2.674   2.666   0.228  0.8278 -0.4633 -0.7074
 3489TIP3   OH231881   2.686   2.041  11.900 -0.4113  0.4648 -0.7118
 3489TIP3    H131882   2.768   2.087  11.885 -1.1269  2.0523  0.0095
 3489TIP3    H231883   2.618   2.107  11.885 -1.4623 -0.2059  0.8363
 3490TIP3   OH231884   5.258   3.789  11.177  0.1518  0.7496 -0.7939
 3490TIP3    H131885   5.190   3.722  11.178 -0.6230  1.5115 -0.0340
 3490TIP3    H231886   5.337   3.744  11.148  0.5280 -1.3540  2.8717
 3491TIP3   OH231887   4.615   4.503  13.852 -0.1930 -0.1495 -0.4470
 3491TIP3    H131888   4.649   4.466  13.933  2.1452  2.6576  0.0217
 3491TIP3    H231889   4.645   4.443  13.784  2.7721  0.2802  0.3246
 3492TIP3   OH231890   1.858   1.071  15.593 -0.4113  0.2100 -0.2893
 3492TIP3    H131891   1.880   1.163  15.585 -1.1490  0.4056 -0.1822
 3492TIP3    H231892   1.937   1.029  15.626 -1.2270  1.4934  3.9094
 3493TIP3   OH231893   3.371   6.653  13.433  0.5863  0.2665 -0.1483
 3493TIP3    H131894   3.434   6.725  13.440  0.9493  0.2565 -2.4906
 3493TIP3    H231895   3.338   6.658  13.343 -0.0006 -2.0042 -0.1288
 3494TIP3   OH231896   4.029   1.373   0.787 -0.0019  0.1042 -0.0896
 3494TIP3    H131897   3.999   1.344   0.701 -0.1347  1.2410 -0.4436
 3494TIP3    H231898   4.090   1.306   0.816  0.9839  0.3236 -1.6058
 3495TIP3   OH231899   4.426   6.415   5.935  0.2491  0.0460 -0.1861
 3495TIP3    H131900   4.395   6.355   6.002  0.1897 -0.6842 -0.8492
 3495TIP3    H231901   4.422   6.364   5.854  0.9791  0.6827 -0.6371
 3496TIP3   OH231902   1.438   0.378  16.369  0.2077 -0.9113 -0.5193
 3496TIP3    H131903   1.492   0.354  16.293  1.1004 -0.1168 -0.1461
 3496TIP3    H231904   1.348   0.362  16.340  0.5438 -0.7238 -1.7112
 3497TIP3   OH231905   3.889   0.526   1.384  0.3791  0.2590  0.3922
 3497TIP3    H131906   3.973   0.570   1.368  0.6729 -0.8041 -1.2210
 3497TIP3    H231907   3.824   0.588   1.350  0.6080  0.4914  0.3689
 3498TIP3   OH231908   3.940   3.244  16.441 -0.5943 -0.2491  0.4227
 3498TIP3    H131909   4.034   3.255  16.455 -0.4514 -1.5208  0.5964
 3498TIP3    H231910   3.922   3.286  16.357  0.3546 -1.0368 -0.1870
 3499TIP3   OH231911   4.668   2.645  16.956 -0.2669 -0.2033  0.3575
 3499TIP3    H131912   4.735   2.602  16.903 -0.9139 -0.6753 -0.0880
 3499TIP3    H231913   4.586   2.602  16.932 -0.6429 -0.1211  1.4099
 3500TIP3   OH231914   5.330   4.145   3.875  0.1947 -0.0177 -0.4392
 3500TIP3    H131915   5.361   4.193   3.798  0.5248  0.8202  0.1918
 3500TIP3    H231916   5.308   4.058   3.843  2.6764 -0.4884 -1.0218
 3501TIP3   OH231917   4.836   1.206   1.565 -0.0266  0.0223 -0.5128
 3501TIP3    H131918   4.848   1.211   1.470  0.5411  1.6748 -0.4011
 3501TIP3    H231919   4.920   1.175   1.599  0.9646  2.6091 -0.3749
 3502TIP3   OH231920   3.177   6.154   3.673 -0.3568 -0.0347 -0.0714
 3502TIP3    H131921   3.120   6.081   3.699 -1.1340  1.7127  3.8365
 3502TIP3    H231922   3.120   6.212   3.623 -1.3427  0.3853  1.4660
 3503TIP3   OH231923   3.879   0.763  10.470  0.2523  0.1607 -0.5688
 3503TIP3    H131924   3.896   0.674  10.501  1.2007  0.3616 -0.4852
 3503TIP3    H231925   3.825   0.751  10.393 -1.7956 -0.3753  0.8655
 3504TIP3   OH231926   0.746   0.234   0.877 -0.3135  0.4982 -0.3500
 3504TIP3    H131927   0.686   0.306   0.863 -0.3742  0.4335 -0.4228
 3504TIP3    H231928   0.769   0.239   0.970 -0.5879  0.4000 -0.2774
 3505TIP3   OH231929   4.150   6.021   1.405 -0.1136 -0.2592  0.2648
 3505TIP3    H131930   4.198   6.083   1.460  1.2456 -0.5925 -0.5122
 3505TIP3    H231931   4.215   5.958   1.376 -1.1439 -1.0864 -0.3400
 3506TIP3   OH231932   4.684   3.798   4.226 -0.1009 -0.1663 -0.7137
 3506TIP3    H131933   4.700   3.739   4.300  0.5224  0.1817 -0.5600
 3506TIP3    H231934   4.634   3.746   4.163 -0.3876 -0.5551 -0.1737
 3507TIP3   OH231935   4.775   5.926  12.753  0.5938  0.6097 -0.3694
 3507TIP3    H131936   4.843   5.887  12.699  1.6041 -0.2066  1.3900
 3507TIP3    H231937   4.695   5.917  12.702  1.3078 -1.1559 -1.2514
 3508TIP3   OH231938   1.605   2.195  14.243  0.0011  0.0009 -0.8096
 3508TIP3    H131939   1.627   2.134  14.173 -1.7070 -0.7647 -0.7368
 3508TIP3    H231940   1.583   2.138  14.317  1.2763  0.7904  0.2210
 3509TIP3   OH231941   4.055   4.007   5.337 -0.1592 -0.2287  0.4079
 3509TIP3    H131942   4.010   4.089   5.321 -1.7915 -1.4740 -1.8914
 3509TIP3    H231943   4.115   3.997   5.263  2.9731  0.6089  2.5808
 3510TIP3   OH231944   6.397   2.774   2.977 -0.5016  0.9106 -0.1048
 3510TIP3    H131945   6.303   2.775   2.958 -0.5043  2.6962 -0.1682
 3510TIP3    H231946   6.423   2.684   2.962 -2.0062  0.5929 -1.0686
 3511TIP3   OH231947   5.315   2.364   0.098 -0.0834 -0.1154  0.2796
 3511TIP3    H131948   5.398   2.320   0.114 -0.9089 -1.4132  1.1780
 3511TIP3    H231949   5.316   2.439   0.157  1.6371  1.5884 -1.7607
 3512TIP3   OH231950   4.381   5.191   2.238 -0.1980 -0.2393 -0.4199
 3512TIP3    H131951   4.298   5.144   2.246 -1.6451  1.9827 -1.3716
 3512TIP3    H231952   4.433   5.162   2.314 -2.1175 -1.1426  0.6170
 3513TIP3   OH231953   1.290   3.848  11.815 -0.2022 -0.4506  0.2644
 3513TIP3    H131954   1.249   3.898  11.744  0.2027 -0.4836  0.0067
 3513TIP3    H231955   1.382   3.843  11.792  0.2812  1.0823  1.6937
 3514TIP3   OH231956   6.475   2.549   4.633  0.2579  0.2544 -0.1658
 3514TIP3    H131957   6.406   2.486   4.614  1.8494 -0.9120 -2.5480
 3514TIP3    H231958   6.454   2.625   4.578 -1.0039  1.4341  1.8142
 3515TIP3   OH231959   4.978   2.434  15.418 -0.0726 -0.3274 -0.4263
 3515TIP3    H131960   5.011   2.346  15.399 -0.1359 -0.1482 -1.4443
 3515TIP3    H231961   5.027   2.491  15.359  1.2006  0.5734  1.4268
 3516TIP3   OH231962   3.227   5.102   4.799 -0.2019  0.1490  0.6301
 3516TIP3    H131963   3.199   5.184   4.839  0.4110  0.0818  1.2105
 3516TIP3    H231964   3.310   5.082   4.841 -0.9099 -1.3928  1.3752
 3517TIP3   OH231965   1.295   3.952  14.687 -0.0773 -0.1051 -0.0163
 3517TIP3    H131966   1.311   3.858  14.701  0.0154  0.0974  1.3419
 3517TIP3    H231967   1.376   3.995  14.714 -0.4348  0.4348  0.2116
 3518TIP3   OH231968   6.214   6.692   6.396 -0.0107 -0.3377 -0.1483
 3518TIP3    H131969   6.138   6.694   6.337 -1.9162 -0.4256  2.1270
 3518TIP3    H231970   6.248   6.781   6.394  0.2164 -0.4332 -1.6372
 3519TIP3   OH231971   5.625   5.516   1.121 -0.1891 -0.0297  0.3913
 3519TIP3    H131972   5.578   5.585   1.169  1.2595  1.2300  0.0450
 3519TIP3    H231973   5.578   5.509   1.038 -0.0473  0.9149  0.2207
 3520TIP3   OH231974   5.090   6.280  13.432 -0.1079 -0.2701  0.1552
 3520TIP3    H131975   4.995   6.285  13.423 -0.0820 -0.3575 -0.1503
 3520TIP3    H231976   5.105   6.212  13.498 -0.3155  0.8145  1.3701
 3521TIP3   OH231977   3.614   3.626  14.158  0.2231  0.2563  0.3425
 3521TIP3    H131978   3.669   3.664  14.089 -0.5174 -1.4019 -1.2573
 3521TIP3    H231979   3.532   3.676  14.154 -0.1776 -0.4472 -0.6941
 3522TIP3   OH231980   3.891   4.260  14.274 -0.9969  0.4147 -0.0691
 3522TIP3    H131981   3.947   4.329  14.310  0.3319 -0.8009  0.2779
 3522TIP3    H231982   3.888   4.193  14.342  0.8822 -1.5720 -1.8105
 3523TIP3   OH231983   2.674   1.669  16.866  0.1593  0.8444 -0.0987
 3523TIP3    H131984   2.620   1.738  16.828  0.9877  2.0087  0.7425
 3523TIP3    H231985   2.716   1.711  16.941 -1.3217 -1.2808  2.0832
 3524TIP3   OH231986   0.717   3.252  16.832  0.8145  0.6490 -0.1918
 3524TIP3    H131987   0.705   3.217  16.921  3.3480 -0.5196 -0.2237
 3524TIP3    H231988   0.792   3.311  16.840  1.4899  0.0212 -1.6816
 3525TIP3   OH231989   3.072   2.248  13.848 -0.1639 -0.5947 -0.3841
 3525TIP3    H131990   3.046   2.337  13.825  1.9309  0.2353  0.2796
 3525TIP3    H231991   3.150   2.231  13.795 -0.0174 -1.7271  0.1565
 3526TIP3   OH231992   1.620   3.115  12.702  0.3568 -0.2448 -0.9961
 3526TIP3    H131993   1.627   3.132  12.796  0.3948  0.9266 -1.1999
 3526TIP3    H231994   1.613   3.020  12.695 -1.2456 -0.2529  0.2976
 3527TIP3   OH231995   4.544   3.339  14.289  0.2251  0.3055 -0.0334
 3527TIP3    H131996   4.457   3.304  14.309 -0.6553  1.1078 -2.1895
 3527TIP3    H231997   4.573   3.290  14.213  2.9130 -1.8060  2.1355
 3528TIP3   OH231998   6.078   1.610   0.096 -0.7536 -0.8394  0.4389
 3528TIP3    H131999   6.058   1.671   0.167  0.0785 -0.1995  0.1546
 3528TIP3    H232000   5.996   1.600   0.048 -0.5561  1.3583 -0.4675
 3529TIP3   OH232001   3.147   0.453  15.488  0.0046  0.5771 -0.0117
 3529TIP3    H132002   3.206   0.385  15.520  0.8831  1.1943 -0.2976
 3529TIP3    H232003   3.060   0.414  15.495  0.5836 -1.0793 -1.4159
 3530TIP3   OH232004   3.538   3.800   5.693 -0.4460 -0.0808 -0.1853
 3530TIP3    H132005   3.472   3.836   5.633 -1.3357 -3.6139 -1.6080
 3530TIP3    H232006   3.490   3.784   5.774 -0.1463  1.4837  0.3143
 3531TIP3   OH232007   0.654   4.014  11.228 -0.9145 -0.2645 -0.0206
 3531TIP3    H132008   0.737   3.974  11.201  0.4798  1.2086  1.8647
 3531TIP3    H232009   0.659   4.103  11.194 -1.4284  0.0376  0.6858
 3532TIP3   OH232010   0.271   1.274  17.015 -0.1824  0.0587 -0.2711
 3532TIP3    H132011   0.183   1.285  17.052 -0.3830  1.2725 -1.0376
 3532TIP3    H232012   0.330   1.302  17.084 -0.4584  0.2208 -0.0983
 3533TIP3   OH232013   4.208   0.240   5.774 -0.5284 -0.6004  0.2316
 3533TIP3    H132014   4.273   0.170   5.766  0.3044  0.0073  1.4370
 3533TIP3    H232015   4.137   0.213   5.716 -0.0090 -2.1992  0.2920
 3534TIP3   OH232016   5.899   2.845  13.874 -0.4415  0.6859  0.2454
 3534TIP3    H132017   5.840   2.769  13.882  0.6613 -0.4298 -1.5857
 3534TIP3    H232018   5.956   2.839  13.951 -1.7035  0.9058  1.2335
 3535TIP3   OH232019   4.282   6.354  13.940 -0.1474 -1.1730 -0.1773
 3535TIP3    H132020   4.239   6.269  13.926 -2.0979 -0.2240 -0.3208
 3535TIP3    H232021   4.306   6.354  14.033 -3.3651 -0.5890  0.7964
 3536TIP3   OH232022   5.690   5.931   3.176 -0.0728  0.3786  0.2149
 3536TIP3    H132023   5.607   5.915   3.130 -0.0023  0.7336 -0.0400
 3536TIP3    H232024   5.694   6.026   3.185  0.2294  0.3512  0.3748
 3537TIP3   OH232025   6.142   6.708   2.187 -0.2037  0.2363  0.5931
 3537TIP3    H132026   6.047   6.709   2.197 -0.2619  1.0576  0.0031
 3537TIP3    H232027   6.157   6.652   2.110 -0.2994  1.1404 -0.0998
 3538TIP3   OH232028   4.207   6.611  13.906 -0.3544 -0.3756  0.4558
 3538TIP3    H132029   4.112   6.612  13.895 -0.4588 -0.8572  1.2377
 3538TIP3    H232030   4.230   6.518  13.906  0.0360 -0.2815  0.8884
 3539TIP3   OH232031   6.382   5.508   3.952 -0.0765  0.0024 -0.1824
 3539TIP3    H132032   6.316   5.440   3.935 -1.1066  0.7746  0.6028
 3539TIP3    H232033   6.382   5.518   4.047  0.5625  0.6163 -0.2441
 3540TIP3   OH232034   5.189   1.976  12.555 -0.2807  0.1764 -0.4357
 3540TIP3    H132035   5.169   1.986  12.648  0.4891  0.7203 -0.3138
 3540TIP3    H232036   5.262   2.036  12.540  0.6286 -1.0191 -1.0442
 3541TIP3   OH232037   0.433   2.216  14.278  0.5236  0.4809 -0.2076
 3541TIP3    H132038   0.460   2.215  14.370  0.2015 -2.0958 -0.0494
 3541TIP3    H232039   0.360   2.277  14.274  0.8853  1.0272  1.1343
 3542TIP3   OH232040   3.311   0.637   2.211 -0.4306  0.2091  0.3915
 3542TIP3    H132041   3.376   0.569   2.195 -1.4180 -0.6139 -0.2101
 3542TIP3    H232042   3.347   0.688   2.283  0.2482 -1.0592  0.9789
 3543TIP3   OH232043   2.319   4.145  17.019 -0.2958  0.1290  0.4741
 3543TIP3    H132044   2.347   4.129  16.929 -1.6291  1.7413 -0.2946
 3543TIP3    H232045   2.269   4.067  17.043 -0.9960  0.1923 -0.6860
 3544TIP3   OH232046   0.914   4.783   1.892 -0.2132  0.0888  0.0215
 3544TIP3    H132047   0.853   4.804   1.963 -2.1946  0.7570 -1.7877
 3544TIP3    H232048   0.931   4.866   1.848 -0.7880 -0.6247 -1.6189
 3545TIP3   OH232049   5.440   1.815   1.236 -0.1920  0.0433  0.3516
 3545TIP3    H132050   5.490   1.835   1.157 -0.1766  1.6783  0.7482
 3545TIP3    H232051   5.499   1.836   1.308 -0.8639  0.4018  0.8082
 3546TIP3   OH232052   6.217   4.620   0.430  0.1563  0.0396 -0.0444
 3546TIP3    H132053   6.159   4.573   0.370 -1.2265 -1.5293  2.3172
 3546TIP3    H232054   6.171   4.703   0.448  0.1089  0.0965 -0.4276
 3547TIP3   OH232055   5.239   0.668   6.056  0.3772 -0.2296  0.2760
 3547TIP3    H132056   5.237   0.760   6.032  0.1462 -0.0341  1.0067
 3547TIP3    H232057   5.308   0.630   6.002  0.3511  0.3315 -0.1585
 3548TIP3   OH232058   2.089   1.793   5.736  0.6568 -0.2679  0.1193
 3548TIP3    H132059   2.141   1.735   5.681 -0.7251 -2.6016  1.1461
 3548TIP3    H232060   2.020   1.738   5.772 -0.9729  2.1079  0.9162
 3549TIP3   OH232061   2.115   6.210  10.831  0.5227 -0.2559 -0.8520
 3549TIP3    H132062   2.210   6.208  10.830  0.5229 -1.3852 -0.1813
 3549TIP3    H232063   2.089   6.140  10.771  0.1150 -0.1820 -0.7636
 3550TIP3   OH232064   1.808   2.858   5.064 -0.3934 -0.7866  0.4084
 3550TIP3    H132065   1.726   2.875   5.017 -0.0720  3.4697  1.0180
 3550TIP3    H232066   1.788   2.878   5.155  0.7841 -1.9821  0.9616
 3551TIP3   OH232067   0.545   3.876  15.457 -0.1516  0.3392 -0.3589
 3551TIP3    H132068   0.490   3.823  15.514 -0.1952  0.4182 -0.3278
 3551TIP3    H232069   0.494   3.956  15.442 -0.9168 -0.3972 -1.9123
 3552TIP3   OH232070   4.552   0.272   1.975  0.7979 -0.2818 -0.4690
 3552TIP3    H132071   4.528   0.222   2.053  0.3849 -3.3056 -2.3688
 3552TIP3    H232072   4.483   0.254   1.912  2.4147 -0.1180 -2.4168
 3553TIP3   OH232073   1.771   4.822   2.157 -0.1980 -0.6837 -0.0424
 3553TIP3    H132074   1.853   4.786   2.190 -0.5057 -0.0607  1.5154
 3553TIP3    H232075   1.723   4.746   2.122  0.8965 -1.0867 -0.7027
 3554TIP3   OH232076   1.666   0.446  14.826 -0.2598  0.3552 -1.0285
 3554TIP3    H132077   1.675   0.511  14.895 -1.2811  1.2781 -1.7502
 3554TIP3    H232078   1.617   0.490  14.757  0.6345 -0.5756 -2.3153
 3555TIP3   OH232079   1.611   1.090  11.251 -0.1670  0.0052  0.3883
 3555TIP3    H132080   1.575   1.037  11.322  0.1361 -0.5531  0.1355
 3555TIP3    H232081   1.549   1.076  11.179 -0.5608  0.6966  0.5846
 3556TIP3   OH232082   0.859   3.415  15.900 -0.3607  0.1999  0.2726
 3556TIP3    H132083   0.952   3.437  15.891 -0.3493 -0.7065 -2.8503
 3556TIP3    H232084   0.858   3.323  15.923 -0.4334 -0.2398 -1.3719
 3557TIP3   OH232085   2.090   6.490   3.938  0.3139  0.6315 -0.0994
 3557TIP3    H132086   2.035   6.508   4.014 -0.8323 -0.2993 -0.6989
 3557TIP3    H232087   2.101   6.576   3.896 -3.6109  0.4683 -1.9197
 3558TIP3   OH232088   3.678   4.425  16.266 -0.3884 -0.1993  0.1446
 3558TIP3    H132089   3.648   4.397  16.352 -0.0239 -2.1115 -0.3072
 3558TIP3    H232090   3.656   4.352  16.208  1.7337 -0.0840 -0.8925
 3559TIP3   OH232091   5.589   5.526   4.373 -0.8685  0.4994 -0.1126
 3559TIP3    H132092   5.512   5.584   4.373 -0.4863  1.1008 -2.4133
 3559TIP3    H232093   5.562   5.450   4.323  0.0959  0.8325 -1.1656
 3560TIP3   OH232094   4.308   2.328   0.316 -0.0521  0.1612 -0.4908
 3560TIP3    H132095   4.246   2.366   0.378  0.4959  0.6377 -0.2252
 3560TIP3    H232096   4.389   2.377   0.330  0.6227 -0.9833 -0.2726
 3561TIP3   OH232097   1.047   6.066  14.906 -0.1032  0.2417  0.7724
 3561TIP3    H132098   1.094   6.148  14.892  1.5495 -1.1439 -3.2858
 3561TIP3    H232099   0.960   6.081  14.867 -0.3718  0.5013  1.4553
 3562TIP3   OH232100   3.365   4.501   2.444  0.5068 -0.3124  0.8809
 3562TIP3    H132101   3.378   4.505   2.350 -0.9766 -0.3392  0.6442
 3562TIP3    H232102   3.452   4.509   2.482  1.0288  0.5092 -0.4662
 3563TIP3   OH232103   3.151   5.972  15.801 -0.2989 -0.1080 -0.2527
 3563TIP3    H132104   3.136   5.943  15.891  0.1574  1.4098  0.3496
 3563TIP3    H232105   3.073   5.946  15.754  0.0079 -2.1177  0.2523
 3564TIP3   OH232106   0.395   4.297  12.791  0.3069  0.2279 -0.0927
 3564TIP3    H132107   0.458   4.227  12.774  0.4962  0.3808 -0.0146
 3564TIP3    H232108   0.342   4.301  12.711  1.3762  1.1427 -0.7928
 3565TIP3   OH232109   3.595   5.241  11.961 -0.2148  0.5315 -0.1858
 3565TIP3    H132110   3.530   5.193  11.909 -0.8597  1.3528 -0.1503
 3565TIP3    H232111   3.598   5.328  11.921  0.6747  0.5908 -0.0158
 3566TIP3   OH232112   1.489   4.612   0.314  0.0990 -0.7385  0.7830
 3566TIP3    H132113   1.550   4.564   0.370 -0.4084 -0.9031  1.1980
 3566TIP3    H232114   1.540   4.632   0.235  0.6447 -0.9994  1.0636
 3567TIP3   OH232115   5.909   1.502   6.737 -0.0263  0.2044 -0.2507
 3567TIP3    H132116   5.838   1.443   6.763  0.7580 -0.0313  1.5400
 3567TIP3    H232117   5.959   1.453   6.672 -0.8313 -0.0803 -0.6657
 3568TIP3   OH232118   0.398   4.099  15.448  0.0704 -0.1165  0.2064
 3568TIP3    H132119   0.468   4.153  15.412  0.1054  0.7488  1.5157
 3568TIP3    H232120   0.380   4.137  15.534  0.0334 -2.1385  1.1550
 3569TIP3   OH232121   0.141   5.908  16.225  0.3661 -0.3332  0.4432
 3569TIP3    H132122   0.192   5.856  16.162 -1.5706 -0.4045 -1.1644
 3569TIP3    H232123   0.148   5.998  16.192  1.8251  0.1435  1.9202
 3570TIP3   OH232124   2.531   0.346  13.375 -0.4151  0.6020  0.3760
 3570TIP3    H132125   2.535   0.405  13.300 -1.2062 -0.5843 -0.6350
 3570TIP3    H232126   2.502   0.263  13.339 -0.8303 -0.0017  2.0104
 3571TIP3   OH232127   5.788   4.340   0.678 -0.3054 -0.4869 -0.3084
 3571TIP3    H132128   5.756   4.400   0.610  0.2048 -0.8438 -0.8715
 3571TIP3    H232129   5.732   4.262   0.669 -0.9693 -0.1152  0.4239
 3572TIP3   OH232130   4.090   5.363  17.023  0.4005  0.2748 -0.5562
 3572TIP3    H132131   4.056   5.388  17.109  0.2595  2.5528 -1.2068
 3572TIP3    H232132   4.048   5.279  17.003 -0.4523  0.2838  1.0828
 3573TIP3   OH232133   0.900   2.770   0.680 -0.4645 -0.1671  0.4399
 3573TIP3    H132134   0.916   2.826   0.756 -1.2898 -0.2399  0.6837
 3573TIP3    H232135   0.810   2.790   0.654 -0.5793 -0.9683  0.1816
 3574TIP3   OH232136   4.675   0.575   1.245  0.3046 -0.0606 -0.3182
 3574TIP3    H132137   4.662   0.567   1.340 -0.6332  1.0214 -0.3241
 3574TIP3    H232138   4.646   0.664   1.225 -1.2680 -0.8776 -1.8991
 3575TIP3   OH232139   4.264   2.606   5.355  0.3461  0.1926 -0.4582
 3575TIP3    H132140   4.269   2.697   5.325 -1.3823  0.2284 -0.7526
 3575TIP3    H232141   4.177   2.577   5.327  1.3933 -2.0175 -1.6158
 3576TIP3   OH232142   3.323   4.699  11.823 -0.2934 -0.4139 -0.2142
 3576TIP3    H132143   3.331   4.759  11.750 -1.0674  0.4209  0.3616
 3576TIP3    H232144   3.398   4.719  11.879 -0.3379 -0.2531 -0.2128
 3577TIP3   OH232145   5.066   1.404   2.098  0.0377  0.2881  0.4398
 3577TIP3    H132146   5.045   1.348   2.173  1.2068 -1.9332 -0.7853
 3577TIP3    H232147   5.136   1.461   2.129  1.2445 -1.3137  0.8210
 3578TIP3   OH232148   1.680   3.789  16.748  0.5278  0.4052 -0.2850
 3578TIP3    H132149   1.624   3.780  16.825  1.7445 -0.1422  0.5677
 3578TIP3    H232150   1.697   3.883  16.741  0.0589  0.4999 -0.1500
 3579TIP3   OH232151   5.349   0.518  14.480  0.0046 -0.3361 -0.0386
 3579TIP3    H132152   5.426   0.544  14.531  0.6200 -0.4327 -0.8991
 3579TIP3    H232153   5.275   0.545  14.534  0.6325 -0.2333  0.8085
 3580TIP3   OH232154   0.058   5.153  14.121 -0.0316 -0.3691 -0.4257
 3580TIP3    H132155  -0.033   5.180  14.131  0.4631  1.0476  0.4442
 3580TIP3    H232156   0.088   5.202  14.044  0.2108 -0.2324 -0.2435
 3581TIP3   OH232157   6.618   5.279  13.705 -0.5236  0.0321 -0.1287
 3581TIP3    H132158   6.702   5.315  13.674 -1.4357  0.4785 -2.2667
 3581TIP3    H232159   6.554   5.345  13.680 -1.5771 -0.4320  1.2381
 3582TIP3   OH232160   2.055   3.678   3.239  0.3163 -0.1905 -0.0860
 3582TIP3    H132161   2.076   3.715   3.153  0.6092 -0.6803 -0.2249
 3582TIP3    H232162   1.970   3.717   3.262  0.3382  0.1049 -0.4967
 3583TIP3   OH232163   6.714   2.652  14.810 -0.6490  0.0366  0.0594
 3583TIP3    H132164   6.683   2.707  14.738  1.1330  1.6776  0.4542
 3583TIP3    H232165   6.643   2.654  14.875 -0.6020  2.0218  0.1123
 3584TIP3   OH232166   4.962   4.369   2.826  0.3162  0.0083 -0.8600
 3584TIP3    H132167   4.954   4.278   2.797  0.3398  0.1006 -1.1568
 3584TIP3    H232168   5.022   4.365   2.901  0.7369 -0.1508 -1.2026
 3585TIP3   OH232169   0.417   5.705   0.835  0.3324  0.2216  0.4655
 3585TIP3    H132170   0.373   5.665   0.760 -1.0057  3.1894 -0.4912
 3585TIP3    H232171   0.351   5.709   0.904  0.7469 -0.0884  0.8895
 3586TIP3   OH232172   0.565   4.046  13.058  0.8545 -0.6994  0.2141
 3586TIP3    H132173   0.540   4.037  13.150  1.8142 -1.3160  0.4330
 3586TIP3    H232174   0.602   3.960  13.035 -0.3123 -0.8912 -1.0513
 3587TIP3   OH232175   3.192   3.002   5.721  0.1316 -0.2672  0.3120
 3587TIP3    H132176   3.158   2.965   5.802 -1.5780  0.3389 -0.1077
 3587TIP3    H232177   3.116   3.039   5.677  0.8108 -1.5891 -2.1251
 3588TIP3   OH232178   2.317   3.871  10.621 -0.4010  0.4122 -0.0159
 3588TIP3    H132179   2.366   3.952  10.632 -0.5312  0.6045 -0.7935
 3588TIP3    H232180   2.350   3.813  10.690 -0.8229  1.3596  1.0161
 3589TIP3   OH232181   2.206   4.539  13.778 -0.1263 -0.4038  0.4582
 3589TIP3    H132182   2.267   4.504  13.714  1.7984  1.3397  1.2148
 3589TIP3    H232183   2.244   4.515  13.863  0.4217  1.9779  0.9689
 3590TIP3   OH232184   5.360   4.253   1.906  0.2886 -0.1603 -0.2598
 3590TIP3    H132185   5.395   4.247   1.995 -0.7064 -4.0059  0.0367
 3590TIP3    H232186   5.275   4.296   1.916 -0.2901 -1.4847  0.8856
 3591TIP3   OH232187   1.176   3.473  10.798  0.1453 -0.1035 -0.1658
 3591TIP3    H132188   1.265   3.482  10.765 -0.5318 -0.9412 -2.4271
 3591TIP3    H232189   1.136   3.559  10.784 -0.0524 -0.3734 -1.3793
 3592TIP3   OH232190   0.490   4.501  15.682  0.0186 -0.1000  0.1920
 3592TIP3    H132191   0.451   4.587  15.668 -1.1639 -0.5418  0.6886
 3592TIP3    H232192   0.509   4.498  15.775  1.8305  0.3200 -0.1111
 3593TIP3   OH232193   2.366   4.452   4.479  0.1743  0.1658  0.6743
 3593TIP3    H132194   2.449   4.427   4.519  0.0324 -2.0500 -0.2369
 3593TIP3    H232195   2.300   4.409   4.534 -0.2318  0.2480  0.2587
 3594TIP3   OH232196   6.291   1.726  14.624  0.3161 -0.1377  0.3153
 3594TIP3    H132197   6.245   1.658  14.575  2.3221  0.4448 -2.6441
 3594TIP3    H232198   6.374   1.685  14.649  1.3145  0.9613 -1.0265
 3595TIP3   OH232199   0.745   0.578   5.505 -0.1225  0.1421  0.0866
 3595TIP3    H132200   0.810   0.544   5.566 -0.5351 -0.6732  0.0881
 3595TIP3    H232201   0.764   0.533   5.422  0.9048  1.7891 -0.6164
 3596TIP3   OH232202   5.862   2.151  14.817 -0.4832 -0.1450  0.8763
 3596TIP3    H132203   5.773   2.128  14.845 -0.2362 -0.5816  1.3407
 3596TIP3    H232204   5.907   2.066  14.809 -0.7388 -0.1188 -1.6275
 3597TIP3   OH232205   5.978   3.430  15.312  0.1574 -0.4046  0.0168
 3597TIP3    H132206   5.969   3.334  15.305  0.0757 -0.3326 -1.0547
 3597TIP3    H232207   6.063   3.449  15.272 -0.0474  0.0085 -0.2328
 3598TIP3   OH232208   2.270   2.423   1.063 -0.1547  0.0643  0.1346
 3598TIP3    H132209   2.231   2.337   1.045  0.4604 -0.0261 -0.7913
 3598TIP3    H232210   2.239   2.479   0.992  1.2698  0.0266 -0.5462
 3599TIP3   OH232211   4.642   0.925  13.626  0.2476  0.1379 -0.3550
 3599TIP3    H132212   4.717   0.866  13.614  2.1597  2.3224  0.0115
 3599TIP3    H232213   4.660   0.968  13.710 -1.0868  1.2126 -0.5979
 3600TIP3   OH232214   3.354   6.566   4.622 -0.0110  0.6392  0.5205
 3600TIP3    H132215   3.274   6.617   4.621 -1.0209 -0.8597 -0.2766
 3600TIP3    H232216   3.368   6.543   4.714  0.5145  2.3611  0.8983
 3601TIP3   OH232217   2.035   5.554   5.923  0.0584 -0.1214  0.8483
 3601TIP3    H132218   2.008   5.539   6.013 -1.5985  1.9965  0.7986
 3601TIP3    H232219   2.071   5.643   5.923 -0.6207  0.1994 -0.6591
 3602TIP3   OH232220   3.917   2.266  11.912  0.0933  0.5674  0.3867
 3602TIP3    H132221   3.890   2.212  11.837  1.6711  0.5370 -0.2092
 3602TIP3    H232222   3.906   2.210  11.988  0.7806 -0.2754 -0.1201
 3603TIP3   OH232223   6.289   1.366   4.758  0.2118  0.6894  0.0427
 3603TIP3    H132224   6.359   1.421   4.724  0.6335  0.9035  1.2205
 3603TIP3    H232225   6.245   1.420   4.824 -2.8426  1.6077 -2.4780
 3604TIP3   OH232226   2.732   5.837  13.120 -0.2620 -0.4761  0.6541
 3604TIP3    H132227   2.692   5.924  13.119 -1.5772 -1.0572 -0.1700
 3604TIP3    H232228   2.822   5.851  13.091 -1.2052  0.3067 -2.2177
 3605TIP3   OH232229   3.760   4.179  15.258  0.4432  0.4315 -0.2871
 3605TIP3    H132230   3.792   4.090  15.272  1.1189  0.7066 -0.0812
 3605TIP3    H232231   3.684   4.186  15.316 -0.0615 -0.2485 -0.8492
 3606TIP3   OH232232   1.571   0.771   0.157 -0.2072  0.1669 -0.4064
 3606TIP3    H132233   1.568   0.719   0.077  0.7136 -0.5122 -0.0199
 3606TIP3    H232234   1.481   0.801   0.170 -1.2215 -2.8765  0.3492
 3607TIP3   OH232235   3.368   0.279   5.671 -0.3852 -0.0946 -0.4382
 3607TIP3    H132236   3.300   0.267   5.606  0.9440 -1.5574 -1.6500
 3607TIP3    H232237   3.321   0.299   5.752 -2.1763 -0.2499 -1.3925
 3608TIP3   OH232238   5.242   3.837  15.321  0.4025 -0.0404  0.1826
 3608TIP3    H132239   5.218   3.925  15.350  0.8968  0.1149  0.1310
 3608TIP3    H232240   5.317   3.851  15.263  0.9536 -0.5566  0.7620
 3609TIP3   OH232241   0.236   5.725  15.760 -0.5560 -0.0733  0.2686
 3609TIP3    H132242   0.186   5.646  15.778 -2.0140  0.9553  0.9455
 3609TIP3    H232243   0.170   5.792  15.740  0.6379  0.9265 -0.5634
 3610TIP3   OH232244   6.461   2.983   0.148 -0.1802  0.3097 -0.0659
 3610TIP3    H132245   6.439   2.991   0.240  0.6933  0.0301  0.1824
 3610TIP3    H232246   6.557   2.975   0.147 -0.0079  2.0268 -1.1160
 3611TIP3   OH232247   4.366   0.139  16.835  0.1571 -0.1899 -0.0726
 3611TIP3    H132248   4.314   0.157  16.757  1.5393  1.1705 -0.7379
 3611TIP3    H232249   4.416   0.220  16.850 -0.4783 -0.2074  2.5725
 3612TIP3   OH232250   4.183   2.389   1.846 -0.3353 -0.0007  0.1551
 3612TIP3    H132251   4.198   2.474   1.806 -0.8896 -0.1899 -0.4723
 3612TIP3    H232252   4.130   2.341   1.782 -0.2277 -0.7316  0.6018
 3613TIP3   OH232253   6.276   6.507   2.944 -0.4291  0.5560  0.5136
 3613TIP3    H132254   6.234   6.455   2.875  1.9574 -0.6086 -0.1590
 3613TIP3    H232255   6.203   6.543   2.994 -2.3142  1.6512 -2.7029
 3614TIP3   OH232256   0.798   1.185  16.738 -0.9229 -0.1130  0.3867
 3614TIP3    H132257   0.800   1.211  16.646 -0.5446 -1.1697  0.0930
 3614TIP3    H232258   0.794   1.090  16.737 -2.0265 -0.1033  1.4620
 3615TIP3   OH232259   3.818   1.610   4.938 -0.1214 -0.4276  0.0176
 3615TIP3    H132260   3.746   1.583   4.881 -0.4711 -1.4312  0.9034
 3615TIP3    H232261   3.776   1.666   5.004 -0.0052 -0.5716  0.2161
 3616TIP3   OH232262   2.208   4.638  16.430  0.0287  0.3026  0.6051
 3616TIP3    H132263   2.288   4.657  16.382 -0.6799  0.2509 -0.6241
 3616TIP3    H232264   2.185   4.549  16.405 -1.2539  0.8588 -0.3131
 3617TIP3   OH232265   3.233   2.911  16.789  0.5639  0.5198  0.6047
 3617TIP3    H132266   3.139   2.895  16.779  0.8783 -0.8037 -0.4980
 3617TIP3    H232267   3.262   2.938  16.701  1.1044  1.6153  1.1021
 3618TIP3   OH232268   1.029   0.110   6.143  0.5307  0.2706 -0.1724
 3618TIP3    H132269   1.085   0.186   6.130  0.6508 -0.0930 -2.0563
 3618TIP3    H232270   1.087   0.042   6.176  0.9841  0.2350 -1.0205
 3619TIP3   OH232271   2.749   4.510  15.329 -0.9499  0.0652  0.4213
 3619TIP3    H132272   2.794   4.505  15.414 -0.0082  1.6312  0.0542
 3619TIP3    H232273   2.693   4.587  15.336 -1.7998 -0.5054  0.0265
 3620TIP3   OH232274   1.183   5.227   3.756  0.3182  0.2279  0.5606
 3620TIP3    H132275   1.192   5.184   3.841 -0.0073 -1.6086 -0.3030
 3620TIP3    H232276   1.116   5.293   3.770  0.3163 -0.0068  1.7460
 3621TIP3   OH232277   1.777   4.831   4.783  0.0265 -0.0475 -0.6088
 3621TIP3    H132278   1.757   4.834   4.877 -1.1546 -1.3584 -0.7813
 3621TIP3    H232279   1.869   4.807   4.780  0.1199  0.1499  0.2156
 3622TIP3   OH232280   2.492   5.889   0.256  0.3237 -0.2464 -0.1274
 3622TIP3    H132281   2.434   5.917   0.327  0.3908  0.0818 -0.1987
 3622TIP3    H232282   2.543   5.817   0.293 -0.6582 -1.0461 -0.3087
 3623TIP3   OH232283   1.630   1.627  13.815  0.3874 -0.2827 -0.0756
 3623TIP3    H132284   1.632   1.684  13.891 -0.3478 -0.4202  0.0612
 3623TIP3    H232285   1.608   1.684  13.742 -0.5516 -0.4106  0.0947
 3624TIP3   OH232286   6.082   5.517  13.560 -0.3436  0.3324 -0.2112
 3624TIP3    H132287   5.990   5.538  13.576 -0.5413 -1.3863  1.2901
 3624TIP3    H232288   6.080   5.429  13.522  0.6818  0.4025 -0.4565
 3625TIP3   OH232289   5.761   0.852   6.787 -0.2137 -0.4651 -0.0275
 3625TIP3    H132290   5.785   0.785   6.851 -0.7862 -1.2156 -0.5796
 3625TIP3    H232291   5.665   0.852   6.787 -0.2280  0.5776  0.1805
 3626TIP3   OH232292   6.422   6.493  15.953 -0.3291 -0.2889 -0.0004
 3626TIP3    H132293   6.430   6.461  16.043 -0.7060  0.1248  0.1822
 3626TIP3    H232294   6.391   6.417  15.904  0.9860 -0.8368 -0.0033
 3627TIP3   OH232295   3.341   3.930   1.639  0.0010 -0.6546  0.3840
 3627TIP3    H132296   3.300   3.974   1.713  0.4742  0.6166 -0.0839
 3627TIP3    H232297   3.273   3.872   1.605 -0.6546 -0.2653  1.0065
 3628TIP3   OH232298   2.204   4.271  15.411  0.0130  0.0892  0.0522
 3628TIP3    H132299   2.156   4.201  15.455  0.2133 -1.0493 -1.4678
 3628TIP3    H232300   2.235   4.232  15.330  2.4173  1.1502  0.3517
 3629TIP3   OH232301   0.510   3.809   3.999  0.4072 -0.0485 -0.5200
 3629TIP3    H132302   0.576   3.797   4.067 -0.7938  1.5895  1.0020
 3629TIP3    H232303   0.562   3.820   3.919  1.9996  0.9670  0.5789
 3630TIP3   OH232304   1.675   5.442   5.054 -0.3784 -0.2870  0.4766
 3630TIP3    H132305   1.612   5.500   5.012 -0.2319 -0.3509  0.1633
 3630TIP3    H232306   1.676   5.364   4.998  1.0678  0.3011 -0.3563
 3631TIP3   OH232307   2.449   3.040  16.367  0.9495  0.1619  0.5135
 3631TIP3    H132308   2.384   3.067  16.303 -0.1052  0.0361  1.4901
 3631TIP3    H232309   2.533   3.062  16.328  0.2517  3.3743  0.5684
 3632TIP3   OH232310   1.692   2.133   0.193  0.5053  0.2284 -0.1980
 3632TIP3    H132311   1.625   2.073   0.226  1.0559 -0.5896 -0.5120
 3632TIP3    H232312   1.735   2.084   0.122  2.3781  0.1534  0.9112
 3633TIP3   OH232313   4.553   2.494   0.963 -0.2416 -0.5512  0.0998
 3633TIP3    H132314   4.495   2.514   1.036  0.4837 -0.0707  0.5496
 3633TIP3    H232315   4.637   2.471   1.003  0.7118  1.4806 -0.5983
 3634TIP3   OH232316   6.589   5.212  13.236 -0.1540 -0.3853  0.1497
 3634TIP3    H132317   6.628   5.300  13.238 -0.8660 -0.0850  1.1262
 3634TIP3    H232318   6.630   5.166  13.309  0.4623 -0.9907 -0.5590
 3635TIP3   OH232319   2.783   5.351   0.826 -0.0045  0.0644 -0.1184
 3635TIP3    H132320   2.699   5.394   0.807  1.5434  2.6001 -1.7813
 3635TIP3    H232321   2.809   5.387   0.911 -0.3332 -0.3222  0.1502
 3636TIP3   OH232322   2.875   0.012  13.895  0.3009 -0.2818 -0.5103
 3636TIP3    H132323   2.876  -0.067  13.840 -0.0333  0.4386 -1.5879
 3636TIP3    H232324   2.836  -0.017  13.977  0.3284 -1.2774 -0.8352
 3637TIP3   OH232325   3.946   6.255   3.709  0.3834  0.0844  0.1412
 3637TIP3    H132326   4.011   6.267   3.779 -1.6234  0.8594  1.9841
 3637TIP3    H232327   3.897   6.177   3.734 -0.4413  0.4338 -0.3526
 3638TIP3   OH232328   0.144   1.336  14.890  0.1388  0.1575 -0.0343
 3638TIP3    H132329   0.212   1.402  14.895  3.3216 -2.8159 -0.0417
 3638TIP3    H232330   0.152   1.299  14.802 -1.9874  0.1022 -0.2640
 3639TIP3   OH232331   5.846   1.467  12.440 -0.1488  0.0778 -0.0798
 3639TIP3    H132332   5.766   1.429  12.405 -0.7623  0.5250  0.7883
 3639TIP3    H232333   5.816   1.536  12.499  0.9073  1.1720 -0.7687
 3640TIP3   OH232334   4.511   1.775   3.070 -0.3174  0.3489 -0.1179
 3640TIP3    H132335   4.538   1.694   3.028  0.0619  0.8238 -0.8107
 3640TIP3    H232336   4.513   1.756   3.163  0.1670 -0.3138 -0.2583
 3641TIP3   OH232337   2.653   1.399  16.749 -0.3098  0.4426  0.3500
 3641TIP3    H132338   2.721   1.386  16.815  1.2036  0.8681 -1.0443
 3641TIP3    H232339   2.639   1.494  16.747  0.4447  0.5553 -0.6410
 3642TIP3   OH232340   2.535   1.421   6.159  0.5731 -0.6421 -0.0628
 3642TIP3    H132341   2.485   1.485   6.109  0.5784 -0.3447  0.3089
 3642TIP3    H232342   2.556   1.465   6.241  0.1411 -1.2993  0.4057
 3643TIP3   OH232343   5.787   4.464  12.488 -0.5452  0.0990  0.6992
 3643TIP3    H132344   5.840   4.416  12.551 -1.8307 -1.5315  0.5986
 3643TIP3    H232345   5.849   4.524  12.446  0.7092 -0.0861  2.1924
 3644TIP3   OH232346   4.314   6.436  15.758 -0.0442  0.3673  0.5994
 3644TIP3    H132347   4.406   6.445  15.731  0.4532  0.4654  2.2027
 3644TIP3    H232348   4.308   6.347  15.792 -1.0940 -0.3535 -1.3596
 3645TIP3   OH232349   1.770   0.450   0.732  0.2174 -0.2589 -0.0528
 3645TIP3    H132350   1.858   0.453   0.694  0.5372 -1.1472  0.5643
 3645TIP3    H232351   1.726   0.528   0.699  1.2080  0.1436 -0.4532
 3646TIP3   OH232352   3.818   3.918   1.208  0.8671 -0.1786 -0.2112
 3646TIP3    H132353   3.909   3.915   1.179  0.8793 -3.2538 -0.1740
 3646TIP3    H232354   3.815   3.861   1.285 -0.9680  0.4753  0.2579
 3647TIP3   OH232355   2.363   0.682  13.381 -0.4745 -0.0496 -0.3669
 3647TIP3    H132356   2.429   0.686  13.451 -2.9094 -0.9061  2.1651
 3647TIP3    H232357   2.408   0.715  13.304  2.4557  0.8425  1.5570
 3648TIP3   OH232358   5.175   0.302  16.580 -0.0264 -0.3845 -0.5525
 3648TIP3    H132359   5.144   0.212  16.572  0.7690 -0.7457  0.2367
 3648TIP3    H232360   5.097   0.352  16.603 -0.2894 -1.0498  0.0612
 3649TIP3   OH232361   5.788   2.633  14.401  0.0629 -0.0448 -0.0043
 3649TIP3    H132362   5.731   2.673  14.467  1.3394 -1.7668  2.2956
 3649TIP3    H232363   5.781   2.691  14.325 -0.0968  3.1251  2.2179
 3650TIP3   OH232364   0.322   5.294   0.421  0.1853  0.5259 -0.1061
 3650TIP3    H132365   0.310   5.270   0.329  0.3921  1.6768 -0.4413
 3650TIP3    H232366   0.404   5.342   0.423  0.2695  0.3642  0.7201
 3651TIP3   OH232367   0.774   5.346   5.939  0.2626 -0.1781  0.6387
 3651TIP3    H132368   0.681   5.372   5.944  0.2429 -0.1073 -0.0069
 3651TIP3    H232369   0.818   5.424   5.904  0.6772  0.0301  1.6014
 3652TIP3   OH232370   1.012   3.156   4.025  0.4259 -0.4179 -0.0166
 3652TIP3    H132371   1.053   3.124   4.106  2.0727  0.9074 -0.2651
 3652TIP3    H232372   0.934   3.203   4.055  1.6464  1.1013  0.9757
 3653TIP3   OH232373   1.878   4.698   0.181 -0.2402 -0.0256  0.2214
 3653TIP3    H132374   1.941   4.709   0.109 -0.6001  1.3658  0.0909
 3653TIP3    H232375   1.930   4.663   0.253  0.2335 -0.9496 -0.5354
 3654TIP3   OH232376   1.820   0.972   2.928 -0.0628  0.0522  0.3911
 3654TIP3    H132377   1.849   0.941   3.014  0.6962  2.3850  1.0670
 3654TIP3    H232378   1.901   0.999   2.884 -0.5634  0.0165 -0.5935
 3655TIP3   OH232379   3.241   0.589   0.060  0.2972  0.1883 -0.0039
 3655TIP3    H132380   3.186   0.644   0.116  0.6987  1.1598 -0.5319
 3655TIP3    H232381   3.291   0.535   0.120 -0.9863 -0.4720  0.4942
 3656TIP3   OH232382   4.559   3.599   1.227  0.2389 -0.5021  0.4654
 3656TIP3    H132383   4.525   3.517   1.191  2.2147 -0.7698 -0.9748
 3656TIP3    H232384   4.489   3.631   1.285 -2.1846 -1.2867 -1.8034
 3657TIP3   OH232385   6.548   6.266   3.790  0.2783  0.3546  0.4047
 3657TIP3    H132386   6.454   6.248   3.789  0.0758  1.2978 -0.7476
 3657TIP3    H232387   6.562   6.323   3.714  1.9358 -0.5304 -0.0182
 3658TIP3   OH232388   2.138   0.718  15.504  0.1578 -0.6846 -0.3689
 3658TIP3    H132389   2.114   0.671  15.584  1.1891 -0.1507  0.2859
 3658TIP3    H232390   2.055   0.734  15.459 -0.7835  1.2635  1.8572
 3659TIP3   OH232391   5.650   4.669   3.410  0.0781 -0.3142  0.5388
 3659TIP3    H132392   5.624   4.622   3.331  0.4353 -0.8404  0.7306
 3659TIP3    H232393   5.603   4.752   3.405 -1.0467 -0.9253  0.4900
 3660TIP3   OH232394   3.422   6.302  16.351  0.4909  0.2587  0.3104
 3660TIP3    H132395   3.405   6.268  16.439 -1.4021  0.8730  0.2215
 3660TIP3    H232396   3.352   6.267  16.297  1.5452  0.0183 -0.9503
 3661TIP3   OH232397   3.915   3.410   5.564  1.0423 -0.0406 -0.0734
 3661TIP3    H132398   3.955   3.373   5.643  2.8012 -0.2236 -0.9809
 3661TIP3    H232399   3.933   3.504   5.569  2.3475 -0.2159 -0.8372
 3662TIP3   OH232400   5.357   5.421  14.183  0.7669 -0.4714 -0.4169
 3662TIP3    H132401   5.311   5.500  14.155  0.3632  0.3851  2.3185
 3662TIP3    H232402   5.288   5.355  14.191  0.9598 -0.8695 -1.7813
 3663TIP3   OH232403   0.547   2.602  11.957  0.1478 -0.0610  0.7142
 3663TIP3    H132404   0.589   2.539  12.015  1.5819  1.0249  0.9161
 3663TIP3    H232405   0.523   2.675  12.015  0.1047  0.3292  0.2103
 3664TIP3   OH232406   1.901   2.540  12.213  0.1384 -0.2985 -0.1398
 3664TIP3    H132407   1.842   2.555  12.140 -0.4050  1.8916  0.6736
 3664TIP3    H232408   1.986   2.572  12.183  0.3510 -1.0839 -0.4117
 3665TIP3   OH232409   0.761   2.521   1.482 -0.2023 -0.0841 -0.0012
 3665TIP3    H132410   0.771   2.428   1.461  1.0522 -0.0385  0.2744
 3665TIP3    H232411   0.787   2.567   1.402 -0.1815  0.0256  0.0675
 3666TIP3   OH232412   5.271   4.100   0.209  0.2361  0.4660 -0.4481
 3666TIP3    H132413   5.230   4.187   0.208 -0.0307  0.3435 -1.4569
 3666TIP3    H232414   5.201   4.041   0.183  0.5444 -0.0012 -0.2249
 3667TIP3   OH232415   6.478   0.845  15.905 -0.0877 -0.1315 -0.0967
 3667TIP3    H132416   6.449   0.832  15.815 -1.8584  0.0294  0.3992
 3667TIP3    H232417   6.478   0.757  15.943  0.5035 -0.1789 -0.1909
 3668TIP3   OH232418   5.606   3.562  13.915 -0.3344 -0.2548  0.1790
 3668TIP3    H132419   5.568   3.644  13.945  0.7870  0.5735 -0.5981
 3668TIP3    H232420   5.666   3.536  13.985  0.7705  0.6302 -0.4004
 3669TIP3   OH232421   3.033   4.558  16.078  0.6253  0.1176  0.1280
 3669TIP3    H132422   3.029   4.529  15.987 -1.7919  1.4995 -0.2907
 3669TIP3    H232423   2.962   4.512  16.122  1.0520  0.3142  1.0685
 3670TIP3   OH232424   1.043   0.894  14.179  0.0631  0.4834  0.4580
 3670TIP3    H132425   1.035   0.901  14.084  0.6297  0.4417  0.4082
 3670TIP3    H232426   1.023   0.802  14.198 -0.6893  0.6388  0.4479
 3671TIP3   OH232427   5.813   4.427  11.061  0.1414  0.1976  0.0980
 3671TIP3    H132428   5.792   4.355  11.120 -1.6165 -0.0061 -0.6931
 3671TIP3    H232429   5.731   4.476  11.053  0.6321  0.8457 -1.3071
 3672TIP3   OH232430   5.990   4.004  16.667  0.5506 -0.1911  0.6241
 3672TIP3    H132431   5.927   3.944  16.626  2.3696 -1.5893 -0.3147
 3672TIP3    H232432   6.046   3.947  16.720  1.9108  0.7675  0.2658
 3673TIP3   OH232433   5.278   6.560  15.112  0.5576 -0.2876 -0.3004
 3673TIP3    H132434   5.316   6.636  15.069  1.7790 -0.4184  0.5070
 3673TIP3    H232435   5.282   6.580  15.206  1.1613 -1.4424 -0.0591
 3674TIP3   OH232436   6.373   2.714   3.766  0.1126  1.0201 -0.5527
 3674TIP3    H132437   6.326   2.630   3.759 -0.8343  1.6105 -1.6101
 3674TIP3    H232438   6.324   2.763   3.832  1.0810  0.4965  0.5769
 3675TIP3   OH232439   6.118   1.376  12.798  0.4067  0.3654 -0.2286
 3675TIP3    H132440   6.188   1.379  12.733  0.8623  0.6691  0.2677
 3675TIP3    H232441   6.077   1.291  12.785 -0.0286  0.7344 -1.4430
 3676TIP3   OH232442   5.964   3.183  14.008 -0.4458 -0.3148  0.1555
 3676TIP3    H132443   5.980   3.098  14.050  1.6716 -1.0131 -1.8402
 3676TIP3    H232444   5.906   3.229  14.068 -0.0433 -2.3970  2.2849
 3677TIP3   OH232445   1.831   0.060   2.147 -0.4835  0.5936  0.0211
 3677TIP3    H132446   1.782   0.098   2.074 -0.3586  1.2493  0.2648
 3677TIP3    H232447   1.883   0.133   2.181  0.9216 -0.1652 -0.4379
 3678TIP3   OH232448   4.760   0.117   3.447 -0.1369  0.1946  0.0538
 3678TIP3    H132449   4.699   0.145   3.515  0.2043  0.9289  0.0588
 3678TIP3    H232450   4.843   0.107   3.492 -0.3901 -1.5392  0.2048
 3679TIP3   OH232451   5.967   5.973   4.904 -0.7628 -0.0226  0.0435
 3679TIP3    H132452   6.054   6.002   4.934 -1.1782  0.4032  0.8560
 3679TIP3    H232453   5.910   6.047   4.921 -1.0623  0.1691 -1.6626
 3680TIP3   OH232454   4.069   6.572   4.551  0.0690  0.1840  0.2860
 3680TIP3    H132455   4.011   6.553   4.477 -0.0625 -0.7457  0.6151
 3680TIP3    H232456   4.010   6.598   4.622  0.0420 -0.7799  0.6266
 3681TIP3   OH232457   2.360   5.995  10.865 -0.3556  0.3077  0.5176
 3681TIP3    H132458   2.445   5.953  10.850 -0.4014  0.7094 -1.0570
 3681TIP3    H232459   2.376   6.088  10.851 -0.9734  0.4418  0.6589
 3682TIP3   OH232460   0.044   4.605  15.256 -0.3405  0.1351  0.2749
 3682TIP3    H132461   0.076   4.685  15.298  1.2082 -1.3658  2.1527
 3682TIP3    H232462   0.049   4.623  15.162 -1.1844  2.6161  0.6416
 3683TIP3   OH232463   0.102   0.589  12.956 -0.0221  0.6449 -0.0902
 3683TIP3    H132464   0.169   0.570  13.021  0.2447 -1.3167 -0.8827
 3683TIP3    H232465   0.146   0.576  12.872 -0.7366  1.8176 -0.6784
 3684TIP3   OH232466   2.363   5.771   3.138  0.1344 -0.0567  0.1336
 3684TIP3    H132467   2.301   5.809   3.075  2.0099  2.2946 -0.4569
 3684TIP3    H232468   2.397   5.693   3.094  2.4947  2.3004 -2.6315
 3685TIP3   OH232469   2.385   6.034  13.243 -0.0910  0.0360  0.3077
 3685TIP3    H132470   2.445   6.047  13.169  1.2954 -1.1117  1.1824
 3685TIP3    H232471   2.337   6.116  13.250 -1.2939 -0.2578 -2.7364
 3686TIP3   OH232472   0.083   0.168  16.513  0.8084  0.3383  0.2137
 3686TIP3    H132473   0.155   0.140  16.570  1.0312  1.2024  0.3698
 3686TIP3    H232474   0.013   0.195  16.572  0.5383 -0.0314  0.0646
 3687TIP3   OH232475   5.953   5.663  14.318 -0.3480  0.2361  0.2407
 3687TIP3    H132476   6.008   5.601  14.367 -0.0265  1.4172  1.4228
 3687TIP3    H232477   6.012   5.698  14.250  0.4882  1.6504  1.6303
 3688TIP3   OH232478   4.859   6.443  13.894 -0.9176  0.4516  0.4179
 3688TIP3    H132479   4.869   6.532  13.927  1.6592  0.0205  0.9659
 3688TIP3    H232480   4.860   6.453  13.798  0.2083  0.9405  0.4735
 3689TIP3   OH232481   3.189   4.675   6.530  0.4429 -0.0200 -0.3216
 3689TIP3    H132482   3.255   4.717   6.475 -0.9711 -0.3013 -2.3713
 3689TIP3    H232483   3.144   4.748   6.573  1.9907  0.1728  1.0846
 3690TIP3   OH232484   4.777   4.490  11.221  0.1486  0.3231 -0.2069
 3690TIP3    H132485   4.796   4.464  11.131 -0.8781  0.1095 -0.3711
 3690TIP3    H232486   4.685   4.469  11.234  0.5299 -0.6317  1.2417
 3691TIP3   OH232487   4.934   3.289  10.673  0.4362 -0.2065 -0.2128
 3691TIP3    H132488   4.971   3.377  10.668  0.9636 -0.3676  0.7542
 3691TIP3    H232489   4.891   3.277  10.588  0.3467  0.9817 -0.3602
 3692TIP3   OH232490   5.041   5.893   6.053 -0.3514 -0.5492 -0.3018
 3692TIP3    H132491   5.085   5.823   6.004 -0.8256 -1.1015  0.0560
 3692TIP3    H232492   5.077   5.887   6.141  0.9066  0.7957 -0.6903
 3693TIP3   OH232493   3.159   4.409   5.257  0.5323  0.2256  0.1629
 3693TIP3    H132494   3.244   4.434   5.221  0.5148  1.8694  1.1688
 3693TIP3    H232495   3.181   4.348   5.328  0.8541  0.3342  0.1609
 3694TIP3   OH232496   5.038   5.771  14.416 -0.5508 -0.4405  0.9470
 3694TIP3    H132497   4.962   5.827  14.402  0.9138  1.3653 -0.1824
 3694TIP3    H232498   5.035   5.708  14.345 -0.3539  0.3681  0.2138
 3695TIP3   OH232499   5.008   5.055   5.003 -0.3446  0.6890  0.5565
 3695TIP3    H132500   5.066   5.098   4.940 -0.3124 -1.0634 -0.6685
 3695TIP3    H232501   4.943   5.122   5.025 -0.6481  1.2380 -1.7276
 3696TIP3   OH232502   5.153   2.699  15.957 -0.5645  0.0407  0.0445
 3696TIP3    H132503   5.163   2.639  15.883  0.0204 -0.4162  0.4834
 3696TIP3    H232504   5.081   2.662  16.008 -0.8251  0.2356 -0.1792
 3697TIP3   OH232505   5.445   3.470  14.380 -0.1003 -0.3303  0.2770
 3697TIP3    H132506   5.388   3.449  14.454  1.6498 -0.1303  1.7488
 3697TIP3    H232507   5.435   3.396  14.320 -1.8453 -0.3180  0.5062
 3698TIP3   OH232508   0.437   2.629   5.048  0.6553 -0.1763 -0.1809
 3698TIP3    H132509   0.398   2.609   4.963  2.6066  1.1583 -1.4716
 3698TIP3    H232510   0.494   2.704   5.031  2.0946 -0.6897  2.0214
 3699TIP3   OH232511   1.591   5.661   2.600  0.3518 -0.1498 -0.1431
 3699TIP3    H132512   1.631   5.734   2.553 -0.9339  0.0942 -0.9073
 3699TIP3    H232513   1.581   5.593   2.533 -1.0504  0.0196 -0.1217
 3700TIP3   OH232514   3.451   2.988  15.755  0.0082 -0.1132 -0.1566
 3700TIP3    H132515   3.517   3.047  15.718 -0.6943  0.5389 -0.3734
 3700TIP3    H232516   3.468   2.904  15.712  2.3976 -0.7038  1.7041
 3701TIP3   OH232517   0.162   4.024   2.302 -0.7868 -0.2172  0.1991
 3701TIP3    H132518   0.187   4.091   2.366  0.6740 -0.7850  0.2590
 3701TIP3    H232519   0.086   4.061   2.257 -0.6518  1.0193  0.9427
 3702TIP3   OH232520   3.132   6.611  12.529  0.0203 -0.2479 -0.0406
 3702TIP3    H132521   3.200   6.605  12.595 -0.0479 -0.9113 -0.0221
 3702TIP3    H232522   3.129   6.524  12.489 -0.1012  0.0746 -0.7528
 3703TIP3   OH232523   3.101   5.379   2.844 -0.6534 -0.1300 -0.5853
 3703TIP3    H132524   3.031   5.444   2.840  0.0481  0.7073  0.3068
 3703TIP3    H232525   3.177   5.423   2.805  0.3797  0.3888  1.8381
 3704TIP3   OH232526   4.645   3.879   2.690  0.0717 -0.2020 -0.0904
 3704TIP3    H132527   4.620   3.872   2.782 -0.8771  1.3297 -0.1976
 3704TIP3    H232528   4.684   3.794   2.669  0.2139 -0.6054  1.6852
 3705TIP3   OH232529   1.725   0.137   1.917  0.2963  0.0112  0.6148
 3705TIP3    H132530   1.749   0.089   1.838  2.2782 -0.8334  1.6527
 3705TIP3    H232531   1.643   0.098   1.946 -0.9833  0.9760 -1.4847
 3706TIP3   OH232532   5.704   2.158   1.193  0.0901  0.3100  0.1289
 3706TIP3    H132533   5.701   2.066   1.221 -0.1677  0.1774 -0.3296
 3706TIP3    H232534   5.771   2.159   1.124 -0.1502  0.4016 -0.1018
 3707TIP3   OH232535   1.347   1.387   1.275  0.4519 -0.2089 -1.0759
 3707TIP3    H132536   1.327   1.298   1.305 -1.7353  0.3499 -0.7210
 3707TIP3    H232537   1.425   1.412   1.324 -0.9606 -0.6356  1.5818
 3708TIP3   OH232538   0.904   2.394   4.071  0.9663 -0.2958 -1.2097
 3708TIP3    H132539   0.938   2.358   4.153  0.0914  2.9186  0.7974
 3708TIP3    H232540   0.954   2.475   4.059  0.3004 -0.1487 -3.2565
 3709TIP3   OH232541   4.928   3.450   3.167 -0.3540  0.0072 -0.3070
 3709TIP3    H132542   4.884   3.365   3.169  0.4078 -0.3762  0.3607
 3709TIP3    H232543   4.931   3.479   3.258 -0.4606  0.6782 -0.5083
 3710TIP3   OH232544   2.841   5.642   5.014  0.1353  0.1359 -0.2938
 3710TIP3    H132545   2.929   5.663   5.044 -0.2276  0.8915  0.2673
 3710TIP3    H232546   2.802   5.593   5.086  0.1386 -0.3288 -0.6015
 3711TIP3   OH232547   2.628   1.723  14.284 -0.1616  0.0227 -0.4609
 3711TIP3    H132548   2.541   1.720  14.244 -0.4576 -1.5209  0.2344
 3711TIP3    H232549   2.664   1.635  14.269  1.0334  0.4529 -0.1923
 3712TIP3   OH232550   2.438   4.809   6.490  0.3033 -0.1412  0.5212
 3712TIP3    H132551   2.368   4.745   6.502  0.9082 -0.7550  0.8690
 3712TIP3    H232552   2.423   4.874   6.558  0.6586 -0.8192  1.2676
 3713TIP3   OH232553   4.507   3.011  16.034  0.1535  0.4127  0.0580
 3713TIP3    H132554   4.581   3.023  16.093 -0.9156 -0.9978  1.7831
 3713TIP3    H232555   4.542   2.958  15.962  1.0898  0.8088  0.2107
 3714TIP3   OH232556   6.306   6.687  16.937 -0.1656 -0.0500  0.2026
 3714TIP3    H132557   6.383   6.728  16.977 -1.6688  3.0666  0.2151
 3714TIP3    H232558   6.264   6.640  17.009  1.0820 -0.8254  0.4516
 3715TIP3   OH232559   2.491   6.615   5.561 -0.4263 -0.3758  0.2447
 3715TIP3    H132560   2.415   6.568   5.594 -1.0230 -0.4709 -1.1943
 3715TIP3    H232561   2.545   6.631   5.639 -1.1900 -1.6095  1.0687
 3716TIP3   OH232562   2.723   3.206   3.930 -0.6201  0.2485  0.3357
 3716TIP3    H132563   2.712   3.112   3.918  1.9811  0.1312 -2.6334
 3716TIP3    H232564   2.770   3.214   4.014 -0.2605 -1.1638  0.2942
 3717TIP3   OH232565   0.393   5.163  11.942 -0.5664 -0.4512 -0.1392
 3717TIP3    H132566   0.356   5.229  11.883 -0.5874  0.0149  0.3876
 3717TIP3    H232567   0.380   5.199  12.030  2.4617  0.4832  0.0547
 3718TIP3   OH232568   6.486   4.195   2.758  0.0522 -0.9260  0.2352
 3718TIP3    H132569   6.497   4.224   2.848 -0.9347 -1.4178  0.5257
 3718TIP3    H232570   6.523   4.107   2.755  0.5192 -0.7272  0.0358
 3719TIP3   OH232571   0.397   3.570  15.372 -0.2195  0.1696 -0.6489
 3719TIP3    H132572   0.440   3.497  15.416  0.5759  0.9779 -0.0423
 3719TIP3    H232573   0.445   3.580  15.289  0.0810  0.3960 -0.4499
 3720TIP3   OH232574   4.916   3.290   5.615 -0.1633  0.0374  0.3096
 3720TIP3    H132575   4.868   3.229   5.671  0.5570 -0.2156  0.6609
 3720TIP3    H232576   4.999   3.304   5.660 -1.0112  2.7522  1.2363
 3721TIP3   OH232577   0.811   4.970  15.699  0.1952 -0.0602  0.1553
 3721TIP3    H132578   0.815   5.047  15.642 -3.3359  0.8675  0.9267
 3721TIP3    H232579   0.784   4.898  15.642  0.7459 -0.1036 -0.0566
 3722TIP3   OH232580   6.212   0.978   3.503  0.3825  0.3381 -0.1257
 3722TIP3    H132581   6.135   0.921   3.508 -0.2299  0.9163 -2.1588
 3722TIP3    H232582   6.282   0.921   3.471  0.0999  0.4009 -0.8807
 3723TIP3   OH232583   1.371   5.202   0.559 -0.1822 -0.4637 -0.5745
 3723TIP3    H132584   1.389   5.133   0.495  0.9811  0.3699 -1.1838
 3723TIP3    H232585   1.436   5.188   0.628  0.5718  0.4636 -1.0757
 3724TIP3   OH232586   6.062   0.077  16.693 -0.4113 -0.1889  0.6725
 3724TIP3    H132587   6.084   0.167  16.668 -0.7458 -0.5067 -0.8721
 3724TIP3    H232588   6.120   0.023  16.639 -2.9009 -0.9747 -1.4258
 3725TIP3   OH232589   4.058   4.380   4.430 -0.0949 -0.3767 -0.5590
 3725TIP3    H132590   4.078   4.438   4.356 -1.0463 -0.0137 -0.5485
 3725TIP3    H232591   3.991   4.427   4.480  0.5216 -0.6172  0.5401
 3726TIP3   OH232592   4.863   3.393   2.302  0.1042 -0.7018 -0.0035
 3726TIP3    H132593   4.884   3.413   2.393  0.6686 -2.3999  0.2682
 3726TIP3    H232594   4.784   3.445   2.284  0.9238  0.9519  0.8997
 3727TIP3   OH232595   2.295   3.895  14.355  0.2045 -0.2201 -0.1678
 3727TIP3    H132596   2.322   3.804  14.364 -0.8617 -0.4743  0.6725
 3727TIP3    H232597   2.261   3.902  14.266 -0.7687 -0.9430  0.1398
 3728TIP3   OH232598   4.024   1.178  11.811  0.2595 -0.0700  0.1274
 3728TIP3    H132599   4.115   1.199  11.832  0.2146 -1.6669  2.3233
 3728TIP3    H232600   3.984   1.162  11.896 -1.7690 -0.5940 -0.8806
 3729TIP3   OH232601   6.695   6.434   2.819  0.2736 -0.1123  0.1175
 3729TIP3    H132602   6.668   6.374   2.889 -1.2691  0.2076 -0.1610
 3729TIP3    H232603   6.748   6.380   2.760  0.0948 -0.8434  0.6096
 3730TIP3   OH232604   1.136   1.398  12.831  0.7708 -0.4963 -0.1226
 3730TIP3    H132605   1.139   1.485  12.791 -2.5354 -0.8425 -1.3916
 3730TIP3    H232606   1.138   1.416  12.925 -0.7104  1.1013 -0.3268
 3731TIP3   OH232607   1.259   1.025   5.901  0.0112 -0.0634  0.1432
 3731TIP3    H132608   1.300   0.986   5.978  0.8874  0.8512  0.1510
 3731TIP3    H232609   1.267   1.119   5.914 -1.6319  0.1468 -0.1180
 3732TIP3   OH232610   1.168   0.110  11.045  0.5387 -0.0379 -0.8319
 3732TIP3    H132611   1.074   0.097  11.034  0.8477 -1.4450 -2.0845
 3732TIP3    H232612   1.189   0.184  10.987 -0.1945  2.1933  1.5707
 3733TIP3   OH232613   2.275   0.013  12.450  0.0842  0.0197  0.2511
 3733TIP3    H132614   2.231  -0.059  12.406  0.6548  0.7415 -1.6280
 3733TIP3    H232615   2.368   0.000  12.430  0.1407  1.5631 -0.6515
 3734TIP3   OH232616   2.221   1.321   2.125 -0.3505  0.2255  0.5205
 3734TIP3    H132617   2.195   1.290   2.038 -0.3048 -0.1251  0.6311
 3734TIP3    H232618   2.303   1.367   2.110  1.3939 -2.5901  0.8290
 3735TIP3   OH232619   1.468   2.751   4.472 -0.2518 -0.1261 -0.2988
 3735TIP3    H132620   1.448   2.680   4.533 -0.6216 -0.3225 -0.6487
 3735TIP3    H232621   1.388   2.764   4.422 -0.0143  0.1722 -0.6088
 3736TIP3   OH232622   1.320   1.452  16.823  0.5802  0.0570  0.2852
 3736TIP3    H132623   1.235   1.408  16.820 -0.4212  1.9116  0.0574
 3736TIP3    H232624   1.373   1.397  16.881 -1.1638 -0.4717  1.4655
 3737TIP3   OH232625   5.573   5.342  12.773  0.3008 -0.5018  0.0093
 3737TIP3    H132626   5.572   5.413  12.837  1.9105 -0.5700  0.1539
 3737TIP3    H232627   5.496   5.289  12.795 -0.7810  1.0362  0.0475
 3738TIP3   OH232628   2.566   0.416   1.903 -0.2151 -0.9387  0.3104
 3738TIP3    H132629   2.564   0.345   1.838 -0.0273  0.5119 -1.3399
 3738TIP3    H232630   2.561   0.370   1.987 -1.1723 -2.8517 -0.7040
 3739TIP3   OH232631   4.561   4.274  15.633  0.0232 -0.0523 -0.5450
 3739TIP3    H132632   4.648   4.240  15.615 -0.6326 -1.1826 -1.6812
 3739TIP3    H232633   4.504   4.232  15.569 -1.4893  0.1183  0.6278
 3740TIP3   OH232634   2.987   6.034   4.055 -0.3933  0.4756  0.1462
 3740TIP3    H132635   2.975   6.011   3.963  2.3959  0.5973 -0.3106
 3740TIP3    H232636   2.952   6.123   4.063  0.0910  0.7775 -0.9820
 3741TIP3   OH232637   5.826   6.148   0.903  0.0902 -0.0492  0.5507
 3741TIP3    H132638   5.794   6.062   0.932  0.0977  0.1167  1.0623
 3741TIP3    H232639   5.884   6.128   0.829 -0.2697 -0.4461  0.3689
 3742TIP3   OH232640   4.215   3.990   2.584  0.6236 -0.4538 -0.4444
 3742TIP3    H132641   4.296   3.958   2.545  0.1961 -2.9139  0.5133
 3742TIP3    H232642   4.234   3.996   2.677  0.0953  0.3408 -0.3748
 3743TIP3   OH232643   3.038   1.387   0.384  0.4084  0.3221  0.0387
 3743TIP3    H132644   3.100   1.393   0.310 -0.1651 -0.5345 -0.5359
 3743TIP3    H232645   3.085   1.427   0.457  1.4130  0.2334 -0.5276
 3744TIP3   OH232646   5.795   1.303   5.556  0.4952  0.3542  0.4882
 3744TIP3    H132647   5.771   1.330   5.645 -2.1490  1.1570 -0.3676
 3744TIP3    H232648   5.750   1.219   5.544  0.6725  0.3425 -0.1359
 3745TIP3   OH232649   2.339   3.390  11.539 -0.9055 -0.4504  0.4217
 3745TIP3    H132650   2.318   3.342  11.619 -1.7277 -0.2761  0.3219
 3745TIP3    H232651   2.388   3.466  11.568 -0.3199 -0.9115  0.6618
 3746TIP3   OH232652   2.895   3.406  14.272 -0.1960 -0.3995  0.2646
 3746TIP3    H132653   2.908   3.443  14.359 -2.5945  1.1160  0.0847
 3746TIP3    H232654   2.981   3.375  14.245  0.8658  0.3095  2.6209
 3747TIP3   OH232655   5.852   5.903  13.483 -0.2191  0.1787  0.3577
 3747TIP3    H132656   5.916   5.915  13.553 -1.5051 -1.1556  1.8362
 3747TIP3    H232657   5.848   5.809  13.469 -0.5812  0.3606 -0.9821
 3748TIP3   OH232658   5.869   4.528   3.507  0.2020 -0.3006 -0.2731
 3748TIP3    H132659   5.819   4.450   3.532 -0.1836  0.0330  0.0089
 3748TIP3    H232660   5.803   4.596   3.496  0.4516 -0.2139 -1.3439
 3749TIP3   OH232661   6.607   5.045   4.264 -0.4586  0.3165  0.2786
 3749TIP3    H132662   6.702   5.047   4.260 -0.3533 -2.0353  0.4931
 3749TIP3    H232663   6.585   4.952   4.268 -2.7782  0.7964 -0.0198
 3750TIP3   OH232664   4.866   4.379   3.932 -0.1957  0.8023  0.2193
 3750TIP3    H132665   4.861   4.392   4.027  0.5683 -2.3978  0.8178
 3750TIP3    H232666   4.959   4.385   3.912 -0.3989  1.9397 -0.4555
 3751TIP3   OH232667   2.017   4.427  14.699 -0.0110 -0.0717 -0.4793
 3751TIP3    H132668   1.965   4.458  14.625  1.5339 -1.9059 -2.4742
 3751TIP3    H232669   2.084   4.493  14.710 -0.6164  0.5223 -0.2885
 3752TIP3   OH232670   0.226   1.678  15.338  0.8204  0.8755 -0.3964
 3752TIP3    H132671   0.166   1.736  15.385  0.7977 -0.4478  1.2825
 3752TIP3    H232672   0.313   1.701  15.371  0.9539  0.8283 -0.7080
 3753TIP3   OH232673   5.972   3.875  12.407  0.7252 -0.5315 -0.1541
 3753TIP3    H132674   5.970   3.913  12.319  1.1285  2.6926  1.0793
 3753TIP3    H232675   6.045   3.813  12.405 -0.0459 -1.4769 -2.3679
 3754TIP3   OH232676   0.348   3.508   5.255 -0.1921  0.3561  0.2488
 3754TIP3    H132677   0.425   3.516   5.199  0.0156  0.0749  0.4905
 3754TIP3    H232678   0.344   3.590   5.304  0.9563 -0.2910  1.4967
 3755TIP3   OH232679   3.656   4.961  12.400  0.3404  0.2831  0.1017
 3755TIP3    H132680   3.587   5.022  12.374  0.0789 -0.3573 -0.8115
 3755TIP3    H232681   3.738   5.008  12.384  0.2835 -0.4627 -3.3747
 3756TIP3   OH232682   5.985   2.683  17.058  0.3096 -0.4045  0.1547
 3756TIP3    H132683   6.051   2.625  17.020  0.3998 -0.2637  0.0928
 3756TIP3    H232684   5.906   2.667  17.008  0.5072  0.0017 -0.3010
 3757TIP3   OH232685   5.455   3.610   0.246 -0.0867  0.8712 -0.1146
 3757TIP3    H132686   5.547   3.637   0.238  0.3718  0.1217  1.8957
 3757TIP3    H232687   5.452   3.522   0.209 -0.0596  1.0042 -0.4343
 3758TIP3   OH232688   4.833   0.410   0.816 -0.4784  0.1005 -0.1900
 3758TIP3    H132689   4.828   0.490   0.869 -0.7763 -1.2524  1.9063
 3758TIP3    H232690   4.742   0.394   0.789 -0.7772 -0.6375  1.1666
 3759TIP3   OH232691   6.331   3.631   1.117 -0.3968  0.2833 -0.1503
 3759TIP3    H132692   6.383   3.703   1.154  0.0395  0.9647 -1.9770
 3759TIP3    H232693   6.394   3.580   1.066 -0.4802 -2.0639  1.8792
 3760TIP3   OH232694   4.831   3.140   0.683 -0.0089 -0.1604 -0.2979
 3760TIP3    H132695   4.856   3.222   0.724 -1.6273  0.3258 -0.2076
 3760TIP3    H232696   4.793   3.088   0.754 -0.5700 -0.2918 -0.6879
 3761TIP3   OH232697   6.513   0.015   1.585  0.1476  0.0468  0.1626
 3761TIP3    H132698   6.526  -0.059   1.645  1.6671  0.0739 -0.0863
 3761TIP3    H232699   6.456  -0.019   1.517  1.7148 -1.2923 -0.5584
 3762TIP3   OH232700   0.914   5.806   2.247  0.7201  0.3685  0.1679
 3762TIP3    H132701   0.853   5.875   2.271  0.1018 -0.4071  0.8941
 3762TIP3    H232702   0.991   5.821   2.301  0.1644 -0.1172  1.1281
 3763TIP3   OH232703   6.792   3.402   3.040 -1.0128 -0.2464  0.1808
 3763TIP3    H132704   6.825   3.312   3.036 -1.2579 -0.3055 -1.5173
 3763TIP3    H232705   6.870   3.456   3.025 -1.0294 -0.2222  0.1804
 3764TIP3   OH232706   6.152   5.449  10.871 -0.0559 -0.0537 -0.8797
 3764TIP3    H132707   6.154   5.538  10.835 -0.5291  0.6001  0.6218
 3764TIP3    H232708   6.072   5.447  10.924  0.4438 -1.0676 -0.1330
 3765TIP3   OH232709   4.116   2.321   4.427 -0.0253 -0.2125 -0.3011
 3765TIP3    H132710   4.118   2.251   4.492 -0.7145 -0.6191 -0.7002
 3765TIP3    H232711   4.025   2.323   4.396 -0.2084  1.3881  0.2529
 3766TIP3   OH232712   6.468   4.951   1.828  0.7462 -0.5023  0.0936
 3766TIP3    H132713   6.542   4.901   1.795  0.7774  0.2795 -1.0708
 3766TIP3    H232714   6.405   4.954   1.756 -0.8155 -1.8400  1.3127
 3767TIP3   OH232715   0.982   0.156   4.815 -0.1145 -0.1791  0.1483
 3767TIP3    H132716   0.959   0.243   4.781  0.9372  0.8992  2.0434
 3767TIP3    H232717   0.897   0.117   4.839 -0.6172  0.2176 -0.9303
 3768TIP3   OH232718   2.305   0.516   1.687 -0.3308 -0.1337 -0.3096
 3768TIP3    H132719   2.358   0.437   1.697 -1.0814 -0.8274 -1.5524
 3768TIP3    H232720   2.239   0.510   1.755 -0.3082 -0.5239 -0.3209
 3769TIP3   OH232721   4.271   5.177   2.758  0.4381 -0.8193  0.0391
 3769TIP3    H132722   4.218   5.151   2.834  2.9631 -1.5677  1.6763
 3769TIP3    H232723   4.276   5.272   2.763  0.0197 -0.8154  0.4229
 3770TIP3   OH232724   1.791   6.426  16.846  0.3464  0.2211  0.9793
 3770TIP3    H132725   1.817   6.413  16.937 -1.6699  0.3657  1.6158
 3770TIP3    H232726   1.774   6.520  16.839 -1.6810 -0.0862  1.1201
 3771TIP3   OH232727   5.677   5.761   1.998  0.2965  0.2824 -0.5236
 3771TIP3    H132728   5.684   5.836   1.939 -2.8024  1.9373  0.9487
 3771TIP3    H232729   5.709   5.794   2.082 -0.6964 -0.1406  0.0373
 3772TIP3   OH232730   0.502   4.894   3.503  0.1171  0.3534 -0.3196
 3772TIP3    H132731   0.563   4.836   3.549 -1.2973  0.1470  1.3948
 3772TIP3    H232732   0.509   4.977   3.549 -1.4985  0.0746  0.5071
 3773TIP3   OH232733   6.039   5.794   5.700 -0.2110 -0.1081 -0.1279
 3773TIP3    H132734   6.090   5.743   5.638 -0.0206 -0.0049 -0.0561
 3773TIP3    H232735   6.026   5.879   5.658  1.1449  0.4723  0.5561
 3774TIP3   OH232736   4.126   1.373  16.294  0.1859  0.8203 -0.0389
 3774TIP3    H132737   4.158   1.329  16.215  2.0389  1.4634  0.3122
 3774TIP3    H232738   4.064   1.311  16.332  0.0326  0.0664 -1.4490
 3775TIP3   OH232739   3.696   6.146   0.622 -0.1061 -0.3955  0.0166
 3775TIP3    H132740   3.660   6.058   0.619 -1.5183  0.1505 -1.8762
 3775TIP3    H232741   3.789   6.135   0.604 -0.0729 -1.5488  0.7906
 3776TIP3   OH232742   3.847   0.343  14.438  0.3375 -0.3406 -0.1411
 3776TIP3    H132743   3.808   0.383  14.517 -0.3343 -0.0437 -0.6114
 3776TIP3    H232744   3.773   0.300  14.395  0.7584 -0.7315 -0.4735
 3777TIP3   OH232745   5.106   1.214   4.463  0.2843 -0.0407 -0.2088
 3777TIP3    H132746   5.197   1.239   4.479  0.1550  2.3642 -2.5740
 3777TIP3    H232747   5.059   1.240   4.542  1.3286  0.5862  0.2218
 3778TIP3   OH232748   4.859   4.656  11.607 -0.2795  0.1554  0.2370
 3778TIP3    H132749   4.835   4.742  11.574  0.6048  0.4937  0.4465
 3778TIP3    H232750   4.939   4.671  11.656 -0.7425 -0.6008  1.2488
 3779TIP3   OH232751   2.594   5.714  12.652 -0.0176 -0.3654 -0.2685
 3779TIP3    H132752   2.505   5.739  12.675 -0.0950 -0.9335  0.0694
 3779TIP3    H232753   2.648   5.747  12.723 -0.3145 -2.5648  1.0934
 3780TIP3   OH232754   0.645   3.363  12.773  0.2074 -0.2414 -0.4657
 3780TIP3    H132755   0.572   3.323  12.726  1.1074 -3.3760  0.5513
 3780TIP3    H232756   0.705   3.392  12.705  0.0048 -1.7281 -1.3298
 3781TIP3   OH232757   6.621   0.410  15.002  0.0990  0.2232 -0.2247
 3781TIP3    H132758   6.551   0.423  14.939 -0.2989 -0.4341  0.0754
 3781TIP3    H232759   6.670   0.493  15.001 -0.1135  0.3465 -1.1200
 3782TIP3   OH232760   4.223   2.418  14.496 -0.2842 -0.6612  0.7974
 3782TIP3    H132761   4.133   2.390  14.513 -0.2493 -0.7943  0.7596
 3782TIP3    H232762   4.228   2.426  14.401 -0.1347 -1.0590  0.7714
 3783TIP3   OH232763   4.379   0.892   1.629 -0.0933  0.2185  0.5285
 3783TIP3    H132764   4.392   0.880   1.535  0.6377  1.7673  0.4006
 3783TIP3    H232765   4.298   0.942   1.637  1.3626  2.7212  0.4964
 3784TIP3   OH232766   1.353   2.344  10.503  0.4871 -0.2834 -0.3044
 3784TIP3    H132767   1.440   2.330  10.465 -0.0407 -2.4266 -0.8530
 3784TIP3    H232768   1.298   2.370  10.429  0.3401 -0.4658 -0.2616
 3785TIP3   OH232769   6.635   4.749   3.222  0.4112  0.0678 -0.2813
 3785TIP3    H132770   6.631   4.753   3.318 -1.2574 -2.3454 -0.1564
 3785TIP3    H232771   6.547   4.773   3.193  0.4646 -0.6812 -1.1032
 3786TIP3   OH232772   2.139   0.368  15.383  0.0759 -0.1301 -0.3997
 3786TIP3    H132773   2.189   0.416  15.317 -1.7328  1.2752 -0.8087
 3786TIP3    H232774   2.187   0.285  15.393  0.9750  0.0354 -2.7096
 3787TIP3   OH232775   3.764   5.192   2.043 -0.4682 -0.1157  0.0292
 3787TIP3    H132776   3.807   5.169   2.125 -0.6178  1.3636  0.5473
 3787TIP3    H232777   3.801   5.131   1.979  1.7233  0.4615  0.6401
 3788TIP3   OH232778   5.303   0.519  12.816  0.2739 -0.2697 -0.0284
 3788TIP3    H132779   5.279   0.606  12.846  2.6759  0.9039 -1.2443
 3788TIP3    H232780   5.278   0.461  12.888  1.5451  1.8197  2.2199
 3789TIP3   OH232781   2.195   5.285  10.874  0.1930 -0.2308 -0.2665
 3789TIP3    H132782   2.115   5.252  10.914 -1.4255  2.0877 -1.3336
 3789TIP3    H232783   2.218   5.219  10.808  0.2171 -1.7540  1.1927
 3790TIP3   OH232784   0.807   1.005  16.050  0.1984 -0.5191  0.1968
 3790TIP3    H132785   0.749   0.953  15.995 -1.5453 -0.1697  1.6035
 3790TIP3    H232786   0.888   1.012  16.000 -1.1023 -0.6714 -2.0567
 3791TIP3   OH232787   6.356   3.029  14.457  0.5113  0.4378  0.3431
 3791TIP3    H132788   6.363   3.095  14.526  1.7475  0.1211  0.5275
 3791TIP3    H232789   6.391   3.072  14.379 -0.9477  0.8205 -0.1324
 3792TIP3   OH232790   6.817   2.983  14.356  0.9208  0.6411 -0.7432
 3792TIP3    H132791   6.844   2.894  14.333  2.4933  0.9806 -0.3466
 3792TIP3    H232792   6.898   3.035  14.350 -0.0282  2.1349 -1.3472
 3793TIP3   OH232793   2.833   0.028  15.495 -0.6471 -0.1311 -0.1480
 3793TIP3    H132794   2.810   0.047  15.586 -0.8590 -0.9148 -0.0332
 3793TIP3    H232795   2.762  -0.028  15.464  0.5455 -1.7011 -0.1208
 3794TIP3   OH232796   6.738   2.897   5.434 -0.5467  0.0283 -0.4629
 3794TIP3    H132797   6.822   2.855   5.453 -0.8282  0.1602  1.2133
 3794TIP3    H232798   6.672   2.830   5.454 -0.8842  0.2524 -0.8084
 3795TIP3   OH232799   2.693   1.108   4.651  0.0248  0.0548  0.0882
 3795TIP3    H132800   2.717   1.062   4.731  1.1853 -1.0989 -0.8772
 3795TIP3    H232801   2.770   1.162   4.630 -0.6866  1.1963  0.3167
 3796TIP3   OH232802   5.181   0.038   1.706 -0.1137  0.2774 -0.7205
 3796TIP3    H132803   5.158   0.045   1.799  0.0428  1.1548 -0.7398
 3796TIP3    H232804   5.209  -0.053   1.695 -0.7106 -0.0002 -0.0447
 3797TIP3   OH232805   6.349   6.759  12.534  0.4732  0.4038 -0.3586
 3797TIP3    H132806   6.344   6.762  12.629  0.4261  0.5065 -0.3645
 3797TIP3    H232807   6.392   6.675  12.515 -1.7423 -0.8235 -0.3039
 3798TIP3   OH232808   1.040   2.988  13.482 -0.8572  0.3047  0.3639
 3798TIP3    H132809   1.083   3.038  13.551 -0.0573 -1.2558  1.0381
 3798TIP3    H232810   1.103   2.990  13.409  0.5416 -2.1082  1.4031
 3799TIP3   OH232811   2.517   1.658   4.818 -0.3846 -0.0846 -0.2690
 3799TIP3    H132812   2.423   1.649   4.800 -0.6054  0.6884  0.4097
 3799TIP3    H232813   2.560   1.628   4.738 -1.2415  0.2779 -0.8820
 3800TIP3   OH232814   3.995   0.465   5.223  0.0411  0.2232 -0.0238
 3800TIP3    H132815   3.904   0.443   5.242  0.8985 -2.4067  1.6289
 3800TIP3    H232816   3.999   0.472   5.128 -1.4623 -1.9979 -0.3141
 3801TIP3   OH232817   2.820   2.790  15.771  0.5001  0.8104  0.5301
 3801TIP3    H132818   2.890   2.731  15.799  1.5665 -0.0682 -3.3443
 3801TIP3    H232819   2.865   2.868  15.740 -0.1918  0.4429 -1.5637
 3802TIP3   OH232820   6.550   2.588  14.326  0.2369  0.0986 -0.1742
 3802TIP3    H132821   6.486   2.517  14.336  0.2911 -0.2749 -2.1403
 3802TIP3    H232822   6.519   2.656  14.386 -0.7063 -0.9630  0.5890
 3803TIP3   OH232823   1.418   2.936   3.025  0.1167 -0.0710 -0.2728
 3803TIP3    H132824   1.399   2.894   2.941 -0.7422 -2.6077  1.0860
 3803TIP3    H232825   1.339   2.984   3.046 -0.1338 -0.4489 -0.3429
 3804TIP3   OH232826   4.912   4.996   2.616  0.1725  0.8046 -0.0355
 3804TIP3    H132827   4.838   4.990   2.556  0.9726  0.1898 -0.9999
 3804TIP3    H232828   4.986   4.961   2.566  1.2228  1.8683  0.7225
 3805TIP3   OH232829   5.966   6.194  14.789  0.4587  0.3148  0.3918
 3805TIP3    H132830   5.950   6.175  14.696  0.6561  1.2971  0.1494
 3805TIP3    H232831   5.908   6.133  14.835  1.0956 -0.9035 -0.3362
 3806TIP3   OH232832   6.406   3.741  15.300 -0.8397  0.7043  0.1718
 3806TIP3    H132833   6.490   3.741  15.255 -1.3228  0.9246 -0.7614
 3806TIP3    H232834   6.366   3.825  15.277 -0.6894  1.2674  1.8445
 3807TIP3   OH232835   1.137   3.469  16.576  0.5712  0.0577 -0.1382
 3807TIP3    H132836   1.130   3.560  16.606 -0.6962 -0.2950  0.7289
 3807TIP3    H232837   1.122   3.417  16.654 -1.6519 -0.8970 -1.1123
 3808TIP3   OH232838   1.804   1.867   0.280  0.3177 -0.1720 -0.0763
 3808TIP3    H132839   1.725   1.863   0.226 -0.8632 -2.3253  1.6299
 3808TIP3    H232840   1.863   1.804   0.239  1.2959  1.5569 -1.4475
 3809TIP3   OH232841   1.630   0.571   3.747  0.9808 -0.2149 -0.1511
 3809TIP3    H132842   1.719   0.560   3.713  0.3708  0.5407 -2.1368
 3809TIP3    H232843   1.613   0.665   3.738 -0.3554 -0.4958 -0.7283
 3810TIP3   OH232844   1.191   6.606  13.493  0.2355 -0.2710  0.4375
 3810TIP3    H132845   1.111   6.563  13.523  0.3700  0.1952  1.4787
 3810TIP3    H232846   1.162   6.661  13.420 -0.2203 -0.8179  0.1946
 3811TIP3   OH232847   2.031   3.238  13.057  0.6411 -0.3801 -0.6274
 3811TIP3    H132848   2.105   3.257  12.999  0.3112 -1.0410 -1.2814
 3811TIP3    H232849   1.954   3.258  13.004  0.3375  0.6247  0.1601
 3812TIP3   OH232850   6.483   2.006  15.992 -0.1773 -0.2605  0.4326
 3812TIP3    H132851   6.515   2.081  16.041 -1.2238  0.9813 -0.6965
 3812TIP3    H232852   6.552   1.988  15.928 -0.3763  0.4241  0.0199
 3813TIP3   OH232853   6.362   5.971   0.253 -0.2058  0.3333 -0.4099
 3813TIP3    H132854   6.304   5.955   0.178 -1.1931  0.4494  0.3080
 3813TIP3    H232855   6.406   6.053   0.232 -1.5704  1.1318 -0.2142
 3814TIP3   OH232856   3.906   2.438   1.297 -0.3563  0.0005 -0.4801
 3814TIP3    H132857   3.912   2.529   1.326  0.3010 -0.9116  2.6269
 3814TIP3    H232858   3.996   2.405   1.305 -0.7834 -1.2005 -0.4694
 3815TIP3   OH232859   1.617   3.419   2.948 -0.0774 -0.0974 -0.4646
 3815TIP3    H132860   1.685   3.486   2.940 -0.1865 -0.0772 -1.2540
 3815TIP3    H232861   1.590   3.424   3.040  0.3843  0.4827 -0.3534
 3816TIP3   OH232862   2.532   5.383   0.524 -0.2954 -0.4901 -0.3892
 3816TIP3    H132863   2.445   5.423   0.531  0.4149  1.2023 -0.9364
 3816TIP3    H232864   2.573   5.401   0.609 -0.7788 -2.1356  0.2395
 3817TIP3   OH232865   6.503   0.865   2.622 -0.7054  0.2298  0.1121
 3817TIP3    H132866   6.448   0.790   2.646 -0.2154 -0.5629 -1.1080
 3817TIP3    H232867   6.592   0.836   2.639 -0.3930 -0.0881 -1.7678
 3818TIP3   OH232868   5.729   4.507  15.982 -0.4069  0.0434 -0.0189
 3818TIP3    H132869   5.666   4.544  15.919 -0.7013  0.4337  0.5027
 3818TIP3    H232870   5.775   4.440  15.932 -1.5019 -0.5165 -0.3020
 3819TIP3   OH232871   3.136   0.091  15.001 -0.0522 -0.4190 -0.1167
 3819TIP3    H132872   3.143   0.098  15.097 -0.4520 -1.2207 -0.0276
 3819TIP3    H232873   3.048   0.124  14.981 -1.1838 -3.0753  0.1141
 3820TIP3   OH232874   3.775   3.485   3.689  0.3007 -0.2532 -0.2229
 3820TIP3    H132875   3.758   3.454   3.778 -0.7516 -1.6772 -0.8805
 3820TIP3    H232876   3.709   3.553   3.675  0.3319 -0.1734  0.0168
 3821TIP3   OH232877   4.695   5.662   4.277  0.3490  0.0330 -0.4411
 3821TIP3    H132878   4.722   5.575   4.305 -0.2890  0.1972  0.7642
 3821TIP3    H232879   4.602   5.653   4.257  0.1600  0.5373  0.1782
 3822TIP3   OH232880   0.823   1.127  17.015 -0.2476  0.1868 -0.1861
 3822TIP3    H132881   0.746   1.121  17.072  0.1154 -0.7589  0.2303
 3822TIP3    H232882   0.788   1.151  16.929 -1.1092 -0.9923 -0.1884
 3823TIP3   OH232883   4.922   5.158   1.688 -0.8599 -0.3052  0.2259
 3823TIP3    H132884   5.007   5.113   1.694 -1.8180 -2.0850  1.4449
 3823TIP3    H232885   4.880   5.118   1.612 -0.3195  1.1861 -0.9018
 3824TIP3   OH232886   1.311   0.096  16.342  0.0976 -0.2737  0.4160
 3824TIP3    H132887   1.397   0.056  16.333 -0.1343 -0.5165 -1.1307
 3824TIP3    H232888   1.250   0.031  16.306 -0.2438  1.4736 -2.5722
 3825TIP3   OH232889   5.757   3.479   1.485 -0.0493 -0.0239  0.1395
 3825TIP3    H132890   5.763   3.393   1.443 -1.0227 -0.2952  0.5213
 3825TIP3    H232891   5.842   3.491   1.527 -0.3215 -1.3735  1.1474
 3826TIP3   OH232892   4.969   1.343  13.113  0.5372 -0.1111  0.4699
 3826TIP3    H132893   4.968   1.336  13.017  0.2175  0.2536  0.4408
 3826TIP3    H232894   4.896   1.402  13.133 -1.6948 -2.8989  1.1884
 3827TIP3   OH232895   4.810   4.050  10.629 -0.9018  0.1595 -0.1199
 3827TIP3    H132896   4.791   4.143  10.623 -0.1002  0.2597 -1.3037
 3827TIP3    H232897   4.810   4.019  10.538 -0.4364 -0.8468  0.2051
 3828TIP3   OH232898   5.027   2.075  11.347  0.0367  0.3111  0.2401
 3828TIP3    H132899   5.045   2.104  11.258  0.3902 -1.6899 -0.3926
 3828TIP3    H232900   5.079   2.133  11.402 -0.8889  2.1711 -0.7451
 3829TIP3   OH232901   3.645   6.389  11.860  0.2927 -0.0553 -0.3226
 3829TIP3    H132902   3.607   6.469  11.825  1.6354  1.1172  0.7780
 3829TIP3    H232903   3.572   6.328  11.867 -0.9161  1.3442 -0.3877
 3830TIP3   OH232904   5.368   0.700  13.792  0.1335  0.4473 -0.4907
 3830TIP3    H132905   5.459   0.705  13.765  1.0339  0.0875  2.1323
 3830TIP3    H232906   5.343   0.609  13.778  1.1463 -0.1689  1.3328
 3831TIP3   OH232907   6.005   0.412  11.031 -0.5575  0.5371 -0.2834
 3831TIP3    H132908   6.081   0.450  10.986 -1.8876 -0.1043 -3.2625
 3831TIP3    H232909   6.015   0.318  11.020 -0.0989  0.1943  2.3461
 3832TIP3   OH232910   4.771   5.496  13.400  0.1273  0.5111  0.5905
 3832TIP3    H132911   4.695   5.455  13.442  1.6655 -2.3831  0.8327
 3832TIP3    H232912   4.746   5.503  13.308 -1.3999  2.1856  1.0819
 3833TIP3   OH232913   1.233   4.625   3.350 -0.5218  0.6989 -0.1033
 3833TIP3    H132914   1.192   4.606   3.434  0.1387  0.5694  0.1951
 3833TIP3    H232915   1.209   4.551   3.294 -0.6300  0.5871  0.0926
 3834TIP3   OH232916   0.575   3.842   4.794  0.6267 -0.6806  0.2204
 3834TIP3    H132917   0.596   3.804   4.709  2.4454  0.4684  0.1088
 3834TIP3    H232918   0.521   3.919   4.773  1.7415  0.0650  0.0196
 3835TIP3   OH232919   2.366   6.076   6.501 -0.1586  0.4198  0.1222
 3835TIP3    H132920   2.373   6.065   6.407  1.0183  0.2422  0.2112
 3835TIP3    H232921   2.394   6.166   6.518 -0.9341  0.6427  0.2524
 3836TIP3   OH232922   0.923   6.446  12.532 -0.3485 -0.7565 -0.4672
 3836TIP3    H132923   0.976   6.371  12.556  0.3483  0.3193  1.5925
 3836TIP3    H232924   0.838   6.430  12.572 -0.4133 -0.7475 -0.5991
 3837TIP3   OH232925   6.553   2.244   3.843  0.0507  0.2952  0.3617
 3837TIP3    H132926   6.639   2.206   3.827 -0.5394 -1.5377  1.2887
 3837TIP3    H232927   6.571   2.334   3.870  1.7416 -0.3128  1.3878
 3838TIP3   OH232928   2.906   3.869  12.746  0.2935 -0.3828  0.3148
 3838TIP3    H132929   2.912   3.943  12.685 -0.1117  0.8983  1.7796
 3838TIP3    H232930   2.816   3.870  12.777  0.7212 -0.4722  1.5969
 3839TIP3   OH232931   1.156   4.222   3.799  0.1181 -0.0464  0.7099
 3839TIP3    H132932   1.207   4.183   3.728 -0.9043  1.2896 -0.8330
 3839TIP3    H232933   1.113   4.148   3.842  0.1204 -0.8208 -0.5865
 3840TIP3   OH232934   6.640   2.441   5.031 -0.9634 -0.1038 -0.2795
 3840TIP3    H132935   6.602   2.529   5.041 -0.1412  0.1902  0.3709
 3840TIP3    H232936   6.695   2.430   5.109  0.2873 -0.5115 -1.1943
 3841TIP3   OH232937   6.151   6.030  14.617 -0.3838 -0.1833 -0.1526
 3841TIP3    H132938   6.179   6.103  14.561  0.0960 -1.6379 -1.9274
 3841TIP3    H232939   6.092   5.980  14.561  1.0440 -2.3625  0.1668
 3842TIP3   OH232940   6.779   6.349   5.113  0.0624  0.1245 -0.0827
 3842TIP3    H132941   6.703   6.367   5.057  0.7756  1.3003 -0.7213
 3842TIP3    H232942   6.787   6.428   5.167 -0.4418 -0.8775  1.5237
 3843TIP3   OH232943   2.029   1.605  15.917 -0.2452  0.2938 -0.7025
 3843TIP3    H132944   2.048   1.518  15.954  1.7924  1.8720  2.4659
 3843TIP3    H232945   1.942   1.626  15.950  0.9121  1.0161  2.2345
 3844TIP3   OH232946   6.806   5.985  14.592  0.3352  0.0256 -0.5899
 3844TIP3    H132947   6.713   5.992  14.615  0.3355 -1.8743  0.1172
 3844TIP3    H232948   6.836   6.076  14.589 -1.0318  0.6242  1.3697
 3845TIP3   OH232949   5.894   5.816   3.314  0.3102  0.6518  0.3582
 3845TIP3    H132950   5.817   5.845   3.264 -0.5816 -0.4468  1.0611
 3845TIP3    H232951   5.923   5.737   3.269  0.4540  0.5397  0.6460
 3846TIP3   OH232952   0.844   4.000  12.183  0.1297 -0.6224  0.6944
 3846TIP3    H132953   0.911   3.990  12.116 -0.0849 -0.4768  0.4530
 3846TIP3    H232954   0.870   4.078  12.232 -0.4613  0.1000 -0.1146
 3847TIP3   OH232955   1.559   0.554   4.064 -0.0711 -0.1841  0.2441
 3847TIP3    H132956   1.627   0.581   4.126 -0.2971  0.9683  0.0217
 3847TIP3    H232957   1.603   0.553   3.979 -0.2104  0.1042  0.1666
 3848TIP3   OH232958   3.789   6.011   3.779 -0.1093 -0.0356  0.5692
 3848TIP3    H132959   3.783   6.045   3.868  0.0890 -2.0278  1.4014
 3848TIP3    H232960   3.814   5.919   3.790 -2.2650 -0.9594 -1.4377
 3849TIP3   OH232961   4.636   2.922  13.143 -0.7874 -0.6609 -0.1248
 3849TIP3    H132962   4.545   2.928  13.173 -0.9989 -1.8349 -0.5079
 3849TIP3    H232963   4.667   2.838  13.176  0.3488 -0.0185  0.4783
 3850TIP3   OH232964   5.410   0.210   2.255  0.0156 -0.0499  0.1142
 3850TIP3    H132965   5.373   0.160   2.328 -0.9273  0.8779  0.2865
 3850TIP3    H232966   5.349   0.197   2.183  0.7026 -0.5846 -0.3884
 3851TIP3   OH232967   2.093   1.109   1.341  0.7849  0.6718 -0.2863
 3851TIP3    H132968   2.047   1.182   1.383  0.2558 -1.3505  2.9187
 3851TIP3    H232969   2.053   1.104   1.253 -0.3381  3.1245 -0.0028
 3852TIP3   OH232970   1.501   3.895  14.202  0.0513 -0.7092  0.2168
 3852TIP3    H132971   1.528   3.911  14.111  1.0287 -0.3727  0.5438
 3852TIP3    H232972   1.479   3.982  14.235 -0.6035 -0.8737  0.2108
 3853TIP3   OH232973   3.729   2.960   4.426  0.1873 -0.5846 -0.2903
 3853TIP3    H132974   3.639   2.929   4.430  0.5452 -1.5926  1.9853
 3853TIP3    H232975   3.729   3.041   4.478  0.6587 -0.8715  0.1715
 3854TIP3   OH232976   2.478   1.346  12.082 -0.1379  0.0493  0.3404
 3854TIP3    H132977   2.505   1.376  11.995  0.1367  0.4193  0.5500
 3854TIP3    H232978   2.527   1.264  12.095  1.0025  0.7765  0.7674
 3855TIP3   OH232979   0.602   3.598  11.935 -0.1888 -0.5415  0.1899
 3855TIP3    H132980   0.602   3.668  12.001  0.2594  1.3520 -1.7042
 3855TIP3    H232981   0.584   3.643  11.853  3.0241 -2.1439 -1.5893
 3856TIP3   OH232982   6.410   5.689  15.529 -0.5150 -0.3108 -0.0741
 3856TIP3    H132983   6.484   5.684  15.590 -0.8520 -0.0253  0.3603
 3856TIP3    H232984   6.333   5.703  15.585 -0.7463  0.6237 -0.5980
 3857TIP3   OH232985   1.656   5.728  14.221  0.0274 -0.4169  0.5992
 3857TIP3    H132986   1.563   5.713  14.236 -0.0497  0.6797  1.3206
 3857TIP3    H232987   1.699   5.671  14.284 -0.1501 -0.7572  0.4190
 3858TIP3   OH232988   1.216   4.025  14.441  0.2758  0.3889  0.0010
 3858TIP3    H132989   1.281   4.076  14.392  0.8399  0.2540  0.5974
 3858TIP3    H232990   1.253   4.018  14.529 -1.2299  1.5391  0.7629
 3859TIP3   OH232991   2.012   2.776   3.793  0.2928  0.4512  0.6629
 3859TIP3    H132992   1.966   2.721   3.730  0.8355  0.8655 -0.1038
 3859TIP3    H232993   1.942   2.817   3.844 -0.1214 -1.0628  1.3736
 3860TIP3   OH232994   6.592   0.733  16.587  0.2835 -0.0786  0.2406
 3860TIP3    H132995   6.533   0.808  16.580  1.2488  0.8052  1.1578
 3860TIP3    H232996   6.538   0.664  16.625 -0.2095  0.6836  0.9788
 3861TIP3   OH232997   4.452   3.196   4.346  0.2360 -0.2479 -0.1813
 3861TIP3    H132998   4.530   3.160   4.305 -0.2073 -0.8862 -0.4849
 3861TIP3    H232999   4.379   3.153   4.301 -0.3170  0.9674 -0.4973
 3862TIP3   OH233000   5.290   3.176   2.843 -0.0077  0.7595  0.0260
 3862TIP3    H133001   5.356   3.158   2.911  0.5458  0.8444 -0.4779
 3862TIP3    H233002   5.314   3.263   2.809  0.0573  0.4755 -0.6614
 3863TIP3   OH233003   1.008   2.655  13.660 -0.4172  0.4254 -0.0998
 3863TIP3    H133004   0.945   2.724  13.642 -1.5436 -0.5462 -0.0366
 3863TIP3    H233005   1.061   2.649  13.581 -0.7966  0.8536 -0.3884
 3864TIP3   OH233006   4.422   2.645  16.297 -0.0676 -0.5244 -0.3830
 3864TIP3    H133007   4.463   2.653  16.211  2.4521 -1.2652  0.6819
 3864TIP3    H233008   4.403   2.552  16.306  0.3366 -0.5564  0.1536
 3865TIP3   OH233009   1.636   3.665   4.910 -0.7035  0.7161  0.0546
 3865TIP3    H133010   1.634   3.760   4.923 -0.5672  0.8396 -0.7617
 3865TIP3    H233011   1.568   3.631   4.967 -2.3395  1.5152 -1.3382
 3866TIP3   OH233012   5.595   4.643  14.372  0.1391 -0.4943 -0.3031
 3866TIP3    H133013   5.633   4.671  14.289  2.4173 -1.1935  0.4366
 3866TIP3    H233014   5.602   4.547  14.371  0.1761 -0.5150  0.6849
 3867TIP3   OH233015   4.128   6.333  14.530  0.6058  0.0627 -0.1977
 3867TIP3    H133016   4.088   6.262  14.480  2.2087 -2.0356  1.3166
 3867TIP3    H233017   4.090   6.325  14.617  1.2880  0.6545  0.1626
 3868TIP3   OH233018   0.064   5.232  11.261  0.3552  0.3608 -0.3567
 3868TIP3    H133019   0.024   5.150  11.230  1.3546  0.2466 -1.4007
 3868TIP3    H233020   0.016   5.252  11.342 -0.2549 -0.9786 -0.3476
 3869TIP3   OH233021   0.626   4.221  15.363  0.1363 -0.1663 -0.0194
 3869TIP3    H133022   0.705   4.201  15.413  1.5822  0.4983 -1.9400
 3869TIP3    H233023   0.655   4.226  15.273 -1.6342  2.5526 -0.5414
 3870TIP3   OH233024   3.119   1.855  12.057  0.1242  0.3266  0.1751
 3870TIP3    H133025   3.156   1.931  12.102  1.1788  0.0999 -0.2766
 3870TIP3    H233026   3.177   1.783  12.080 -0.2267 -0.1120 -0.2939
 3871TIP3   OH233027   5.576   1.033   3.786 -0.3134  0.3858  0.0572
 3871TIP3    H133028   5.578   1.014   3.693 -1.0294 -0.9759  0.2893
 3871TIP3    H233029   5.484   1.028   3.810 -0.1216  0.5702  0.8697
 3872TIP3   OH233030   4.335   0.232  12.053  0.0465  0.3084  0.3073
 3872TIP3    H133031   4.410   0.280  12.086  0.9149  0.1218 -1.2856
 3872TIP3    H233032   4.364   0.141  12.049 -0.2924  0.2181 -0.2104
 3873TIP3   OH233033   1.223   4.922  15.316  0.4407 -0.0213 -0.5296
 3873TIP3    H133034   1.135   4.895  15.290  0.2064  0.1941  0.0105
 3873TIP3    H233035   1.264   4.841  15.346  0.5512 -0.1852 -1.1273
 3874TIP3   OH233036   1.574   6.031  12.874 -0.6957  0.2737  0.6429
 3874TIP3    H133037   1.593   6.047  12.782  1.4619  1.1743  1.1913
 3874TIP3    H233038   1.483   6.001  12.874 -1.8836  3.3010 -1.4608
 3875TIP3   OH233039   5.276   1.818  14.839  0.1351  0.2183 -0.1631
 3875TIP3    H133040   5.330   1.742  14.861 -1.2258 -0.5192  0.7378
 3875TIP3    H233041   5.279   1.822  14.743  0.3958 -0.8498 -0.2111
 3876TIP3   OH233042   4.391   3.847  14.827  0.3315 -0.5967 -0.0549
 3876TIP3    H133043   4.464   3.811  14.778 -0.3883 -1.1893 -0.7197
 3876TIP3    H233044   4.374   3.932  14.785  0.0364 -0.8806 -0.5122
 3877TIP3   OH233045   3.627   4.652   4.844 -0.4254 -0.2406  0.1461
 3877TIP3    H133046   3.678   4.587   4.892 -0.5723  0.0543  0.7063
 3877TIP3    H233047   3.545   4.607   4.823 -0.9354  0.0799  1.4080
 3878TIP3   OH233048   6.026   1.499  11.219 -0.3476 -0.2210  0.0864
 3878TIP3    H133049   6.073   1.527  11.298  0.5281 -2.2212  0.3411
 3878TIP3    H233050   5.934   1.516  11.239  0.0879  2.4952  0.1250
 3879TIP3   OH233051   6.458   2.635   3.314  0.3944  0.1593  0.6317
 3879TIP3    H133052   6.420   2.663   3.230  0.2320 -1.2066  0.2154
 3879TIP3    H233053   6.547   2.670   3.313  0.6255 -0.4019 -0.4374
 3880TIP3   OH233054   1.540   4.732   3.681  0.5597  0.2417 -0.4136
 3880TIP3    H133055   1.614   4.693   3.729  0.7488  0.1406 -0.7880
 3880TIP3    H233056   1.515   4.807   3.734  0.6795  0.0510 -0.0783
 3881TIP3   OH233057   1.813   5.438  13.243  0.1058 -0.2166  0.1718
 3881TIP3    H133058   1.802   5.517  13.298  0.8777  0.1778 -0.2316
 3881TIP3    H233059   1.792   5.366  13.302  1.1049  0.1861  1.0586
 3882TIP3   OH233060   1.654   1.288  16.338 -0.2852 -0.2509 -0.0002
 3882TIP3    H133061   1.637   1.197  16.312 -0.5472 -0.4838  0.9527
 3882TIP3    H233062   1.569   1.331  16.332 -0.3149 -0.2653  0.3078
 3883TIP3   OH233063   4.108   4.902   5.023  0.5306 -0.0651  0.2802
 3883TIP3    H133064   4.155   4.843   4.964 -0.1578  0.7618 -1.1616
 3883TIP3    H233065   4.125   4.867   5.110  2.1448 -0.9437 -0.3374
 3884TIP3   OH233066   6.702   4.251  12.134 -0.5352 -0.2588  0.0878
 3884TIP3    H133067   6.795   4.259  12.157 -0.3778  0.6587 -0.8080
 3884TIP3    H233068   6.661   4.216  12.213  0.9862 -3.4591 -0.3731
 3885TIP3   OH233069   1.419   0.467   5.146  0.4210  0.3542 -0.3730
 3885TIP3    H133070   1.356   0.516   5.198  0.4307  0.0231 -0.0455
 3885TIP3    H233071   1.503   0.509   5.163  0.4148  0.2832 -0.1658
 3886TIP3   OH233072   1.578   2.717  14.997 -0.2909  0.1071  0.2729
 3886TIP3    H133073   1.595   2.805  14.963 -1.8761  0.5956  0.6316
 3886TIP3    H233074   1.483   2.706  14.986  0.0465 -2.0507 -0.8884
 3887TIP3   OH233075   0.838   1.415   3.527 -0.4393  0.3671  0.2025
 3887TIP3    H133076   0.922   1.378   3.498 -0.6239 -0.7440  0.9933
 3887TIP3    H233077   0.781   1.339   3.537 -1.9496  1.1990 -1.4698
 3888TIP3   OH233078   4.329   1.757  12.697 -0.2222 -0.2435 -0.4008
 3888TIP3    H133079   4.412   1.801  12.677 -0.0950 -0.7061 -0.9086
 3888TIP3    H233080   4.265   1.829  12.701 -0.1945 -0.0739 -2.1819
 3889TIP3   OH233081   1.870   3.201   4.500 -0.3063 -0.0222  0.8286
 3889TIP3    H133082   1.849   3.269   4.563  0.0994 -0.0813  1.0341
 3889TIP3    H233083   1.834   3.121   4.538  1.3591 -0.3501  1.8107
 3890TIP3   OH233084   0.309   4.422   0.106  0.5086 -0.4725 -0.0576
 3890TIP3    H133085   0.310   4.367   0.184 -0.2474  0.9336  1.0016
 3890TIP3    H233086   0.288   4.362   0.035  2.2321 -1.9736  0.6283
 3891TIP3   OH233087   6.255   1.475  12.006  0.1140  0.0308  0.5518
 3891TIP3    H133088   6.175   1.517  11.972 -0.2989 -1.5482 -0.5659
 3891TIP3    H233089   6.229   1.441  12.092 -0.2768 -0.0283  0.4165
 3892TIP3   OH233090   0.835   0.957  15.285 -0.3915 -0.3017  0.6016
 3892TIP3    H133091   0.919   0.935  15.326 -0.4349 -1.0015  0.3108
 3892TIP3    H233092   0.844   1.050  15.262 -0.1767 -0.0340  1.7286
 3893TIP3   OH233093   6.215   5.361   3.339 -0.3639  0.3532 -0.0813
 3893TIP3    H133094   6.172   5.287   3.381 -0.9110  0.8116  0.1802
 3893TIP3    H233095   6.248   5.414   3.411  2.0204 -0.7337 -0.2501
 3894TIP3   OH233096   4.180   4.770  12.494  0.0742  0.1517 -0.1386
 3894TIP3    H133097   4.230   4.737  12.418  2.6312  1.1363  0.9839
 3894TIP3    H233098   4.151   4.691  12.539  1.0863 -0.4974 -0.5779
 3895TIP3   OH233099   2.846   3.724  15.691 -0.3371  0.1474  0.0229
 3895TIP3    H133100   2.793   3.793  15.650 -1.8595 -0.6738  0.5465
 3895TIP3    H233101   2.897   3.771  15.757  0.1840  1.0682 -0.9875
 3896TIP3   OH233102   1.150   5.171   2.624  0.1419  0.0804  0.5749
 3896TIP3    H133103   1.214   5.122   2.573  1.0314  0.7479  1.0201
 3896TIP3    H233104   1.132   5.114   2.699  0.9623  0.2924  0.9488
 3897TIP3   OH233105   6.733   6.145   0.361 -0.2386  0.3408 -0.2789
 3897TIP3    H133106   6.721   6.088   0.436 -0.6327  2.6432  1.5143
 3897TIP3    H233107   6.746   6.085   0.287  0.7849 -2.0077  1.6781
 3898TIP3   OH233108   6.579   2.603  12.242  0.3511  0.1026  0.8192
 3898TIP3    H133109   6.566   2.514  12.275  0.3574 -0.2998 -0.2214
 3898TIP3    H233110   6.495   2.626  12.203  1.5491 -1.2144 -2.9263
 3899TIP3   OH233111   5.076   6.793  17.070  0.7720  0.1663  0.2301
 3899TIP3    H133112   5.105   6.848  17.143  1.4862  1.7522 -1.1772
 3899TIP3    H233113   5.128   6.823  16.996 -1.5119  0.1745 -1.4547
 3900TIP3   OH233114   4.326   4.656   1.856  0.0524 -0.0036 -0.2945
 3900TIP3    H133115   4.237   4.668   1.889 -0.1453 -0.1857 -0.7524
 3900TIP3    H233116   4.381   4.705   1.918 -0.3964  0.4021 -0.2080
 3901TIP3   OH233117   3.805   4.406   1.894  0.7530 -0.4269  0.0613
 3901TIP3    H133118   3.788   4.481   1.951  1.0352 -0.0238 -0.3825
 3901TIP3    H233119   3.900   4.408   1.880  1.2530 -2.5628  2.4093
 3902TIP3   OH233120   2.363   0.072   5.977  0.1934  0.0056 -0.0478
 3902TIP3    H133121   2.456   0.053   5.994  0.2879  0.7934  0.3610
 3902TIP3    H233122   2.361   0.095   5.884  0.5381  0.6967  0.1072
 3903TIP3   OH233123   6.586   2.013  12.236  0.2700 -0.1379 -0.2563
 3903TIP3    H133124   6.674   1.993  12.204  0.4093  1.1372 -0.7621
 3903TIP3    H233125   6.567   2.100  12.199  0.7240  1.8579  3.6367
 3904TIP3   OH233126   3.927   0.568   1.025 -0.1447  0.1319  0.3457
 3904TIP3    H133127   3.839   0.585   1.060 -0.8933 -2.6410  0.0645
 3904TIP3    H233128   3.959   0.654   0.998 -1.9223  1.5208  2.3141
 3905TIP3   OH233129   4.134   6.412   5.370  0.5797  0.5809 -0.2396
 3905TIP3    H133130   4.206   6.472   5.390 -0.0284  1.2049  0.1416
 3905TIP3    H233131   4.067   6.433   5.435  0.0725 -0.0203 -0.5599
 3906TIP3   OH233132   2.202   4.626  14.766  0.1016 -0.7205  0.7970
 3906TIP3    H133133   2.268   4.653  14.702  1.0198 -0.6745  1.7365
 3906TIP3    H233134   2.246   4.634  14.850 -1.3538  0.0738  1.5300
 3907TIP3   OH233135   3.855   2.750   0.507  0.2445  0.1583  0.3488
 3907TIP3    H133136   3.887   2.674   0.457  0.4531  0.2376  0.3599
 3907TIP3    H233137   3.873   2.825   0.451 -1.3326  0.0661 -0.3117
 3908TIP3   OH233138   3.824   0.862  12.390 -0.5589 -0.3530 -0.2278
 3908TIP3    H133139   3.820   0.798  12.319 -1.4669 -0.4539 -0.0978
 3908TIP3    H233140   3.740   0.853  12.435 -0.5554  0.6868  0.0070
 3909TIP3   OH233141   6.086   6.651   1.638 -0.0057 -0.2290 -0.7734
 3909TIP3    H133142   6.073   6.562   1.670 -2.3906  0.0465 -0.8048
 3909TIP3    H233143   6.047   6.707   1.705 -1.4955  0.5777 -2.2417
 3910TIP3   OH233144   6.344   0.083   0.813 -0.1086  0.3259 -0.0638
 3910TIP3    H133145   6.262   0.114   0.850 -0.6780 -0.3909 -0.7020
 3910TIP3    H233146   6.412   0.134   0.858 -0.8662  0.5565  0.8320
 3911TIP3   OH233147   5.742   0.176   0.724  0.0586  0.0881 -0.1345
 3911TIP3    H133148   5.824   0.219   0.747 -0.6518  0.8274  1.1597
 3911TIP3    H233149   5.765   0.084   0.709  1.0683  0.2362  0.4837
 3912TIP3   OH233150   4.116   3.338   4.510 -0.3380  0.1643 -0.5812
 3912TIP3    H133151   4.142   3.267   4.452 -1.6626 -1.1020  0.3310
 3912TIP3    H233152   4.150   3.417   4.467  1.4285 -1.0060 -1.4603
 3913TIP3   OH233153   5.964   3.273  16.541  0.2439  0.0629  0.1296
 3913TIP3    H133154   6.034   3.247  16.601 -0.7276  0.3423  1.4197
 3913TIP3    H233155   6.004   3.342  16.488  1.4813 -0.9965 -0.3764
 3914TIP3   OH233156   4.621   1.167  10.999  0.6099  0.2349  0.3240
 3914TIP3    H133157   4.555   1.214  10.948  0.2569  0.0929  0.6546
 3914TIP3    H233158   4.704   1.196  10.961  0.3422 -0.3469 -0.7536
 3915TIP3   OH233159   6.488   3.358   3.189  0.9528 -0.6198  0.3181
 3915TIP3    H133160   6.562   3.324   3.138  2.4901 -0.8415  2.5620
 3915TIP3    H233161   6.450   3.281   3.231  0.4926 -0.2971  0.4970
 3916TIP3   OH233162   4.059   2.126   4.674 -0.1636 -0.0083  0.5208
 3916TIP3    H133163   3.989   2.191   4.677 -1.9554 -1.7975 -0.3856
 3916TIP3    H233164   4.102   2.133   4.760  0.0910  2.6882  0.2581
 3917TIP3   OH233165   4.039   4.876   4.411 -0.1706  0.4517 -0.0333
 3917TIP3    H133166   4.118   4.875   4.357 -0.0130  0.5824  0.1882
 3917TIP3    H233167   4.072   4.891   4.500 -0.4294  0.2883  0.0905
 3918TIP3   OH233168   3.279   1.903  15.374  0.0466  0.0605 -0.0930
 3918TIP3    H133169   3.348   1.963  15.348  1.4004 -0.7261  1.5164
 3918TIP3    H233170   3.305   1.818  15.339  0.3032 -0.3841  1.1265
 3919TIP3   OH233171   1.848   2.625   0.049 -0.2370  0.4054  0.0908
 3919TIP3    H133172   1.771   2.668   0.013 -0.6158 -1.7501 -1.8323
 3919TIP3    H233173   1.818   2.538   0.076  1.8061 -1.2356 -2.4823
 3920TIP3   OH233174   4.897   4.407  12.438 -0.0350 -0.1067 -0.0394
 3920TIP3    H133175   4.858   4.475  12.493  0.9755 -0.6485  1.3780
 3920TIP3    H233176   4.930   4.455  12.362 -0.1754  0.8511  0.4884
 3921TIP3   OH233177   1.174   5.638  15.002  0.0913 -0.3010 -0.6561
 3921TIP3    H133178   1.261   5.661  14.969 -0.0120 -0.1936 -0.8556
 3921TIP3    H233179   1.162   5.546  14.976 -0.5761  0.1886 -2.2039
 3922TIP3   OH233180   4.962   1.879   3.519  0.4595  0.1103 -0.2507
 3922TIP3    H133181   4.904   1.893   3.594  1.0106 -2.5750  0.7746
 3922TIP3    H233182   4.903   1.856   3.447  0.0753  0.5659 -0.0899
 3923TIP3   OH233183   6.152   1.152  12.029 -0.3590  0.0387  1.0256
 3923TIP3    H133184   6.116   1.240  12.040 -0.7417 -0.2289  2.0575
 3923TIP3    H233185   6.241   1.158  12.064 -0.5135 -0.0649  1.4466
 3924TIP3   OH233186   6.532   3.979  13.203  0.7534 -0.1855 -0.0676
 3924TIP3    H133187   6.542   3.885  13.191  2.2635  0.0602 -1.1057
 3924TIP3    H233188   6.522   3.990  13.298 -0.3857 -1.4369 -0.0136
 3925TIP3   OH233189   6.442   4.309  11.104  0.0008  0.2191  0.0639
 3925TIP3    H133190   6.421   4.317  11.197 -1.1134  0.5492 -0.2065
 3925TIP3    H233191   6.537   4.298  11.102 -0.1758 -2.1175  1.3591
 3926TIP3   OH233192   6.093   2.982   3.813 -0.4497  0.1401  0.3238
 3926TIP3    H133193   6.150   3.053   3.841  1.6546 -0.4382 -2.1589
 3926TIP3    H233194   6.050   3.016   3.734 -0.3053 -0.9142 -0.2198
 3927TIP3   OH233195   4.704   1.823   2.751  0.3779 -0.3087  0.4562
 3927TIP3    H133196   4.613   1.795   2.759  1.1483 -2.8573  0.9891
 3927TIP3    H233197   4.707   1.871   2.668 -1.9197  2.1477  1.6436
 3928TIP3   OH233198   1.093   3.526  11.217 -0.1319  0.0021 -0.4078
 3928TIP3    H133199   1.050   3.471  11.283  1.1297 -1.4749 -0.7605
 3928TIP3    H233200   1.062   3.492  11.133  0.2789  0.1471 -0.6203
 3929TIP3   OH233201   1.943   2.678   2.725 -0.7119  0.0183 -0.1432
 3929TIP3    H133202   2.029   2.719   2.721 -0.4548 -0.3441  1.3499
 3929TIP3    H233203   1.957   2.589   2.691  0.0773 -0.8887  2.3588
 3930TIP3   OH233204   2.495   3.016   1.143 -0.3204  0.5476  0.0157
 3930TIP3    H133205   2.566   2.993   1.082 -1.2008 -1.4195 -0.3543
 3930TIP3    H233206   2.538   3.067   1.211  1.6502 -1.2660  0.2457
 3931TIP3   OH233207   4.631   5.084   2.935 -0.1358  0.1078  0.0908
 3931TIP3    H133208   4.659   5.003   2.978 -2.3025 -0.7899 -0.0585
 3931TIP3    H233209   4.614   5.145   3.007 -1.3036 -0.5693  0.4312
 3932TIP3   OH233210   1.010   1.624  16.677 -0.1617 -0.5401  0.0420
 3932TIP3    H133211   0.927   1.604  16.720 -0.5843 -0.7907 -0.8480
 3932TIP3    H233212   1.035   1.710  16.710 -1.8901  0.5276 -1.2725
 3933TIP3   OH233213   6.638   0.169   3.340  0.2524 -0.3743  0.3828
 3933TIP3    H133214   6.607   0.225   3.269 -1.7906 -1.7322  0.1302
 3933TIP3    H233215   6.690   0.101   3.297  0.2354 -0.3752  0.3642
 3934TIP3   OH233216   6.783   1.664  16.559  0.4200 -0.1397 -0.1152
 3934TIP3    H133217   6.774   1.577  16.599 -0.0963  0.4768  1.1502
 3934TIP3    H233218   6.845   1.710  16.615 -1.0250  1.0612  0.5512
 3935TIP3   OH233219   1.370   5.983   1.336  0.2441  0.0537 -0.9144
 3935TIP3    H133220   1.423   5.937   1.401  1.7011  0.3733 -1.8339
 3935TIP3    H233221   1.283   5.943   1.343  1.2428 -2.3256 -1.1425
 3936TIP3   OH233222   1.447   6.780   3.627 -0.5296  0.2535 -0.1789
 3936TIP3    H133223   1.430   6.870   3.655 -0.5647  0.2261 -0.1120
 3936TIP3    H233224   1.478   6.788   3.537  0.3105  0.4111  0.1108
 3937TIP3   OH233225   2.832   6.163  16.374  0.7553  0.4195  0.1944
 3937TIP3    H133226   2.887   6.159  16.296 -1.2125 -0.7101 -1.2388
 3937TIP3    H233227   2.790   6.248  16.369  0.8072  0.4414  0.1363
 3938TIP3   OH233228   0.498   2.319  15.316  0.1447 -0.0697 -0.1425
 3938TIP3    H133229   0.530   2.390  15.261 -1.8601  1.4023  0.4739
 3938TIP3    H233230   0.430   2.359  15.371 -1.0983 -2.4485  0.2252
 3939TIP3   OH233231   1.546   4.318   0.584 -0.3359  0.1312 -0.0534
 3939TIP3    H133232   1.597   4.239   0.602  0.5112  0.8623  0.9041
 3939TIP3    H233233   1.558   4.372   0.662 -0.0735  1.6421 -1.0913
 3940TIP3   OH233234   1.940   5.476  14.750 -0.2501 -0.3336  0.1840
 3940TIP3    H133235   1.958   5.551  14.694 -1.2234  2.0081  2.7413
 3940TIP3    H233236   2.022   5.461  14.798 -0.2647 -0.4795  0.1661
 3941TIP3   OH233237   3.255   2.793  14.034  0.2594  0.3412  0.4832
 3941TIP3    H133238   3.280   2.717  13.982 -1.0286  0.6762 -0.6775
 3941TIP3    H233239   3.206   2.756  14.108 -0.2372  0.0052 -0.0010
 3942TIP3   OH233240   3.397   6.545  16.929 -0.1517  0.1521  0.6112
 3942TIP3    H133241   3.350   6.627  16.942  0.1998  0.4375  0.1323
 3942TIP3    H233242   3.358   6.507  16.850  0.3321  0.3354  0.2759
 3943TIP3   OH233243   6.299   1.221   2.428 -0.1570  0.4620 -0.6735
 3943TIP3    H133244   6.259   1.160   2.366  0.8765 -0.1524 -0.7546
 3943TIP3    H233245   6.245   1.215   2.507 -1.2706  0.9858 -1.3851
 3944TIP3   OH233246   6.450   4.285   2.312  0.9698  0.2581  0.3372
 3944TIP3    H133247   6.447   4.360   2.253  0.5909  0.9946  1.2565
 3944TIP3    H233248   6.542   4.259   2.314  0.7475 -0.9700 -1.9772
 3945TIP3   OH233249   2.741   3.904   1.932 -0.5035  0.2037  0.2729
 3945TIP3    H133250   2.649   3.930   1.945 -2.0642 -3.2830 -2.3495
 3945TIP3    H233251   2.738   3.841   1.860  4.0472  0.0443 -0.0121
 3946TIP3   OH233252   2.104   1.168   4.293 -0.1685  0.6484  0.0297
 3946TIP3    H133253   2.140   1.170   4.204 -0.0786  1.8804  0.0742
 3946TIP3    H233254   2.180   1.147   4.348 -0.0811  0.5677 -0.1186
 3947TIP3   OH233255   6.200   6.372   6.359  0.0324 -0.5632 -1.0239
 3947TIP3    H133256   6.141   6.417   6.298 -0.0883  0.3379 -0.2844
 3947TIP3    H233257   6.175   6.280   6.353 -2.7988 -0.0506  0.5746
 3948TIP3   OH233258   4.299   2.474  14.756 -0.5350  0.0718  0.6092
 3948TIP3    H133259   4.338   2.388  14.773 -0.8452 -0.2765 -0.3396
 3948TIP3    H233260   4.265   2.467  14.667  3.3424  2.5995 -1.3392
 3949TIP3   OH233261   5.047   3.437   3.659 -0.0573 -0.0426  0.1247
 3949TIP3    H133262   5.096   3.499   3.604 -0.5627 -0.9074 -1.3774
 3949TIP3    H233263   4.963   3.480   3.675 -0.0977  0.0109 -0.2209
 3950TIP3   OH233264   2.023   1.666   4.723  0.3685 -0.6785  0.3659
 3950TIP3    H133265   1.978   1.614   4.790 -1.1055 -1.2049 -0.9431
 3950TIP3    H233266   1.956   1.681   4.656  1.7334 -0.0537 -0.9208
 3951TIP3   OH233267   4.538   6.380  16.201 -0.3875 -0.0415 -0.5863
 3951TIP3    H133268   4.594   6.445  16.157 -0.5358  0.7666  0.3982
 3951TIP3    H233269   4.600   6.326  16.250 -0.3644  0.0375 -0.5288
 3952TIP3   OH233270   6.399   2.802  14.152 -0.8075  0.3210  0.2157
 3952TIP3    H133271   6.409   2.777  14.244  0.2043  1.6134  0.4908
 3952TIP3    H233272   6.471   2.864  14.136  1.4119 -2.6441 -2.5116
 3953TIP3   OH233273   1.838   5.044  13.107  0.5104 -0.3458 -0.0287
 3953TIP3    H133274   1.887   5.119  13.142  0.2575  0.1962 -0.8033
 3953TIP3    H233275   1.872   5.033  13.018 -0.2151 -0.4613 -0.2974
 3954TIP3   OH233276   2.615   4.253  10.602  0.3891 -0.3562  0.7052
 3954TIP3    H133277   2.617   4.324  10.539  2.1920 -0.8977  0.0816
 3954TIP3    H233278   2.679   4.278  10.669 -1.4990  0.2121  2.3701
 3955TIP3   OH233279   2.809   1.300   6.220 -0.7535  0.2087  0.6225
 3955TIP3    H133280   2.757   1.262   6.291  0.9454  1.2035  2.5332
 3955TIP3    H233281   2.757   1.373   6.187 -1.6323 -0.3584  0.7406
 3956TIP3   OH233282   6.448   1.340   5.207 -0.4854 -0.3116  0.3120
 3956TIP3    H133283   6.443   1.426   5.165  3.0614  0.5330  1.2721
 3956TIP3    H233284   6.446   1.278   5.134 -0.1504  0.7770 -0.6618
 3957TIP3   OH233285   0.077   3.260   1.525 -0.0397  0.1216 -0.0631
 3957TIP3    H133286  -0.003   3.232   1.481 -0.4903 -0.8612  1.2987
 3957TIP3    H233287   0.047   3.303   1.604  0.7663 -0.3497  0.5111
 3958TIP3   OH233288   3.308   5.649  16.511  0.2798  0.1521  0.3280
 3958TIP3    H133289   3.245   5.713  16.480  1.3484  1.5620  0.9450
 3958TIP3    H233290   3.257   5.588  16.564 -0.4657  1.6741  1.4141
 3959TIP3   OH233291   1.732   5.425   3.095  0.5306  0.2521 -0.0909
 3959TIP3    H133292   1.811   5.385   3.059  0.9823 -0.0555  1.1939
 3959TIP3    H233293   1.759   5.512   3.122 -0.4155  1.4785 -2.7384
 3960TIP3   OH233294   0.766   5.038   4.930 -0.3025  0.4954 -0.4415
 3960TIP3    H133295   0.837   5.086   4.972 -0.3923 -1.2999  1.9687
 3960TIP3    H233296   0.686   5.076   4.967 -0.4146 -0.3979  0.2818
 3961TIP3   OH233297   3.132   5.642   5.075 -0.0726  0.2637  0.3563
 3961TIP3    H133298   3.201   5.576   5.086  1.0812  1.2119 -0.7939
 3961TIP3    H233299   3.179   5.722   5.050 -1.6030  0.9362 -0.5278
 3962TIP3   OH233300   5.082   2.045   0.972  0.0246  0.4066 -0.6547
 3962TIP3    H133301   5.119   2.097   0.901 -0.3313  0.8864 -0.4974
 3962TIP3    H233302   5.154   2.035   1.034  0.6702 -0.9465 -1.5596
 3963TIP3   OH233303   5.560   0.998   6.433  0.2841  1.0123  0.0730
 3963TIP3    H133304   5.532   0.932   6.370 -1.4213  1.3956  0.3783
 3963TIP3    H233305   5.555   0.955   6.518 -2.2724  1.8570  0.4461
 3964TIP3   OH233306   3.325   4.950   1.288 -0.4990  0.2193 -0.1416
 3964TIP3    H133307   3.380   5.026   1.306 -2.1368  1.2967  0.5619
 3964TIP3    H233308   3.313   4.909   1.374 -3.0702  1.6738  0.3158
 3965TIP3   OH233309   5.621   5.304  15.691  0.3710  0.2907  0.1061
 3965TIP3    H133310   5.534   5.340  15.708 -0.1407 -1.0566  0.3964
 3965TIP3    H233311   5.625   5.296  15.595 -0.0733 -0.2377  0.1274
 3966TIP3   OH233312   4.347   6.093   2.300 -0.5631 -0.1144 -0.0309
 3966TIP3    H133313   4.416   6.052   2.353 -0.6997 -0.4013 -0.0746
 3966TIP3    H233314   4.390   6.113   2.217 -0.3934  0.1831  0.1267
 3967TIP3   OH233315   5.648   4.054  11.428  0.2010 -0.0308 -0.1490
 3967TIP3    H133316   5.669   4.013  11.512 -0.0171 -0.7964 -0.4671
 3967TIP3    H233317   5.666   3.987  11.363 -0.8403  0.1296 -0.6209
 3968TIP3   OH233318   0.255   0.609  12.714  0.4722 -0.2569 -0.5713
 3968TIP3    H133319   0.348   0.633  12.722  0.4173 -0.1564 -0.2258
 3968TIP3    H233320   0.225   0.657  12.637  0.4751  0.4421 -0.1478
 3969TIP3   OH233321   3.433   2.868   1.745  0.0924  0.1738  0.0323
 3969TIP3    H133322   3.426   2.804   1.816  2.6235 -0.7855 -0.4916
 3969TIP3    H233323   3.360   2.929   1.761 -0.8717 -1.3745  2.0107
 3970TIP3   OH233324   1.388   1.031   2.038 -0.4521 -0.4049 -0.7453
 3970TIP3    H133325   1.299   1.067   2.038  0.7102  2.7526  0.1997
 3970TIP3    H233326   1.434   1.081   2.105  1.9659 -2.2933 -0.8674
 3971TIP3   OH233327   3.060   6.073  14.804  0.4043 -0.1789 -0.3448
 3971TIP3    H133328   3.044   6.167  14.815  1.1964  0.0641 -1.2122
 3971TIP3    H233329   3.147   6.059  14.842  0.7814 -0.3452 -1.2615
 3972TIP3   OH233330   0.979   6.050   3.533 -0.5312  0.0770 -0.2255
 3972TIP3    H133331   1.059   6.090   3.501  0.2066 -2.1017 -1.2769
 3972TIP3    H233332   0.934   6.120   3.580  1.3065  1.7161 -0.8040
 3973TIP3   OH233333   3.941   3.580   0.617 -0.8961 -0.4259  0.0824
 3973TIP3    H133334   3.863   3.632   0.635 -0.9776 -0.6323  0.3341
 3973TIP3    H233335   3.961   3.596   0.525 -0.4151  0.7340  0.3720
 3974TIP3   OH233336   2.621   0.975   5.060 -0.0027  0.0262 -0.6125
 3974TIP3    H133337   2.635   1.021   5.143  0.6019 -0.3493 -0.5015
 3974TIP3    H233338   2.530   0.948   5.062  0.0314 -0.0446 -0.0380
 3975TIP3   OH233339   5.621   4.376   0.999 -0.1493 -0.5976  0.0012
 3975TIP3    H133340   5.686   4.401   1.064  1.1606 -1.5385 -0.8899
 3975TIP3    H233341   5.649   4.289   0.969  0.0694  0.3393 -2.7521
 3976TIP3   OH233342   4.828   4.193  13.149  0.3094 -0.0764  0.1845
 3976TIP3    H133343   4.853   4.253  13.079 -1.5341  0.4460 -0.0839
 3976TIP3    H233344   4.904   4.136  13.160  1.8006  1.7445 -0.1406
 3977TIP3   OH233345   1.644   0.149   3.539  0.2346  0.0101 -0.0077
 3977TIP3    H133346   1.684   0.086   3.480  1.2860 -0.3257  1.0180
 3977TIP3    H233347   1.623   0.224   3.484  0.7928 -0.4556 -0.8755
 3978TIP3   OH233348   3.780   0.533   2.888  0.0333 -0.6541  0.4233
 3978TIP3    H133349   3.753   0.442   2.877 -0.4423 -0.7312  2.0271
 3978TIP3    H233350   3.699   0.580   2.908  0.5831 -0.3551  2.1632
 3979TIP3   OH233351   0.186   6.348  12.437 -0.2272  0.2427  0.1603
 3979TIP3    H133352   0.114   6.404  12.409 -0.6591 -0.8279 -0.9450
 3979TIP3    H233353   0.153   6.302  12.514 -1.2481 -1.1638 -1.0454
 3980TIP3   OH233354   0.428   2.354   5.101  0.2117  0.9216  0.0086
 3980TIP3    H133355   0.433   2.421   5.033  1.6768 -0.6246 -1.4996
 3980TIP3    H233356   0.519   2.331   5.119 -0.2010  0.4245  1.6398
 3981TIP3   OH233357   3.813   5.505   3.929  0.5202  1.0436 -0.1634
 3981TIP3    H133358   3.902   5.469   3.935  1.0487  2.1628 -1.0501
 3981TIP3    H233359   3.764   5.438   3.881  1.1176  0.8413 -0.5036
 3982TIP3   OH233360   6.056   1.939   3.460 -0.0513  0.7411 -0.1830
 3982TIP3    H133361   6.064   1.855   3.415 -0.7459  0.1748  0.7184
 3982TIP3    H233362   6.021   1.999   3.394  1.0179  0.4992 -1.0090
 3983TIP3   OH233363   2.301   0.422   5.576 -0.3073  0.1513  0.2113
 3983TIP3    H133364   2.359   0.480   5.626 -2.5492  0.7756  2.3132
 3983TIP3    H233365   2.265   0.478   5.507 -0.7911  0.6573  0.8661
 3984TIP3   OH233366   3.099   5.052   5.098  0.3320 -0.0262 -0.2626
 3984TIP3    H133367   3.160   5.034   5.169 -1.9955  1.1290  2.1859
 3984TIP3    H233368   3.058   4.967   5.079  1.1844 -0.3996 -0.4666
 3985TIP3   OH233369   2.270   4.619  11.416 -0.4378 -0.3949  0.4154
 3985TIP3    H133370   2.251   4.528  11.439  0.1111 -0.1800  1.8410
 3985TIP3    H233371   2.194   4.668  11.447 -1.1413 -0.4418 -1.1535
 3986TIP3   OH233372   2.879   2.265  13.136  0.7944  0.3071  0.6794
 3986TIP3    H133373   2.946   2.277  13.069  1.2818 -1.6179  0.7674
 3986TIP3    H233374   2.908   2.188  13.185 -1.6065 -0.7347  0.5699
 3987TIP3   OH233375   5.068   4.633   0.131  0.4145 -0.1256  0.0434
 3987TIP3    H133376   4.996   4.582   0.093  0.9539 -0.6188 -0.3458
 3987TIP3    H233377   5.103   4.684   0.058  1.2084 -0.7821 -0.0539
 3988TIP3   OH233378   4.043   4.541   4.944  0.3980 -0.3019  0.0314
 3988TIP3    H133379   4.072   4.471   5.002  0.9692  1.6197  2.2092
 3988TIP3    H233380   4.121   4.594   4.928 -0.3582  0.7583 -0.2364
 3989TIP3   OH233381   3.196   4.345  12.896 -0.4185 -0.3768 -0.3853
 3989TIP3    H133382   3.285   4.357  12.863 -0.5620 -1.0271 -1.0302
 3989TIP3    H233383   3.200   4.372  12.988  0.7315 -1.5266 -0.0699
 3990TIP3   OH233384   3.159   2.866  12.405 -0.3560 -0.4049  0.0134
 3990TIP3    H133385   3.206   2.931  12.354 -0.1390 -1.6759 -1.4671
 3990TIP3    H233386   3.116   2.917  12.474  1.4741  1.0333  0.1755
 3991TIP3   OH233387   3.241   1.420   1.081 -0.6432  0.1296  0.2402
 3991TIP3    H133388   3.319   1.434   1.028  1.1426  4.0153  3.3692
 3991TIP3    H233389   3.256   1.335   1.123  1.9542  0.7475  0.7114
 3992TIP3   OH233390   5.751   2.816  14.137 -0.4217 -0.7086  0.2570
 3992TIP3    H133391   5.742   2.912  14.136  0.7451 -0.5434  1.7466
 3992TIP3    H233392   5.733   2.789  14.047  2.8468  1.2927 -1.1938
 3993TIP3   OH233393   5.636   0.846   0.750 -1.1149 -0.0158  0.5049
 3993TIP3    H133394   5.594   0.762   0.771 -2.6254  0.6552  0.3170
 3993TIP3    H233395   5.727   0.834   0.776 -1.6609 -1.1493  2.0865
 3994TIP3   OH233396   3.909   6.575   1.352  0.2200 -0.2929 -0.4281
 3994TIP3    H133397   3.909   6.590   1.257 -0.1630 -0.7241 -0.4989
 3994TIP3    H233398   3.990   6.528   1.369 -0.4697 -1.6777 -0.7910
 3995TIP3   OH233399   3.952   3.329   1.579  0.4810  0.1395  0.8001
 3995TIP3    H133400   3.940   3.262   1.647  2.0218 -0.6918  0.3079
 3995TIP3    H233401   3.867   3.371   1.571 -0.0786 -0.6271  2.3229
 3996TIP3   OH233402   2.660   6.467  13.539  0.1592  0.1400  0.3273
 3996TIP3    H133403   2.633   6.389  13.491  0.2201  0.2493  0.1168
 3996TIP3    H233404   2.753   6.479  13.517  0.3146 -0.0875  0.8490
 3997TIP3   OH233405   1.856   5.867  12.140 -0.0896 -0.3831 -0.3883
 3997TIP3    H133406   1.870   5.830  12.053 -0.7328 -0.2909 -0.5339
 3997TIP3    H233407   1.784   5.929  12.129  0.7463  0.6845 -0.0842
 3998TIP3   OH233408   2.421   2.779   1.273 -0.1781  0.8181  0.6624
 3998TIP3    H133409   2.451   2.862   1.236 -1.3004  1.3519  0.9116
 3998TIP3    H233410   2.326   2.782   1.265 -0.3626  0.3634  2.3611
 3999TIP3   OH233411   4.585   2.034  12.869  0.0841 -0.6958  0.0924
 3999TIP3    H133412   4.639   2.095  12.818  0.3365  0.2956  1.5069
 3999TIP3    H233413   4.626   2.031  12.955 -1.8627 -0.2271  1.0854
 4000TIP3   OH233414   5.214   3.116  14.616  0.2877  0.3872 -0.1468
 4000TIP3    H133415   5.237   3.023  14.615 -0.8748  0.0589 -2.2871
 4000TIP3    H233416   5.126   3.120  14.655  0.0823  0.5190 -0.6208
 4001TIP3   OH233417   3.803   3.221  14.989 -0.5669 -0.1771  0.8300
 4001TIP3    H133418   3.888   3.246  14.953 -1.4662  0.0020 -1.2982
 4001TIP3    H233419   3.739   3.261  14.931 -2.1182 -1.1348  1.7933
 4002TIP3   OH233420   1.976   4.009  12.585  0.3488  0.1161  0.4605
 4002TIP3    H133421   2.033   3.968  12.520 -0.5486  0.9154 -0.8836
 4002TIP3    H233422   1.957   3.939  12.648  0.6126 -0.9071 -0.5673
 4003TIP3   OH233423   5.061   6.204   1.347  0.2043 -0.6268  0.7788
 4003TIP3    H133424   5.088   6.285   1.304  1.7403 -0.7425  1.4467
 4003TIP3    H233425   5.007   6.159   1.282 -0.1713  0.6439  0.1777
 4004TIP3   OH233426   2.763   1.041   0.334 -0.2074  0.3806  0.1235
 4004TIP3    H133427   2.737   1.116   0.386  0.2773 -0.6817  1.9914
 4004TIP3    H233428   2.683   0.990   0.323 -0.5694  1.1804 -1.2725
 4005TIP3   OH233429   5.972   3.423   3.685 -1.2829  0.3195  0.3458
 4005TIP3    H133430   5.952   3.379   3.603 -0.6495  1.7583 -0.6157
 4005TIP3    H233431   5.897   3.481   3.699 -0.7952  1.0219  0.0910
 4006TIP3   OH233432   6.112   3.029  15.418  0.6495  0.2831 -0.6780
 4006TIP3    H133433   6.069   3.079  15.488  2.3902 -0.6319  1.1610
 4006TIP3    H233434   6.167   2.966  15.465  0.4851 -1.6531 -2.9023
 4007TIP3   OH233435   1.391   3.651  14.206 -0.4224 -0.4028  0.0827
 4007TIP3    H133436   1.448   3.727  14.213  0.1618 -0.9100  1.1664
 4007TIP3    H233437   1.315   3.682  14.156  0.8087  0.2653 -1.4762
 4008TIP3   OH233438   2.689   0.603  13.993  0.2387  0.6699 -0.4621
 4008TIP3    H133439   2.759   0.618  14.056  0.3753  2.1306 -0.9181
 4008TIP3    H233440   2.608   0.613  14.044  0.3554  0.8306 -0.3073
 4009TIP3   OH233441   4.923   4.653  13.716  0.0021  0.3439  0.0353
 4009TIP3    H133442   5.016   4.663  13.698 -0.1396  0.2542 -0.7576
 4009TIP3    H233443   4.915   4.564  13.750  0.3597  0.7347  1.1847
 4010TIP3   OH233444   0.704   1.284   1.903 -0.4225 -0.1018 -0.2930
 4010TIP3    H133445   0.771   1.346   1.932 -1.3843  0.6669  0.3480
 4010TIP3    H233446   0.676   1.317   1.818 -0.0222 -0.3955 -0.5388
 4011TIP3   OH233447   4.491   5.264   1.680  0.2824  0.0276 -0.4878
 4011TIP3    H133448   4.564   5.303   1.728  0.9188 -1.8252  0.1659
 4011TIP3    H233449   4.521   5.262   1.589  0.8098 -0.1779 -0.3165
 4012TIP3   OH233450   5.342   1.737   5.550 -0.3491 -0.0900  0.0735
 4012TIP3    H133451   5.399   1.674   5.507 -0.5181 -1.0343  1.1872
 4012TIP3    H233452   5.401   1.794   5.599 -0.1815  0.7724 -1.0947
 4013TIP3   OH233453   5.200   1.510  12.362 -0.1401  0.0795  0.2125
 4013TIP3    H133454   5.280   1.505  12.415 -0.2944  0.8931  0.5291
 4013TIP3    H233455   5.130   1.483  12.422 -0.5087  2.3315  0.8945
 4014TIP3   OH233456   6.342   4.639   0.019  0.4172  0.5061  0.2814
 4014TIP3    H133457   6.380   4.679  -0.059  0.1405 -2.5155 -1.5487
 4014TIP3    H233458   6.417   4.618   0.074  0.7525  1.2592  0.1225
 4015TIP3   OH233459   1.273   6.537  12.185  0.3501 -0.4999 -0.4382
 4015TIP3    H133460   1.265   6.632  12.191 -0.4514 -0.6300  1.1303
 4015TIP3    H233461   1.351   6.516  12.236  0.2323 -0.7114 -0.3411
 4016TIP3   OH233462   4.069   4.518   2.523 -0.0351  0.2738  0.0783
 4016TIP3    H133463   4.001   4.476   2.576  0.1870 -0.3473 -0.1323
 4016TIP3    H233464   4.151   4.488   2.561  0.1710  2.0828  1.2009
 4017TIP3   OH233465   1.680   5.289   2.735  0.0634 -0.8940 -0.2580
 4017TIP3    H133466   1.655   5.196   2.728  0.5088 -1.1236  1.0477
 4017TIP3    H233467   1.675   5.321   2.644  0.2596 -2.2795 -0.7882
 4018TIP3   OH233468   1.289   1.589   4.261  0.5704 -0.2479  0.0165
 4018TIP3    H133469   1.314   1.501   4.235 -0.6676 -0.3795 -0.8201
 4018TIP3    H233470   1.197   1.597   4.234  0.4809  1.0811  0.6236
 4019TIP3   OH233471   6.079   0.567  16.175  0.3175  0.7242 -0.4745
 4019TIP3    H133472   6.060   0.474  16.186  0.1031  0.8342  0.0902
 4019TIP3    H233473   6.007   0.600  16.120  0.5800  0.4882 -0.9622
 4020TIP3   OH233474   4.545   3.729   3.191  0.2647  0.2529  0.4183
 4020TIP3    H133475   4.498   3.648   3.172  0.1093  0.6589 -1.1563
 4020TIP3    H233476   4.532   3.782   3.112  0.6221  1.6848  1.2841
 4021TIP3   OH233477   3.885   3.268   4.763  0.0402 -0.1757  0.4449
 4021TIP3    H133478   3.897   3.244   4.855 -3.1855  0.2514  1.1034
 4021TIP3    H233479   3.896   3.363   4.762 -0.6922 -0.0858  0.5626
 4022TIP3   OH233480   6.713   1.199  14.739  0.5945  0.2121 -0.3523
 4022TIP3    H133481   6.746   1.176  14.826  1.4324  1.6398 -0.2515
 4022TIP3    H233482   6.787   1.241  14.696  0.2593 -0.6800 -1.8695
 4023TIP3   OH233483   4.659   1.388  12.130  0.0399 -0.4777 -0.0724
 4023TIP3    H133484   4.601   1.398  12.054  0.8457 -0.1679 -0.6556
 4023TIP3    H233485   4.685   1.296  12.128 -0.8132 -0.7481  0.4890
 4024TIP3   OH233486   2.512   4.740  11.470  0.2716  0.0821  0.3273
 4024TIP3    H133487   2.575   4.672  11.493  1.0071  0.4873 -0.4381
 4024TIP3    H233488   2.427   4.695  11.469  0.4594 -0.3583  1.8719
 4025TIP3   OH233489   4.620   2.605  11.681  0.0926  0.1726 -0.1913
 4025TIP3    H133490   4.676   2.553  11.738  1.0872  1.5472  0.1302
 4025TIP3    H233491   4.615   2.555  11.600  0.7557 -0.5657  0.2096
 4026TIP3   OH233492   1.428   1.015  11.057  0.0233  0.2498  0.0643
 4026TIP3    H133493   1.428   1.102  11.019  1.0195  0.6852  0.9996
 4026TIP3    H233494   1.458   0.957  10.987  0.9717  0.9085 -0.0862
 4027TIP3   OH233495   2.090   3.553  13.703  0.3310  0.1397  0.0628
 4027TIP3    H133496   2.121   3.644  13.697  0.9420 -0.1873 -2.8712
 4027TIP3    H233497   2.170   3.501  13.706 -0.0228 -0.3636  1.5143
 4028TIP3   OH233498   0.955   2.702  15.552 -0.2915  0.0870  0.5548
 4028TIP3    H133499   0.990   2.727  15.638 -0.7345  0.9688  0.4939
 4028TIP3    H233500   0.895   2.629  15.571  1.5412 -1.4731  0.6482
 4029TIP3   OH233501   4.578   1.063   2.008 -0.0669  0.4974 -0.1820
 4029TIP3    H133502   4.599   1.064   1.915 -0.1814  0.2572 -0.2112
 4029TIP3    H233503   4.598   1.151   2.038 -1.4567  1.0197 -0.7500
 4030TIP3   OH233504   6.528   6.696  10.629 -0.1472 -0.5274  0.2749
 4030TIP3    H133505   6.585   6.621  10.614 -1.9152 -1.5085 -2.2689
 4030TIP3    H233506   6.470   6.697  10.553 -0.2430  3.4320  0.2224
 4031TIP3   OH233507   3.289   3.070  13.938 -0.4018  0.1444  0.2064
 4031TIP3    H133508   3.265   2.988  13.981 -0.4100 -0.6029 -1.1435
 4031TIP3    H233509   3.207   3.101  13.898 -0.2767  0.5005  0.2189
 4032TIP3   OH233510   5.130   1.971  10.542 -0.6496 -0.3350  0.8380
 4032TIP3    H133511   5.191   1.945  10.610 -1.0023 -0.1530  1.2291
 4032TIP3    H233512   5.154   2.061  10.521 -0.6202 -0.3493  0.8106
 4033TIP3   OH233513   3.244   1.993   3.933  0.3881  0.0132 -0.0153
 4033TIP3    H133514   3.302   1.963   4.003  0.3753  2.6148  1.2361
 4033TIP3    H233515   3.156   1.985   3.969  0.4446  2.5077  0.8701
 4034TIP3   OH233516   1.622   4.224   4.661 -0.1197 -0.1530 -0.1389
 4034TIP3    H133517   1.694   4.194   4.716 -0.6831  0.1211  0.7796
 4034TIP3    H233518   1.633   4.319   4.658 -0.5407 -0.0924  0.1584
 4035TIP3   OH233519   3.097   3.387   4.501  0.2534  0.2104  0.0374
 4035TIP3    H133520   3.086   3.296   4.475 -0.3137  0.8458 -2.1515
 4035TIP3    H233521   3.130   3.431   4.422 -2.9673  2.5653 -0.2208
 4036TIP3   OH233522   1.228   2.723  12.991  0.1711  0.0167  0.4525
 4036TIP3    H133523   1.244   2.746  13.083  1.4269 -0.9355  0.5065
 4036TIP3    H233524   1.305   2.672  12.966  0.4537  1.3373 -1.5279
 4037TIP3   OH233525   4.009   5.204  16.777  0.1845  0.5676 -0.6519
 4037TIP3    H133526   3.955   5.140  16.730  1.2123 -1.0652  0.3160
 4037TIP3    H233527   4.089   5.157  16.799  1.3752  2.4740 -0.6776
 4038TIP3   OH233528   2.809   3.855   3.639  0.2630 -0.9517  0.6312
 4038TIP3    H133529   2.722   3.845   3.678 -0.3069 -2.3742 -0.8873
 4038TIP3    H233530   2.822   3.949   3.632 -1.6014 -0.7011 -0.0108
 4039TIP3   OH233531   0.542   2.082  13.977  0.1305  0.3254 -0.4151
 4039TIP3    H133532   0.464   2.118  13.935 -0.4358 -0.4393 -0.0184
 4039TIP3    H233533   0.574   2.152  14.033 -0.4827  0.5100 -0.2956
 4040TIP3   OH233534   4.400   2.111  11.706 -0.7413 -0.1449 -0.7334
 4040TIP3    H133535   4.390   2.101  11.612 -0.3362 -0.8504 -0.7038
 4040TIP3    H233536   4.335   2.177  11.730  0.5139  1.5743 -1.8037
 4041TIP3   OH233537   2.922   2.462  14.265 -0.5711 -0.7017  0.4097
 4041TIP3    H133538   2.881   2.437  14.348  1.3832  0.1808  1.7038
 4041TIP3    H233539   3.013   2.432  14.273  0.0799  0.8409 -0.7134
 4042TIP3   OH233540   6.258   1.456  12.300 -0.1014  0.3195 -0.1180
 4042TIP3    H133541   6.341   1.440  12.343 -2.1589 -1.2650  3.7852
 4042TIP3    H233542   6.239   1.548  12.319  0.1352  0.3008  0.2208
 4043TIP3   OH233543   0.915   2.897  12.679  0.0914 -0.1631 -0.5727
 4043TIP3    H133544   0.955   2.896  12.766 -1.4284  2.0356  0.2476
 4043TIP3    H233545   0.876   2.810  12.669  0.1450 -0.3918  1.0284
 4044TIP3   OH233546   1.334   1.611  14.285  0.2840 -0.1100  0.2337
 4044TIP3    H133547   1.332   1.642  14.194 -2.2220 -1.7872 -0.3568
 4044TIP3    H233548   1.263   1.659  14.328 -0.9581 -1.9450  0.3192
 4045TIP3   OH233549   4.898   4.442   0.297  0.1887  0.8522  0.3626
 4045TIP3    H133550   4.918   4.429   0.204  1.8478  1.8349  0.5522
 4045TIP3    H233551   4.849   4.524   0.300 -1.3197  0.0024  0.2279
 4046TIP3   OH233552   4.751   3.649  13.762  0.7799  0.4721  0.0675
 4046TIP3    H133553   4.676   3.667  13.706 -0.2494 -0.3131  1.1535
 4046TIP3    H233554   4.740   3.707  13.837  0.8302 -0.1716  0.5863
 4047TIP3   OH233555   0.986   4.123  10.801 -0.1709  0.0576 -0.4613
 4047TIP3    H133556   0.983   4.182  10.725 -1.4512  0.8772  0.1982
 4047TIP3    H233557   0.910   4.066  10.790 -0.6609  0.5154  0.4469
 4048TIP3   OH233558   4.395   3.957   0.037  0.1265  0.0310  0.3076
 4048TIP3    H133559   4.479   3.948   0.082 -0.5024 -1.2728  1.2933
 4048TIP3    H233560   4.411   3.923  -0.051  0.4517 -0.9910  0.7422
 4049TIP3   OH233561   3.472   0.111   1.267 -0.1853 -0.0379  0.5554
 4049TIP3    H133562   3.462   0.099   1.361 -1.9103  1.3762  0.6288
 4049TIP3    H233563   3.508   0.199   1.258  0.7793 -0.4924 -0.0953
 4050TIP3   OH233564   0.528   2.439   2.599 -0.7366  0.3755  0.3415
 4050TIP3    H133565   0.554   2.525   2.630  0.2781 -0.1868  1.1350
 4050TIP3    H233566   0.522   2.385   2.678  1.3531 -0.9512 -0.2999
 4051TIP3   OH233567   2.652   1.861   1.980  0.0599 -0.0310  0.0106
 4051TIP3    H133568   2.693   1.906   1.906  0.1664  1.6512  1.0343
 4051TIP3    H233569   2.601   1.929   2.023 -0.2664 -1.0591  1.2985
 4052TIP3   OH233570   6.483   1.493  16.483  0.0368 -0.4568 -0.1895
 4052TIP3    H133571   6.553   1.559  16.479  1.0230 -1.5169 -2.1053
 4052TIP3    H233572   6.498   1.447  16.566  2.3066 -1.3010 -0.9833
 4053TIP3   OH233573   3.346   4.160   4.087 -0.1885 -0.1801 -0.1602
 4053TIP3    H133574   3.340   4.094   4.018 -0.6040 -0.0474 -0.2570
 4053TIP3    H233575   3.256   4.192   4.097  0.4640  3.1250 -2.8395
 4054TIP3   OH233576   0.652   5.613   4.899 -0.0976 -0.0341 -0.2870
 4054TIP3    H133577   0.685   5.641   4.814 -0.6400 -2.1722 -1.2446
 4054TIP3    H233578   0.640   5.695   4.947 -0.4716  1.2974 -2.4992
 4055TIP3   OH233579   5.714   3.378  13.341  0.0841 -0.1800  0.4096
 4055TIP3    H133580   5.728   3.473  13.352 -0.2855  0.1104 -1.3416
 4055TIP3    H233581   5.623   3.364  13.368  0.0932 -0.0259  0.5252
 4056TIP3   OH233582   3.590   6.361  15.819  0.2058  0.3142 -0.0309
 4056TIP3    H133583   3.670   6.364  15.872  0.0882 -0.4265  0.2017
 4056TIP3    H233584   3.540   6.288  15.855  0.3682 -0.5679 -1.4888
 4057TIP3   OH233585   3.816   4.389   1.463  0.5236 -0.0305 -0.0111
 4057TIP3    H133586   3.810   4.340   1.545 -1.5730  1.8527  1.0593
 4057TIP3    H233587   3.762   4.340   1.401  2.2250 -1.5328 -0.4125
 4058TIP3   OH233588   2.523   0.458  15.974 -0.5124  0.1077 -0.5567
 4058TIP3    H133589   2.553   0.411  15.896  0.2494 -2.0408  0.9204
 4058TIP3    H233590   2.449   0.406  16.005 -2.0023  1.9749 -0.7936
 4059TIP3   OH233591   6.426   4.173  14.495  0.2276  0.1633  0.7363
 4059TIP3    H133592   6.423   4.129  14.410  0.1451  1.6566 -0.0807
 4059TIP3    H233593   6.343   4.152  14.537  0.4683 -0.9772  0.6697
 4060TIP3   OH233594   2.515   3.983   4.093 -0.0520  0.5335  0.0572
 4060TIP3    H133595   2.536   4.042   4.020 -0.0689 -0.0054 -0.3848
 4060TIP3    H233596   2.426   4.009   4.119 -0.5365 -0.1033 -0.9346
 4061TIP3   OH233597   5.400   0.220   5.903 -0.7869 -0.3361  0.0074
 4061TIP3    H133598   5.424   0.221   5.996 -1.1181 -0.5245  0.0975
 4061TIP3    H233599   5.466   0.163   5.862 -0.1094  0.4613 -0.0265
 4062TIP3   OH233600   3.149   0.740   0.670  0.1819 -0.2440  0.0980
 4062TIP3    H133601   3.241   0.717   0.672 -0.3187 -3.1360 -2.7242
 4062TIP3    H233602   3.139   0.796   0.593 -0.6112 -1.2038 -0.5185
 4063TIP3   OH233603   6.605   6.147  10.884  0.1066  0.3265 -0.4713
 4063TIP3    H133604   6.662   6.079  10.848  0.9018  0.9094 -0.3381
 4063TIP3    H233605   6.663   6.201  10.938 -0.6776  0.6263  0.0908
 4064TIP3   OH233606   5.410   0.971  14.143 -0.6751  0.4912  0.1392
 4064TIP3    H133607   5.321   0.969  14.109 -1.4761  2.9856  1.8317
 4064TIP3    H233608   5.433   1.064  14.145  0.9093  0.1376  2.2789
 4065TIP3   OH233609   4.329   3.959   1.121 -0.7285  0.1309 -0.0660
 4065TIP3    H133610   4.378   4.033   1.157  1.0944 -0.8068 -0.4982
 4065TIP3    H233611   4.334   3.970   1.026 -0.0301 -0.7696 -0.1480
 4066TIP3   OH233612   2.627   1.123   2.468  0.1484 -0.1645 -0.2290
 4066TIP3    H133613   2.673   1.070   2.402 -1.3802 -1.2352 -0.4796
 4066TIP3    H233614   2.608   1.205   2.422  0.8648 -0.1093 -0.4504
 4067TIP3   OH233615   4.752   6.745   5.344 -0.3075  0.2324 -0.2871
 4067TIP3    H133616   4.705   6.775   5.266 -1.2851 -0.6389 -0.0485
 4067TIP3    H233617   4.692   6.764   5.416  0.4960  0.8210  0.2349
 4068TIP3   OH233618   1.096   1.857  12.334  0.0129  0.6987  0.1277
 4068TIP3    H133619   1.013   1.865  12.287  0.4034  1.0294 -0.5239
 4068TIP3    H233620   1.077   1.887  12.422 -1.1212 -1.3527  0.6642
 4069TIP3   OH233621   1.633   0.240  12.455 -0.0576  0.3334 -0.4934
 4069TIP3    H133622   1.626   0.146  12.470  3.0311  0.4073  2.5517
 4069TIP3    H233623   1.559   0.278  12.502 -0.5323 -0.4950 -0.5634
 4070TIP3   OH233624   1.662   6.224   1.256  0.2820 -0.3713  0.1959
 4070TIP3    H133625   1.574   6.260   1.242  0.3661 -0.3842 -0.3680
 4070TIP3    H233626   1.721   6.292   1.226  0.4723 -0.3658  0.5718
 4071TIP3   OH233627   5.209   1.922   3.831 -0.3256 -0.2238  0.2710
 4071TIP3    H133628   5.260   2.001   3.812 -1.9252  1.1848  1.4912
 4071TIP3    H233629   5.268   1.867   3.882  0.1331  1.2066  1.3612
 4072TIP3   OH233630   4.479   4.569   4.407 -0.2337  0.3993 -0.3311
 4072TIP3    H133631   4.467   4.664   4.407 -2.0115  0.2321  0.9541
 4072TIP3    H233632   4.573   4.556   4.414  0.2990  2.0248 -3.1789
 4073TIP3   OH233633   4.297   3.882  14.502 -0.1823  0.2936 -0.1660
 4073TIP3    H133634   4.310   3.948  14.434  0.6391 -0.8788 -1.1703
 4073TIP3    H233635   4.243   3.927  14.568  1.7188  2.5226  0.0157
 4074TIP3   OH233636   6.458   2.237   3.434  0.1247 -0.3266 -0.1589
 4074TIP3    H133637   6.412   2.202   3.510  0.9808  0.7230  0.8638
 4074TIP3    H233638   6.451   2.332   3.443  0.0967 -0.1798 -1.4902
 4075TIP3   OH233639   2.258   6.293   2.857  0.4320  0.4452 -0.0806
 4075TIP3    H133640   2.317   6.218   2.865 -0.1531  0.0173  0.3127
 4075TIP3    H233641   2.193   6.266   2.793 -1.0165 -0.2350  1.6015
 4076TIP3   OH233642   2.999   5.857  12.376 -0.0237  0.5216  0.3328
 4076TIP3    H133643   3.029   5.870  12.286  0.5502  1.3328  0.6225
 4076TIP3    H233644   2.961   5.769  12.377 -0.1058  0.5369 -0.7141
 4077TIP3   OH233645   2.893   6.382   0.344 -0.5932  0.4282 -0.1218
 4077TIP3    H133646   2.943   6.301   0.328 -1.4867 -0.5183  1.6204
 4077TIP3    H233647   2.906   6.400   0.437  0.3489  2.8808 -0.6465
 4078TIP3   OH233648   1.269   4.321   4.572 -0.1995 -0.3491  0.1215
 4078TIP3    H133649   1.274   4.412   4.603  0.9270 -0.2533 -0.2893
 4078TIP3    H233650   1.259   4.269   4.652 -0.5061  0.1093  0.3859
 4079TIP3   OH233651   6.750   0.675   5.117 -0.0634 -0.1753  0.6646
 4079TIP3    H133652   6.680   0.730   5.081 -0.0795  0.3347  1.4529
 4079TIP3    H233653   6.807   0.657   5.042  0.0133  1.0158  0.4216
 4080TIP3   OH233654   3.732   0.749  13.698 -0.5037  0.4162  0.2817
 4080TIP3    H133655   3.690   0.832  13.678  1.3817  1.6542  1.1760
 4080TIP3    H233656   3.752   0.754  13.792 -0.0637 -0.8948  0.2742
 4081TIP3   OH233657   1.344   2.104  14.427 -0.4456 -0.7329  0.2277
 4081TIP3    H133658   1.268   2.159  14.446 -1.1734 -1.4613 -0.4722
 4081TIP3    H233659   1.350   2.045  14.502  0.0225 -0.0452  0.7369
 4082TIP3   OH233660   2.400   6.010   6.224  0.4812  0.2891  0.3905
 4082TIP3    H133661   2.366   5.931   6.181 -0.1243  0.4873  0.4970
 4082TIP3    H233662   2.450   6.054   6.155  0.9518 -0.2561  0.3707
 4083TIP3   OH233663   2.842   4.643   1.343 -0.1904 -0.3816 -0.3196
 4083TIP3    H133664   2.896   4.573   1.308  0.2405 -0.1788 -0.0783
 4083TIP3    H233665   2.803   4.686   1.266  1.6585  0.7987 -0.6524
 4084TIP3   OH233666   6.540   5.425  11.209  0.0847 -0.3333 -0.3099
 4084TIP3    H133667   6.593   5.448  11.286 -0.3582 -0.1838 -0.0455
 4084TIP3    H233668   6.604   5.396  11.144  0.6232  1.2173 -0.5140
 4085TIP3   OH233669   2.732   5.590  13.228 -0.0629  0.0874 -0.7845
 4085TIP3    H133670   2.657   5.567  13.284 -1.1670  0.0952 -2.2013
 4085TIP3    H233671   2.720   5.684  13.212  0.9312  0.3495 -0.0846
 4086TIP3   OH233672   4.041   3.095  11.380 -0.0894  0.4719 -0.4122
 4086TIP3    H133673   4.109   3.154  11.411  0.0106  0.0300  0.2133
 4086TIP3    H233674   4.003   3.141  11.304  1.2837  0.4464 -1.1364
 4087TIP3   OH233675   2.503   2.336   5.923 -0.0020  0.5155  0.0980
 4087TIP3    H133676   2.582   2.310   5.970  1.1704  1.7272 -1.1078
 4087TIP3    H233677   2.493   2.429   5.943 -0.3266  0.6961 -0.8349
 4088TIP3   OH233678   1.571   2.470   3.747  0.2814 -0.5861 -0.2418
 4088TIP3    H133679   1.653   2.478   3.699 -0.0972 -0.8991 -0.9509
 4088TIP3    H233680   1.590   2.406   3.816  0.6825 -0.5280 -0.2972
 4089TIP3   OH233681   1.090   1.123  16.460 -0.3759 -0.4808  0.1585
 4089TIP3    H133682   1.090   1.142  16.366 -0.4620 -1.0997  0.0316
 4089TIP3    H233683   1.020   1.179  16.495 -0.2549 -0.1508 -0.1243
 4090TIP3   OH233684   4.116   2.704   3.317  0.2484  0.1198  0.0237
 4090TIP3    H133685   4.168   2.772   3.362 -0.8195  1.2171 -0.3449
 4090TIP3    H233686   4.176   2.630   3.310  1.6027  1.1515  0.0890
 4091TIP3   OH233687   6.025   4.492   0.264  0.3632  0.4331  0.4258
 4091TIP3    H133688   6.095   4.460   0.208  1.2261  0.8904  1.2261
 4091TIP3    H233689   6.000   4.416   0.317 -0.1088  0.1380 -0.1965
 4092TIP3   OH233690   3.215   4.421  14.149 -0.3065 -0.1420  0.0483
 4092TIP3    H133691   3.175   4.492  14.199  2.3650  1.2187  0.4180
 4092TIP3    H233692   3.252   4.464  14.071 -0.5292 -1.5114 -0.8626
 4093TIP3   OH233693   1.270   5.415   2.561  0.6634  0.1164 -0.5753
 4093TIP3    H133694   1.283   5.428   2.467  2.0021 -0.4903 -0.4821
 4093TIP3    H233695   1.205   5.345   2.567 -2.0676  2.3870 -1.0251
 4094TIP3   OH233696   0.072   3.551   2.363  0.5080 -0.2200 -0.1486
 4094TIP3    H133697   0.031   3.585   2.442 -1.2805 -0.7282 -0.8161
 4094TIP3    H233698   0.124   3.476   2.394 -0.7293 -0.8484  0.4785
 4095TIP3   OH233699   1.861   2.136  14.028 -0.2323 -0.2842 -0.1382
 4095TIP3    H133700   1.848   2.231  14.031  2.6259  0.2892 -2.0523
 4095TIP3    H233701   1.816   2.108  13.948  2.1574  0.2060 -1.7524
 4096TIP3   OH233702   6.579   0.978   0.867  0.3627  0.2871 -0.6752
 4096TIP3    H133703   6.660   1.023   0.890 -0.1223  0.5863  0.5402
 4096TIP3    H233704   6.542   1.030   0.796  0.8597  0.5873 -0.7192
 4097TIP3   OH233705   5.304   3.493   4.587  0.1204 -0.0085  0.0573
 4097TIP3    H133706   5.236   3.533   4.641 -0.1864  0.3049 -0.5463
 4097TIP3    H233707   5.288   3.528   4.499  0.9159 -0.1186 -0.1382
 4098TIP3   OH233708   1.231   5.898  16.737  0.2855 -0.4647 -0.1103
 4098TIP3    H133709   1.147   5.925  16.700 -0.7944 -0.8503  1.9337
 4098TIP3    H233710   1.234   5.803  16.720  0.8547 -0.2814 -1.1436
 4099TIP3   OH233711   3.995   6.097  13.463 -0.1060  0.1069 -0.2340
 4099TIP3    H133712   4.036   6.089  13.549  1.2343  0.7950 -0.7776
 4099TIP3    H233713   4.010   6.012  13.421 -0.8646 -0.2713  0.2270
 4100TIP3   OH233714   5.983   4.083  12.588 -0.2249  0.0747 -0.3660
 4100TIP3    H133715   6.072   4.112  12.605  0.1990 -1.2603 -0.2281
 4100TIP3    H233716   5.992   4.009  12.528 -1.2005 -0.4235  0.0748
 4101TIP3   OH233717   6.017   1.721   2.945 -0.8502 -0.1863 -0.4034
 4101TIP3    H133718   6.018   1.739   3.039  1.4903 -0.1484 -0.3704
 4101TIP3    H233719   6.005   1.626   2.939  0.5027 -0.4123  0.0393
 4102TIP3   OH233720   2.451   0.613  15.479 -0.0868  0.5126 -0.4043
 4102TIP3    H133721   2.387   0.683  15.485  1.5476  2.1413 -1.0198
 4102TIP3    H233722   2.536   0.657  15.486  1.0293 -1.7394  2.5432
 4103TIP3   OH233723   1.648   1.835  14.023  0.3056 -0.1164 -0.3472
 4103TIP3    H133724   1.718   1.838  14.088  0.3173  2.0125 -0.3883
 4103TIP3    H233725   1.569   1.861  14.071 -0.2567 -1.3962 -0.5522
 4104TIP3   OH233726   3.589   4.564  12.453  0.3000 -0.4749 -0.6102
 4104TIP3    H133727   3.568   4.578  12.361  0.6816 -2.1032 -0.9837
 4104TIP3    H233728   3.517   4.604  12.501  0.4759  1.0514 -1.5772
 4105TIP3   OH233729   4.708   1.494   1.001 -0.5190  0.0777 -0.1919
 4105TIP3    H133730   4.614   1.512   1.001 -1.0253 -2.2435  0.9497
 4105TIP3    H233731   4.732   1.491   1.094  0.2869 -1.0425 -0.4147
 4106TIP3   OH233732   0.687   0.554  12.374  0.6382 -0.2945  0.0210
 4106TIP3    H133733   0.643   0.609  12.439  0.4760 -0.6262  0.1968
 4106TIP3    H233734   0.751   0.504  12.425 -0.4174 -1.5444  0.1542
 4107TIP3   OH233735   2.774   2.937   3.349 -0.3836  0.0055 -0.2746
 4107TIP3    H133736   2.731   3.021   3.358 -1.6686 -0.7324  0.8382
 4107TIP3    H233737   2.859   2.957   3.309 -0.8945  1.7344 -0.5617
 4108TIP3   OH233738   2.029   0.253   3.092 -0.0327  0.0235  0.4234
 4108TIP3    H133739   2.108   0.295   3.058 -0.1580  0.9342  1.2148
 4108TIP3    H233740   1.957   0.305   3.056 -0.1564  1.2931  2.3790
 4109TIP3   OH233741   0.950   6.300  14.129  0.1355  0.2872 -0.1960
 4109TIP3    H133742   1.028   6.247  14.147  0.3000 -0.2254 -2.2147
 4109TIP3    H233743   0.883   6.262  14.186  0.7824 -0.7308 -0.0757
 4110TIP3   OH233744   2.162   2.191   4.673 -0.1996  0.3395  0.1256
 4110TIP3    H133745   2.218   2.211   4.598 -0.3449 -0.7586 -0.2906
 4110TIP3    H233746   2.150   2.275   4.717  1.2563  0.7068 -0.1284
 4111TIP3   OH233747   3.629   3.515  16.075 -0.7030 -0.1071 -0.0698
 4111TIP3    H133748   3.600   3.431  16.041 -1.4613  0.4193 -0.7817
 4111TIP3    H233749   3.617   3.508  16.170  0.1125 -1.1092 -0.0292
 4112TIP3   OH233750   5.040   2.139   3.693 -0.0959 -0.1155  0.1149
 4112TIP3    H133751   5.057   2.104   3.605  0.0091  0.0185  0.0814
 4112TIP3    H233752   5.084   2.077   3.751 -0.8429 -0.6558  0.1275
 4113TIP3   OH233753   1.721   5.081   1.826 -0.0962 -0.0866  0.2950
 4113TIP3    H133754   1.644   5.067   1.770  0.0447 -1.2656  0.3773
 4113TIP3    H233755   1.794   5.048   1.774  0.2112  0.0292  0.6513
 4114TIP3   OH233756   5.626   4.607  14.912  0.3840 -0.2306  0.1431
 4114TIP3    H133757   5.680   4.564  14.978 -0.2724  1.0850  1.6029
 4114TIP3    H233758   5.536   4.587  14.938  0.0956  1.1032  0.2486
 4115TIP3   OH233759   4.558   1.961  11.945  0.0913 -0.3266 -0.0645
 4115TIP3    H133760   4.530   2.037  11.996  2.3421 -0.3017  1.2648
 4115TIP3    H233761   4.551   1.990  11.854 -0.9218  0.7862  0.3408
 4116TIP3   OH233762   1.728   2.259  11.750  0.4916 -0.5977  0.4093
 4116TIP3    H133763   1.687   2.181  11.714 -0.3122 -1.0493  2.2296
 4116TIP3    H233764   1.671   2.331  11.723  0.0303 -0.8931  0.6054
 4117TIP3   OH233765   0.909   6.490   5.999  0.4074 -0.2856  0.1556
 4117TIP3    H133766   0.859   6.417   5.962 -1.0198  0.4561  0.5399
 4117TIP3    H233767   0.999   6.475   5.969 -0.6484  0.5024 -4.1209
 4118TIP3   OH233768   6.339   6.744  14.121 -0.3191 -0.4725  0.6851
 4118TIP3    H133769   6.331   6.673  14.184 -0.5671 -0.4465  0.6840
 4118TIP3    H233770   6.260   6.738  14.067 -0.2965 -0.2541  0.6255
 4119TIP3   OH233771   4.309   2.512   0.557  0.4112 -0.0826  0.2914
 4119TIP3    H133772   4.269   2.527   0.642  0.8019  1.2669  0.2613
 4119TIP3    H233773   4.401   2.539   0.568  0.3926  0.4066 -0.6247
 4120TIP3   OH233774   5.603   1.812  12.411 -0.7403 -0.1252 -0.4012
 4120TIP3    H133775   5.551   1.732  12.409  0.5848 -1.0255 -0.2281
 4120TIP3    H233776   5.645   1.810  12.497  0.9532 -0.3528 -1.2008
 4121TIP3   OH233777   6.579   1.177  13.831 -0.0921  0.1157  0.6329
 4121TIP3    H133778   6.647   1.240  13.853  1.4135 -1.7232  1.5659
 4121TIP3    H233779   6.601   1.147  13.743 -0.8303  0.8712  0.1734
 4122TIP3   OH233780   2.816   0.555   3.882 -0.3896  0.3578  0.3425
 4122TIP3    H133781   2.904   0.565   3.920  0.7289 -1.9265 -1.4198
 4122TIP3    H233782   2.800   0.638   3.838  1.7075  0.2358 -0.7962
 4123TIP3   OH233783   5.061   0.442  16.004 -0.0850  0.1835  0.1423
 4123TIP3    H133784   5.112   0.363  15.984 -0.9109 -0.6441  1.1877
 4123TIP3    H233785   4.983   0.435  15.950  0.4092  0.9524 -0.7092
 4124TIP3   OH233786   2.555   0.225  10.079  0.2038 -0.3141  0.8185
 4124TIP3    H133787   2.603   0.294  10.123  1.2656 -0.7429  0.3577
 4124TIP3    H233788   2.476   0.213  10.131  1.1094 -0.3509  2.2249
 4125TIP3   OH233789   3.574   3.912  14.344  0.3835 -0.0482  0.2804
 4125TIP3    H133790   3.529   3.968  14.281 -0.4160 -0.5438  0.3905
 4125TIP3    H233791   3.664   3.908  14.313 -0.2203 -1.1832 -1.4849
 4126TIP3   OH233792   1.041   1.865  16.834 -0.4683  0.0138  0.4215
 4126TIP3    H133793   1.104   1.832  16.898  1.3979  1.4246 -0.5890
 4126TIP3    H233794   1.036   1.959  16.852  0.0325  0.4273 -1.4123
 4127TIP3   OH233795   4.601   2.805  15.350 -0.1519  0.0560  0.5838
 4127TIP3    H133796   4.512   2.769  15.347 -0.7375  1.5182 -1.5263
 4127TIP3    H233797   4.599   2.880  15.291  2.3242  0.5598  1.0258
 4128TIP3   OH233798   0.517   0.325  12.544  0.2384  0.5325 -0.0977
 4128TIP3    H133799   0.578   0.329  12.618  2.9554 -0.6305 -2.0969
 4128TIP3    H233800   0.539   0.400  12.489 -0.7122  0.5560 -0.4716
 4129TIP3   OH233801   1.680   6.322   4.312 -0.3909 -0.8969  0.0658
 4129TIP3    H133802   1.696   6.289   4.401 -1.9428  0.1606  0.7760
 4129TIP3    H233803   1.705   6.414   4.317 -1.6042 -0.5451 -0.2668
 4130TIP3   OH233804   1.447   6.262   0.580  0.3288 -0.0918  0.2384
 4130TIP3    H133805   1.514   6.207   0.620  0.4991  0.7938  1.2105
 4130TIP3    H233806   1.422   6.215   0.500  3.3035  0.3829 -1.1102
 4131TIP3   OH233807   3.361   3.092   6.256  0.0356  0.1042  0.7577
 4131TIP3    H133808   3.274   3.065   6.284  0.1431 -0.5655  0.4553
 4131TIP3    H233809   3.420   3.055   6.322  0.2073 -0.6661  0.1810
 4132TIP3   OH233810   6.641   5.138   6.307 -0.2335 -0.1342 -0.6020
 4132TIP3    H133811   6.591   5.216   6.284 -2.1879 -1.2230 -0.2345
 4132TIP3    H233812   6.582   5.087   6.362  0.8425 -2.0522 -1.1375
 4133TIP3   OH233813   4.117   3.117  13.168 -0.0032 -0.3011 -0.0861
 4133TIP3    H133814   4.121   3.119  13.072  0.1029 -0.9987 -0.1068
 4133TIP3    H233815   4.113   3.208  13.194  0.4095 -0.0842 -0.7412
 4134TIP3   OH233816   2.287   2.640   4.464  0.8580 -0.8113 -0.2090
 4134TIP3    H133817   2.300   2.724   4.508  0.6773 -0.4162 -0.9012
 4134TIP3    H233818   2.331   2.577   4.521 -0.4416 -0.5086  1.2019
 4135TIP3   OH233819   5.103   0.223   4.623  0.3139  0.1252 -0.2755
 4135TIP3    H133820   5.183   0.174   4.604  1.0990 -0.0780  3.0485
 4135TIP3    H233821   5.057   0.170   4.689 -1.8488  0.9888 -0.9916
 4136TIP3   OH233822   5.856   0.746   3.815  0.2230 -0.0850  0.1289
 4136TIP3    H133823   5.831   0.821   3.870 -1.5013 -0.9135  0.5627
 4136TIP3    H233824   5.796   0.749   3.741 -0.6780 -1.6328  0.7261
 4137TIP3   OH233825   1.753   4.772  16.314  0.0622 -0.4895 -0.2055
 4137TIP3    H133826   1.754   4.830  16.390  0.7822 -1.9358  0.9435
 4137TIP3    H233827   1.838   4.783  16.273 -0.1869  0.0109 -0.6017
 4138TIP3   OH233828   2.126   3.106  11.957  0.2655 -0.0683 -0.4295
 4138TIP3    H133829   2.139   3.160  12.035  1.9023 -1.2193  0.1335
 4138TIP3    H233830   2.038   3.069  11.968  0.3584  0.0237  0.7258
 4139TIP3   OH233831   1.403   5.276  15.820 -0.2502 -0.1801  0.3088
 4139TIP3    H133832   1.466   5.275  15.891  1.7196 -1.0396 -1.3266
 4139TIP3    H233833   1.384   5.183  15.804  1.8746 -0.2803 -2.2849
 4140TIP3   OH233834   3.323   3.846  11.675  0.0279 -0.3619  0.1452
 4140TIP3    H133835   3.251   3.795  11.712  0.1853 -0.5163  0.2426
 4140TIP3    H233836   3.284   3.895  11.603  0.1067 -1.5328 -0.7389
 4141TIP3   OH233837   2.963   3.858   6.604  0.3119 -0.1459 -1.1350
 4141TIP3    H133838   3.047   3.898   6.582  0.4830  0.2278  0.1251
 4141TIP3    H233839   2.987   3.775   6.646  0.1140  0.5224  0.3443
 4142TIP3   OH233840   4.206   3.488  11.905  0.2030 -0.1814 -0.5918
 4142TIP3    H133841   4.266   3.463  11.835 -1.1409  1.5075 -2.4971
 4142TIP3    H233842   4.262   3.523  11.974  1.4697  0.5109 -1.9196
 4143TIP3   OH233843   1.301   1.299  14.409 -0.9162  0.6240  0.2356
 4143TIP3    H133844   1.300   1.303  14.313  1.2316  0.9229  0.1644
 4143TIP3    H233845   1.288   1.390  14.436  0.5576  0.9024  0.1181
 4144TIP3   OH233846   3.523   5.390  15.080  0.0314 -0.4430 -0.0117
 4144TIP3    H133847   3.545   5.477  15.046 -0.9558  0.1743  0.8733
 4144TIP3    H233848   3.534   5.398  15.175  2.8958 -2.1775 -0.0765
 4145TIP3   OH233849   2.596   6.681   1.326 -0.2602  0.2821  0.5802
 4145TIP3    H133850   2.575   6.603   1.377  2.4085  0.3308  1.9044
 4145TIP3    H233851   2.582   6.655   1.235 -0.5856 -1.3252  1.0582
 4146TIP3   OH233852   6.411   5.428   0.456 -0.3834 -0.3129 -0.5525
 4146TIP3    H133853   6.482   5.462   0.402  0.1142  2.4391  1.6436
 4146TIP3    H233854   6.342   5.493   0.449  0.0485  0.6892  2.7130
 4147TIP3   OH233855   5.344   5.031  10.998 -0.4095 -0.1784 -0.1201
 4147TIP3    H133856   5.411   5.036  10.930 -0.7618 -2.9826 -0.7845
 4147TIP3    H233857   5.287   4.960  10.971 -1.2011 -0.6857  2.5761
 4148TIP3   OH233858   4.011   2.394   1.022  0.1947 -0.3145 -0.5600
 4148TIP3    H133859   3.969   2.441   1.094 -1.0067 -0.3109 -1.2397
 4148TIP3    H233860   4.015   2.303   1.051  2.8625  0.1503  0.9202
 4149TIP3   OH233861   1.300   3.287  12.854  0.1666  0.5255 -0.7516
 4149TIP3    H133862   1.361   3.251  12.790 -0.2054  1.1353 -1.4742
 4149TIP3    H233863   1.257   3.360  12.808  0.3340  1.3843  0.3869
 4150TIP3   OH233864   5.882   0.237  15.582 -0.4532  0.4693  0.0332
 4150TIP3    H133865   5.794   0.227  15.618 -0.6955  1.6065 -0.1983
 4150TIP3    H233866   5.930   0.284  15.650 -0.1070  0.1247  0.0278
 4151TIP3   OH233867   6.390   1.551  11.731 -0.0153  0.4420 -0.1116
 4151TIP3    H133868   6.337   1.525  11.807  0.0290 -0.2225 -0.3021
 4151TIP3    H233869   6.464   1.490  11.731  0.1020  0.5804 -0.5596
 4152TIP3   OH233870   0.408   2.126  15.806 -0.2312  0.3534  0.2439
 4152TIP3    H133871   0.410   2.054  15.870 -0.5648 -1.4497 -1.6678
 4152TIP3    H233872   0.315   2.137  15.787 -0.1034  0.5692 -0.2545
 4153TIP3   OH233873   1.621   6.620   2.748 -0.1797 -0.0000 -0.2238
 4153TIP3    H133874   1.709   6.627   2.711 -0.5711  1.6165 -0.9845
 4153TIP3    H233875   1.603   6.526   2.752  0.7924 -0.3110 -2.0198
 4154TIP3   OH233876   3.694   0.310   1.928 -0.7169  1.0305 -0.2215
 4154TIP3    H133877   3.738   0.373   1.986 -0.1089  0.3180  0.1115
 4154TIP3    H233878   3.732   0.328   1.841  0.2869  0.4109  0.0655
 4155TIP3   OH233879   5.045   5.953   4.027  0.1032 -0.1555  0.3513
 4155TIP3    H133880   5.109   5.940   3.958  0.5546  1.6611  0.3827
 4155TIP3    H233881   5.093   5.997   4.097 -0.9339  0.3438  0.7729
 4156TIP3   OH233882   5.593   4.510  11.205  0.0164 -0.2196 -0.2157
 4156TIP3    H133883   5.512   4.478  11.166 -0.8120  0.3483  0.9685
 4156TIP3    H233884   5.603   4.459  11.285  1.3211 -0.8985 -0.7782
 4157TIP3   OH233885   0.181   2.766  10.690  0.7753 -0.2795 -0.1794
 4157TIP3    H133886   0.233   2.800  10.618  1.2038  0.0873  0.2954
 4157TIP3    H233887   0.132   2.693  10.652  0.5676  0.2586 -0.9720
 4158TIP3   OH233888   2.730   0.331  14.259  0.3571  0.0255  0.2630
 4158TIP3    H133889   2.808   0.350  14.206  0.1840 -1.2455 -0.4879
 4158TIP3    H233890   2.667   0.398  14.232  0.9673  0.6822  0.4204
 4159TIP3   OH233891   5.154   0.253   5.640 -0.3006 -0.3987  0.1418
 4159TIP3    H133892   5.215   0.326   5.631 -1.1413  0.3677  0.5888
 4159TIP3    H233893   5.070   0.293   5.661 -1.2184 -1.3688 -1.4795
 4160TIP3   OH233894   4.741   2.846   6.485  0.5353 -0.0356 -0.5655
 4160TIP3    H133895   4.688   2.788   6.431  1.2672 -0.2369 -1.0742
 4160TIP3    H233896   4.771   2.914   6.425  1.6550 -0.4597 -0.5018
 4161TIP3   OH233897   2.638   2.895   0.910  0.6136 -0.0881 -0.2291
 4161TIP3    H133898   2.593   2.937   0.836 -0.0253 -0.6755 -0.1799
 4161TIP3    H233899   2.655   2.806   0.881  1.6274  0.0698 -0.1834
 4162TIP3   OH233900   1.546   6.370  11.548 -0.0317 -0.0784  0.1916
 4162TIP3    H133901   1.568   6.442  11.489  2.0908 -0.1198  0.8365
 4162TIP3    H233902   1.532   6.412  11.632  2.4983 -0.4401  0.8716
 4163TIP3   OH233903   6.129   5.641  12.548 -0.0131 -0.4836 -0.0937
 4163TIP3    H133904   6.083   5.659  12.630  0.3920  0.6938 -0.1073
 4163TIP3    H233905   6.221   5.638  12.572  0.0804 -0.4903 -0.4476
 4164TIP3   OH233906   0.215   0.252   6.300 -0.3006 -0.7179  0.4220
 4164TIP3    H133907   0.287   0.210   6.347 -0.4815  1.3983  2.8189
 4164TIP3    H233908   0.141   0.249   6.361 -1.8965 -1.6010 -1.4405
 4165TIP3   OH233909   5.183   3.459  13.761 -0.0009 -0.5465 -0.0166
 4165TIP3    H133910   5.199   3.468  13.668  0.9535 -0.7582  0.1203
 4165TIP3    H233911   5.120   3.529  13.782  0.9904  0.5284 -0.5129
 4166TIP3   OH233912   4.079   2.420   2.783  0.4974  0.2561 -0.1705
 4166TIP3    H133913   4.088   2.338   2.734 -1.6289 -0.4049  0.4625
 4166TIP3    H233914   4.033   2.479   2.723  0.5307  0.4323 -0.0240
 4167TIP3   OH233915   3.164   6.070   5.817  0.0446 -0.0608 -0.5078
 4167TIP3    H133916   3.212   6.003   5.769  0.2916  0.2227 -0.6576
 4167TIP3    H233917   3.139   6.026   5.899 -0.7714 -0.6844 -1.0769
 4168TIP3   OH233918   5.773   4.154   0.899  0.3081  0.6919  0.5874
 4168TIP3    H133919   5.685   4.118   0.886  0.6769  0.2387 -0.7614
 4168TIP3    H233920   5.818   4.089   0.953 -0.3414  1.2131  1.8106
 4169TIP3   OH233921   6.500   4.209   4.743  0.3756 -0.5498 -0.0315
 4169TIP3    H133922   6.437   4.145   4.711  0.7401 -0.8925 -0.0715
 4169TIP3    H233923   6.585   4.174   4.718  0.6967 -0.9627  1.4942
 4170TIP3   OH233924   3.218   4.417   2.681  0.4418  0.2085 -0.2060
 4170TIP3    H133925   3.267   4.441   2.602 -2.7141  3.4233 -1.4718
 4170TIP3    H233926   3.152   4.354   2.650  1.8803 -1.9829  0.9215
 4171TIP3   OH233927   1.733   4.032  14.006  0.2586 -0.6807  0.1537
 4171TIP3    H133928   1.660   3.997  13.954 -0.8697  1.3535  0.2436
 4171TIP3    H233929   1.797   3.961  14.008 -1.1420 -2.0728 -1.0671
 4172TIP3   OH233930   4.505   4.841  14.371 -0.1387 -0.4341 -0.1650
 4172TIP3    H133931   4.473   4.842  14.281 -0.3861  0.5615 -0.0868
 4172TIP3    H233932   4.426   4.851  14.424 -0.1410 -2.3322  0.2365
 4173TIP3   OH233933   1.887   3.649   2.227 -0.0241  1.2921 -0.0517
 4173TIP3    H133934   1.931   3.581   2.175  1.0198  0.6980  1.5392
 4173TIP3    H233935   1.836   3.699   2.163 -0.8149 -0.9604 -1.2940
 4174TIP3   OH233936   3.288   3.944   3.909  0.0311  0.2721  0.4187
 4174TIP3    H133937   3.268   3.858   3.946 -0.6797 -0.4376 -1.5078
 4174TIP3    H233938   3.244   3.944   3.824 -0.3099  2.7019  0.5372
 4175TIP3   OH233939   6.778   1.258  15.618 -0.2435 -0.3938 -0.3761
 4175TIP3    H133940   6.854   1.279  15.672  0.0835 -1.5836 -0.3404
 4175TIP3    H233941   6.709   1.317  15.648  0.3954  0.0393  0.2456
 4176TIP3   OH233942   4.649   0.539   1.864  0.2338  0.5330 -0.0836
 4176TIP3    H133943   4.666   0.584   1.947  1.0392  2.6950 -1.3413
 4176TIP3    H233944   4.655   0.445   1.886  1.7277  1.0480  2.0350
 4177TIP3   OH233945   1.260   3.533   1.331 -0.4962 -0.0588 -0.8328
 4177TIP3    H133946   1.327   3.478   1.291  0.3632  0.7499 -0.5693
 4177TIP3    H233947   1.204   3.472   1.379  1.3861 -0.5994  0.8125
 4178TIP3   OH233948   5.274   6.358  16.592  0.0342 -0.2786  0.0299
 4178TIP3    H133949   5.194   6.330  16.549  0.2829 -3.5213  1.3982
 4178TIP3    H233950   5.255   6.351  16.685  1.8753 -1.1654  0.3822
 4179TIP3   OH233951   0.866   0.705  10.555  0.1619  0.1398 -0.2867
 4179TIP3    H133952   0.937   0.737  10.500 -0.8234 -1.4432 -2.6105
 4179TIP3    H233953   0.790   0.758  10.531 -0.1500 -0.1738 -0.0184
 4180TIP3   OH233954   4.283   3.415   0.641  0.1622  0.3783  0.0159
 4180TIP3    H133955   4.201   3.383   0.602 -0.1391 -0.9933  1.6753
 4180TIP3    H233956   4.331   3.336   0.664  1.6696  1.1721 -0.3027
 4181TIP3   OH233957   1.438   2.193   5.222  0.1078  0.1884 -0.2889
 4181TIP3    H133958   1.449   2.204   5.316  0.6194 -1.8310 -0.0756
 4181TIP3    H233959   1.498   2.123   5.198 -0.2153  0.4695 -2.0809
 4182TIP3   OH233960   4.957   5.522  15.302 -1.0124 -0.1888  0.1572
 4182TIP3    H133961   5.013   5.477  15.238  2.4419 -0.6495  3.1452
 4182TIP3    H233962   4.951   5.611  15.269 -1.4674 -0.9469 -1.9945
 4183TIP3   OH233963   5.737   6.213  15.001 -0.3706 -0.1420 -0.2789
 4183TIP3    H133964   5.707   6.150  14.936 -1.7628 -0.6349  0.7762
 4183TIP3    H233965   5.682   6.291  14.987  1.4285  0.9591 -1.6633
 4184TIP3   OH233966   2.297   4.855  13.603 -0.3868 -0.0847 -0.2945
 4184TIP3    H133967   2.250   4.931  13.568 -0.9436  0.2290  1.1026
 4184TIP3    H233968   2.271   4.783  13.546 -0.2862  0.6379 -1.2945
 4185TIP3   OH233969   5.567   4.489   5.291 -0.0479  0.1891  0.6611
 4185TIP3    H133970   5.592   4.579   5.270 -2.0775  0.4128 -1.1014
 4185TIP3    H233971   5.595   4.438   5.215 -0.2809 -0.3886  0.9580
 4186TIP3   OH233972   4.547   2.713   6.339 -0.6836  0.3217 -0.1383
 4186TIP3    H133973   4.497   2.658   6.398 -2.6859 -0.0618 -2.0613
 4186TIP3    H233974   4.576   2.653   6.270  0.8055  0.9231 -0.0810
 4187TIP3   OH233975   1.337   3.452   2.725  0.4764  0.3309  0.1562
 4187TIP3    H133976   1.265   3.508   2.694  1.1016  0.6602 -0.7330
 4187TIP3    H233977   1.293   3.379   2.768 -0.4507 -0.0472 -1.3415
 4188TIP3   OH233978   4.922   1.440   2.839 -0.4023  0.4648  0.4115
 4188TIP3    H133979   4.827   1.438   2.832 -0.3367  1.6974 -1.9358
 4188TIP3    H233980   4.946   1.530   2.819  1.3096 -0.1359 -0.4538
 4189TIP3   OH233981   5.330   1.620  13.768 -0.0742  0.0955  0.2772
 4189TIP3    H133982   5.339   1.579  13.854  1.7741  0.0480  0.0888
 4189TIP3    H233983   5.356   1.553  13.706  1.1520  0.9247 -0.1438
 4190TIP3   OH233984   2.786   2.400   0.708 -0.0185  0.3530 -0.0574
 4190TIP3    H133985   2.805   2.479   0.759 -0.9991  0.3152  0.3813
 4190TIP3    H233986   2.691   2.401   0.697 -0.0801 -0.9559  0.2576
 4191TIP3   OH233987   1.924   1.617  16.814 -0.4446 -0.5772 -0.2338
 4191TIP3    H133988   2.000   1.582  16.767 -1.7012 -1.3508 -1.7876
 4191TIP3    H233989   1.939   1.712  16.818  0.3570 -0.6642 -0.9880
 4192TIP3   OH233990   2.215   1.180   5.389 -0.7700  0.0259  0.4251
 4192TIP3    H133991   2.302   1.145   5.407 -0.5209  0.4251  0.0364
 4192TIP3    H233992   2.231   1.271   5.363 -1.3569  0.2949  0.9629
 4193TIP3   OH233993   2.889   6.106   5.739 -0.0279 -0.3326 -0.4094
 4193TIP3    H133994   2.895   6.190   5.785 -1.2795 -1.4369  1.9289
 4193TIP3    H233995   2.978   6.070   5.744  0.3206  0.4582 -0.6913
 4194TIP3   OH233996   4.073   5.186  13.172  0.3547  0.0399  0.2281
 4194TIP3    H133997   4.044   5.243  13.242  0.5227  0.7848 -0.2983
 4194TIP3    H233998   4.033   5.222  13.093 -0.7994 -1.4790  0.0697
 4195TIP3   OH233999   1.198   6.548   4.841 -0.1960 -0.3449  0.4045
 4195TIP3    H134000   1.281   6.506   4.864  0.6908  0.3145 -1.3838
 4195TIP3    H234001   1.171   6.505   4.760  0.9690  2.6210 -1.7607
 4196TIP3   OH234002   5.205   4.731   2.634 -0.0391  0.0434 -0.1443
 4196TIP3    H134003   5.272   4.782   2.587  0.8082  1.7734  2.6795
 4196TIP3    H234004   5.235   4.730   2.725 -2.6814 -1.1968  0.8196
 4197TIP3   OH234005   6.418   3.420   5.066  0.1726 -0.2256 -0.4652
 4197TIP3    H134006   6.369   3.495   5.032  1.0387  0.3876 -0.3994
 4197TIP3    H234007   6.385   3.408   5.155 -0.4991 -0.4046 -0.7307
 4198TIP3   OH234008   6.442   4.502  10.121 -0.7314 -0.0572 -0.0440
 4198TIP3    H134009   6.487   4.562  10.180  0.8962  0.5620 -1.8254
 4198TIP3    H234010   6.358   4.543  10.104 -0.2533  0.9661 -0.0133
 4199TIP3   OH234011   4.960   6.594  16.578  0.2923  0.0179  0.0048
 4199TIP3    H134012   4.975   6.509  16.537 -1.1216  0.6106 -1.8982
 4199TIP3    H234013   4.911   6.574  16.658  0.1836 -0.9818 -0.2954
 4200TIP3   OH234014   2.599   2.202  11.370 -0.2238 -0.3025  0.2062
 4200TIP3    H134015   2.678   2.247  11.340 -0.0808  0.6674  1.9063
 4200TIP3    H234016   2.531   2.269  11.366 -0.6887 -0.7872 -0.0674
 4201TIP3   OH234017   3.485   5.307  12.908  0.2562 -0.1863  0.6625
 4201TIP3    H134018   3.419   5.271  12.968 -1.7839  1.1746 -0.6295
 4201TIP3    H234019   3.527   5.377  12.958  0.0634 -0.4423  1.1940
 4202TIP3   OH234020   1.628   4.744   1.912  1.0085 -0.2365  0.0394
 4202TIP3    H134021   1.616   4.827   1.958  2.8765  0.9641 -1.4935
 4202TIP3    H234022   1.558   4.688   1.945 -1.0673  2.3048  0.2694
 4203TIP3   OH234023   0.322   5.439   3.687  0.5507  0.1622 -0.0941
 4203TIP3    H134024   0.305   5.533   3.676  0.7211  0.3257  0.9508
 4203TIP3    H234025   0.417   5.432   3.689  0.5759  0.3213  2.3629
 4204TIP3   OH234026   0.079   6.461   0.064 -0.1347  0.4043 -0.1753
 4204TIP3    H134027   0.067   6.403   0.140 -0.4265  0.3843 -0.2369
 4204TIP3    H234028   0.051   6.547   0.095  0.3469  0.5256 -0.0684
 4205TIP3   OH234029   4.680   3.430   0.089 -0.0991  0.3936  0.2266
 4205TIP3    H134030   4.622   3.503   0.068  0.1995  0.9330  1.2478
 4205TIP3    H234031   4.670   3.370   0.015 -0.8689  1.1421 -0.2934
 4206TIP3   OH234032   5.931   3.715  14.955 -0.4296 -0.2011  0.1829
 4206TIP3    H134033   5.867   3.775  14.917  1.4372  1.2752 -0.8454
 4206TIP3    H234034   5.923   3.727  15.049 -2.2614 -0.7619  0.1297
 4207TIP3   OH234035   1.121   5.223   1.347 -0.6197 -0.0515  0.0321
 4207TIP3    H134036   1.091   5.308   1.380  0.5631  1.6331 -2.8252
 4207TIP3    H234037   1.214   5.235   1.330 -0.8125 -1.2297 -2.2798
 4208TIP3   OH234038   6.640   0.544   4.806  0.1254  0.7608  0.2897
 4208TIP3    H134039   6.568   0.567   4.866 -0.2110 -0.4594  0.3905
 4208TIP3    H234040   6.610   0.573   4.720 -0.9017 -0.4861  0.1898
 4209TIP3   OH234041   1.100   1.498   3.262  0.3137  0.3070 -0.1350
 4209TIP3    H134042   1.115   1.553   3.185  0.5313  1.2164  0.5285
 4209TIP3    H234043   1.182   1.450   3.273  0.0334 -0.3572 -0.8676
 4210TIP3   OH234044   4.382   4.122  14.703  0.2353 -0.2636  0.1262
 4210TIP3    H134045   4.359   4.176  14.627 -1.6009 -0.7964  0.2726
 4210TIP3    H234046   4.477   4.109  14.694  0.2502  0.6127 -1.4568
 4211TIP3   OH234047   1.340   4.020   3.894 -0.0439 -0.1709  0.4205
 4211TIP3    H134048   1.345   4.103   3.940  0.9056 -1.3140  2.5454
 4211TIP3    H234049   1.424   3.978   3.910 -0.3996 -1.4557 -0.8115
 4212TIP3   OH234050   3.292   5.941  16.691 -0.3739  0.3419 -0.1808
 4212TIP3    H134051   3.208   5.918  16.731  0.0159 -1.7281 -0.4346
 4212TIP3    H234052   3.320   5.862  16.646  0.9763  1.4803 -1.4585
 4213TIP3   OH234053   4.892   5.550  12.076 -0.0251  0.1912  0.5476
 4213TIP3    H134054   4.930   5.497  12.146  2.0429 -0.0986 -0.7190
 4213TIP3    H234055   4.859   5.487  12.013  0.5499  0.4074  0.0192
 4214TIP3   OH234056   1.500   2.494  16.280  0.7408 -0.1472  0.0854
 4214TIP3    H134057   1.518   2.428  16.348 -0.3008 -1.8670 -1.2327
 4214TIP3    H234058   1.505   2.578  16.327  2.3791 -1.0989  1.7701
 4215TIP3   OH234059   0.234   2.232   2.980 -0.7488 -0.0461 -0.3557
 4215TIP3    H134060   0.193   2.278   3.054  0.5226 -0.9715  0.9928
 4215TIP3    H234061   0.174   2.159   2.961 -1.3136  0.4647 -0.5561
 4216TIP3   OH234062   4.706   2.418  15.516  0.7835 -0.2544  0.2591
 4216TIP3    H134063   4.790   2.404  15.473  1.5619  0.6528  1.4117
 4216TIP3    H234064   4.711   2.365  15.595 -1.1579 -2.9732 -1.2909
 4217TIP3   OH234065   5.258   5.317  14.560 -0.0172 -0.0546  0.6249
 4217TIP3    H134066   5.257   5.264  14.480  0.5427 -0.1993  0.7071
 4217TIP3    H234067   5.245   5.406  14.529 -0.3096 -0.1652  0.4206
 4218TIP3   OH234068   1.838   1.335   2.279  0.0008  0.0322  0.0393
 4218TIP3    H134069   1.762   1.316   2.223 -2.3833  0.3992  2.8927
 4218TIP3    H234070   1.892   1.256   2.274 -0.0448  0.0824 -2.7301
 4219TIP3   OH234071   3.806   2.979  15.936 -0.2209 -0.7154  0.3762
 4219TIP3    H134072   3.813   2.978  15.841 -1.4939  1.6589  0.1799
 4219TIP3    H234073   3.889   2.941  15.967  0.1204 -1.7171 -1.6446
 4220TIP3   OH234074   4.740   4.353  14.055 -0.1412 -0.5615  0.2090
 4220TIP3    H134075   4.708   4.277  14.006  0.1766 -0.7164  0.2361
 4220TIP3    H234076   4.835   4.350  14.044 -0.1199 -0.2193  0.2881
 4221TIP3   OH234077   5.627   0.054   6.231  0.2756 -0.3070  0.1526
 4221TIP3    H134078   5.699  -0.006   6.218 -0.8125 -1.7342  0.4868
 4221TIP3    H234079   5.664   0.127   6.281  1.6365 -0.6129 -0.3688
 4222TIP3   OH234080   6.794   3.076  10.555 -0.1061  0.6405  0.2896
 4222TIP3    H134081   6.787   3.098  10.648 -0.5548  1.3488  0.0931
 4222TIP3    H234082   6.881   3.106  10.530 -0.3413  1.3161  0.2604
 4223TIP3   OH234083   2.659   3.648  16.159  0.2668  0.5826 -0.1215
 4223TIP3    H134084   2.716   3.698  16.218  0.3782  0.0056  0.2740
 4223TIP3    H234085   2.578   3.698  16.156 -0.3235 -0.1678  1.8098
 4224TIP3   OH234086   2.126   1.008   0.631  0.1818 -0.2778  0.1718
 4224TIP3    H134087   2.094   1.017   0.541 -0.3234  1.3819  0.4811
 4224TIP3    H234088   2.059   1.051   0.685  2.1578  2.0182  0.9745
 4225TIP3   OH234089   3.534   4.676   4.312 -0.3706 -0.3864  0.2821
 4225TIP3    H134090   3.554   4.583   4.298 -0.0579 -0.2480 -0.2113
 4225TIP3    H234091   3.615   4.712   4.349 -0.6442 -0.4037  0.9059
 4226TIP3   OH234092   1.589   5.113   0.706 -0.0478  0.1723  0.1424
 4226TIP3    H134093   1.586   5.081   0.796 -1.2825  0.1994  0.1344
 4226TIP3    H234094   1.665   5.170   0.703 -0.2946  0.5909  1.3232
 4227TIP3   OH234095   5.577   0.771  16.225 -0.2760  0.4945  0.6492
 4227TIP3    H134096   5.616   0.688  16.252 -0.4511  0.2141  0.0613
 4227TIP3    H234097   5.539   0.753  16.139 -3.9730  0.0125  2.1735
 4228TIP3   OH234098   6.797   3.134  10.827 -0.3043 -0.3695  0.8267
 4228TIP3    H134099   6.711   3.091  10.827 -1.2306  1.2174 -1.6302
 4228TIP3    H234100   6.854   3.075  10.877 -2.5534 -2.0105  1.6235
 4229TIP3   OH234101   6.292   3.333   3.555 -0.6059 -0.3724 -0.9418
 4229TIP3    H134102   6.215   3.277   3.565 -0.5226 -0.3383  0.0697
 4229TIP3    H234103   6.363   3.283   3.596 -0.0453 -0.4661 -1.9817
 4230TIP3   OH234104   6.572   6.443  12.240 -0.1328  0.0357 -0.2164
 4230TIP3    H134105   6.493   6.390  12.229 -2.4529  2.9705  1.1088
 4230TIP3    H234106   6.568   6.508  12.169  0.4273  0.9693  0.5861
 4231TIP3   OH234107   0.972   6.473  16.666  0.1180 -0.6398  0.2770
 4231TIP3    H134108   0.927   6.499  16.586 -0.6791 -3.4209 -0.2866
 4231TIP3    H234109   0.929   6.523  16.736  0.4634  1.4239 -0.8983
 4232TIP3   OH234110   1.525   0.863  15.986  0.1635  0.0037 -0.1231
 4232TIP3    H134111   1.534   0.872  15.891  0.3977  0.6773 -0.0429
 4232TIP3    H234112   1.458   0.927  16.010 -0.0047 -0.2718  0.1474
 4233TIP3   OH234113   1.879   6.679   6.967 -0.1987  0.4496 -0.3425
 4233TIP3    H134114   1.953   6.664   7.025 -0.3573 -1.3170 -0.5346
 4233TIP3    H234115   1.899   6.628   6.889 -1.9322 -0.7578 -0.0829
 4234TIP3   OH234116   4.508   4.355   4.553 -0.7098 -0.5249 -0.1955
 4234TIP3    H134117   4.601   4.346   4.530 -0.8601 -0.4234 -0.8350
 4234TIP3    H234118   4.482   4.438   4.514 -1.3691 -1.0948 -0.9899
 4235TIP3   OH234119   4.185   3.192  15.419 -0.0154  0.0216  0.0789
 4235TIP3    H134120   4.223   3.116  15.462  0.3501  0.4485  0.5299
 4235TIP3    H234121   4.182   3.170  15.326  2.2360  0.3365 -0.1156
 4236TIP3   OH234122   6.076   1.847   4.168  0.2296 -0.4440  0.2942
 4236TIP3    H134123   5.989   1.886   4.172  0.2198 -0.4657  0.2893
 4236TIP3    H234124   6.085   1.800   4.251  0.1714 -0.5816  0.2228
 4237TIP3   OH234125   1.766   5.550  15.022 -0.0842 -0.0755  0.3016
 4237TIP3    H134126   1.721   5.567  14.939  1.2427  0.8542 -0.2584
 4237TIP3    H234127   1.857   5.533  14.997 -0.0109 -1.5468  1.4366
 4238TIP3   OH234128   2.159   6.258  11.445 -0.1697 -0.3769  0.2723
 4238TIP3    H134129   2.110   6.338  11.426  0.2141 -0.1434  0.2618
 4238TIP3    H234130   2.094   6.188  11.439  0.0334 -0.4440 -2.8280
 4239TIP3   OH234131   3.436   4.455   5.145 -0.4323  0.3003  0.6354
 4239TIP3    H134132   3.529   4.443   5.159 -0.2008  1.2820  0.0654
 4239TIP3    H234133   3.422   4.550   5.156 -1.3945  0.1367  0.9330
 4240TIP3   OH234134   4.492   3.844  16.396 -0.2740  1.1703 -0.3731
 4240TIP3    H134135   4.519   3.834  16.305  0.4249  0.6916 -0.1272
 4240TIP3    H234136   4.574   3.845  16.445 -0.6785 -0.7100  0.4407
 4241TIP3   OH234137   1.470   1.719   1.450  0.2222  0.1763 -0.2417
 4241TIP3    H134138   1.501   1.737   1.361  0.4325 -0.1694 -0.2421
 4241TIP3    H234139   1.405   1.786   1.467 -0.7167 -0.4814 -1.1190
 4242TIP3   OH234140   6.192   0.744  15.083  0.0531 -0.1640 -0.3909
 4242TIP3    H134141   6.128   0.793  15.031  0.9047  2.0262  0.4952
 4242TIP3    H234142   6.146   0.723  15.164 -0.3527 -0.9574 -0.8199
 4243TIP3   OH234143   6.085   2.627   0.272  0.1407 -0.3488  0.7867
 4243TIP3    H134144   6.064   2.658   0.184 -1.1793 -2.5322  0.2477
 4243TIP3    H234145   6.148   2.556   0.257 -0.1353 -0.7729  1.5984
 4244TIP3   OH234146   1.693   0.334   6.601 -0.4805  0.3706  0.4604
 4244TIP3    H134147   1.649   0.281   6.535 -0.4346  0.2370  0.5375
 4244TIP3    H234148   1.659   0.302   6.685 -1.9868  1.7926  0.4654
 4245TIP3   OH234149   2.132   1.337  13.878 -0.0392  0.3443 -0.4894
 4245TIP3    H134150   2.104   1.287  13.955 -1.1126 -0.2190 -1.2233
 4245TIP3    H234151   2.061   1.398  13.862  0.4583  0.8851 -0.6812
 4246TIP3   OH234152   5.701   0.350  15.394  0.2657  0.0585 -0.6873
 4246TIP3    H134153   5.762   0.310  15.456  1.2804  2.4867 -0.0252
 4246TIP3    H234154   5.715   0.301  15.313  3.3552  0.6517 -0.6347
 4247TIP3   OH234155   3.221   0.194  13.179  0.4439  0.6886 -0.3612
 4247TIP3    H134156   3.126   0.189  13.170  0.4414  0.6942 -0.3365
 4247TIP3    H234157   3.254   0.143  13.105  0.4119 -0.1584  0.2035
 4248TIP3   OH234158   0.830   2.348  10.543  0.3201 -0.0381 -0.2515
 4248TIP3    H134159   0.817   2.263  10.586 -0.6152  0.5440  0.6554
 4248TIP3    H234160   0.755   2.356  10.484  0.5361  0.0601 -0.5148
 4249TIP3   OH234161   0.433   6.775   2.325  0.5943 -0.4578  0.2907
 4249TIP3    H134162   0.425   6.854   2.272  0.2540 -0.5171  0.2524
 4249TIP3    H234163   0.346   6.763   2.363 -0.5790 -2.9970 -2.7633
 4250TIP3   OH234164   5.358   3.797  10.724  0.4503 -0.1550 -0.4018
 4250TIP3    H134165   5.263   3.797  10.731  0.4372  1.7781 -0.0791
 4250TIP3    H234166   5.376   3.828  10.635  0.8016 -0.5534 -0.4793
 4251TIP3   OH234167   3.415   0.861  14.867  0.2380  0.0207 -0.4601
 4251TIP3    H134168   3.484   0.927  14.866  0.2889 -0.0118 -1.9676
 4251TIP3    H234169   3.415   0.825  14.778 -2.0858  0.4212 -0.7006
 4252TIP3   OH234170   3.526   4.217  15.378  0.1066  0.4544 -0.5089
 4252TIP3    H134171   3.456   4.154  15.368 -0.1198  0.9545 -2.3106
 4252TIP3    H234172   3.482   4.297  15.408  0.1935  0.2089  0.2973
 4253TIP3   OH234173   1.978   6.707   6.378  0.4348 -0.0635  0.7559
 4253TIP3    H134174   1.899   6.657   6.399  1.0265 -1.2801  0.2282
 4253TIP3    H234175   1.990   6.694   6.283  2.7324 -2.2370  1.2326
 4254TIP3   OH234176   3.628   5.817   3.969 -0.2495  0.1569 -0.0693
 4254TIP3    H134177   3.563   5.747   3.968 -2.2730  1.7506  2.8755
 4254TIP3    H234178   3.609   5.868   3.890 -1.8782 -0.0633  0.1385
 4255TIP3   OH234179   3.246   4.332   0.685  0.2349  0.5876 -0.0021
 4255TIP3    H134180   3.277   4.316   0.774  1.7185  0.9518 -0.4295
 4255TIP3    H234181   3.184   4.261   0.668  2.7366 -1.7420 -0.0196
 4256TIP3   OH234182   6.360   2.498  16.494  0.2907 -0.2011 -0.1693
 4256TIP3    H134183   6.374   2.439  16.420  0.4270  0.9200 -1.0685
 4256TIP3    H234184   6.446   2.506  16.535  0.4677  0.0597 -0.5842
 4257TIP3   OH234185   3.180   3.812  13.068 -0.0455  0.2807 -0.4615
 4257TIP3    H134186   3.205   3.899  13.098  0.4660  0.0434 -0.1828
 4257TIP3    H234187   3.165   3.763  13.149 -0.8662  0.2539 -0.6160
 4258TIP3   OH234188   5.734   1.079  15.098  0.0019 -0.2414  0.0535
 4258TIP3    H134189   5.756   1.080  15.005  0.6050 -1.1633  0.1714
 4258TIP3    H234190   5.659   1.020  15.104 -1.7718  1.8525 -0.1676
 4259TIP3   OH234191   1.525   6.358  14.995 -0.4929 -0.4444 -0.5663
 4259TIP3    H134192   1.584   6.395  14.929 -2.6560  0.7102 -1.9568
 4259TIP3    H234193   1.480   6.433  15.032  0.4699 -1.0985  2.1257
 4260TIP3   OH234194   2.883   1.102   1.304  0.0195 -0.2623 -0.2782
 4260TIP3    H134195   2.959   1.087   1.359  0.8900 -1.1844 -1.6697
 4260TIP3    H234196   2.873   1.021   1.254 -0.7961  0.4964 -1.3906
 4261TIP3   OH234197   4.806   1.564   3.872 -0.4517 -0.2048 -0.0756
 4261TIP3    H134198   4.808   1.565   3.968 -0.2410  1.1552 -0.0705
 4261TIP3    H234199   4.796   1.656   3.848 -1.4878 -0.6235 -1.3551
 4262TIP3   OH234200   2.104   1.707  15.083  0.0804  0.1038 -0.3548
 4262TIP3    H134201   2.115   1.644  15.013 -2.5921 -2.3358  1.2098
 4262TIP3    H234202   2.178   1.690  15.143  0.9431  0.4798 -1.2756
 4263TIP3   OH234203   5.597   1.089  11.607  0.2735 -0.1897 -0.4463
 4263TIP3    H134204   5.502   1.084  11.616  0.3652 -0.7533  0.3166
 4263TIP3    H234205   5.612   1.159  11.543 -0.6205  0.7754  0.3579
 4264TIP3   OH234206   3.215   3.215  16.714  0.3713 -0.2461  0.1841
 4264TIP3    H134207   3.135   3.268  16.715 -0.4160 -1.2681  3.6892
 4264TIP3    H234208   3.284   3.277  16.692 -1.0946  1.1819 -0.5737
 4265TIP3   OH234209   0.995   5.591  13.894 -0.2747  0.5226 -0.1487
 4265TIP3    H134210   0.901   5.584  13.908 -0.4276 -0.0684 -1.3654
 4265TIP3    H234211   1.025   5.650  13.964 -1.1625 -1.0924  1.7094
 4266TIP3   OH234212   2.814   3.844  13.388 -0.3329 -0.0221 -0.4377
 4266TIP3    H134213   2.841   3.755  13.366 -0.2171 -0.5012  1.4990
 4266TIP3    H234214   2.817   3.891  13.304  0.6134 -1.5670 -1.3176
 4267TIP3   OH234215   1.023   6.732  14.839 -0.1004  0.5734  0.3492
 4267TIP3    H134216   0.946   6.675  14.846  1.3868 -1.5188  0.8191
 4267TIP3    H234217   1.088   6.693  14.898  0.7374  3.3578  1.4366
 4268TIP3   OH234218   3.374   6.650   3.742  0.0234  0.1589  0.2948
 4268TIP3    H134219   3.349   6.559   3.757 -3.2077  1.1490  1.5940
 4268TIP3    H234220   3.390   6.654   3.648  0.8334 -1.8127  0.2776
 4269TIP3   OH234221   4.237   2.157   5.564  0.6286  0.4581  0.5823
 4269TIP3    H134222   4.297   2.232   5.556  0.8821  0.3214  1.1007
 4269TIP3    H234223   4.269   2.094   5.500  1.9437 -0.1921  1.8155
 4270TIP3   OH234224   3.455   1.632  15.526 -0.0250 -0.1144  0.3160
 4270TIP3    H134225   3.396   1.558  15.511  0.2303 -0.3935  0.6855
 4270TIP3    H234226   3.418   1.676  15.603 -0.2300  0.1991  0.0407
 4271TIP3   OH234227   2.005   4.594   3.330  0.6525  0.9539  0.0775
 4271TIP3    H134228   2.042   4.675   3.366  1.3373  0.1558  1.2592
 4271TIP3    H234229   2.066   4.569   3.261  0.6244  1.2746 -0.0634
 4272TIP3   OH234230   5.582   0.141   4.816 -0.2055  0.3513 -0.5684
 4272TIP3    H134231   5.613   0.185   4.895  2.3700 -0.0001 -1.2743
 4272TIP3    H234232   5.524   0.204   4.774  3.6580  3.5726 -1.7750
 4273TIP3   OH234233   1.173   5.488   6.048 -0.1114  0.4629 -0.2157
 4273TIP3    H134234   1.119   5.562   6.075 -3.3979 -1.9010  0.4366
 4273TIP3    H234235   1.199   5.507   5.958 -0.7752  2.4314 -0.0263
 4274TIP3   OH234236   5.074   4.559  11.018 -0.0544 -0.1463 -0.4281
 4274TIP3    H134237   5.129   4.486  10.988 -1.3360  0.0418 -3.6136
 4274TIP3    H234238   4.984   4.530  11.000 -0.7877  1.1286  0.9305
 4275TIP3   OH234239   3.520   1.987   4.699 -0.5884  0.1154 -0.2366
 4275TIP3    H134240   3.551   1.908   4.743 -1.2343 -0.1058 -0.1694
 4275TIP3    H234241   3.513   2.052   4.769  1.0903  0.6049 -0.4760
 4276TIP3   OH234242   3.620   0.740  16.777 -0.0762 -0.0311 -0.1745
 4276TIP3    H134243   3.539   0.725  16.827 -0.3610  0.6218 -0.4218
 4276TIP3    H234244   3.589   0.757  16.688  0.2983  0.7757 -0.1528
 4277TIP3   OH234245   5.413   4.627  11.580 -0.3381  0.2134  0.1286
 4277TIP3    H134246   5.364   4.566  11.526 -0.7914  0.9176 -0.2712
 4277TIP3    H234247   5.433   4.578  11.660 -3.6055  0.5537  1.2885
 4278TIP3   OH234248   1.536   5.590   3.934  0.3263  0.1353 -0.0829
 4278TIP3    H134249   1.512   5.501   3.907  1.0525  0.3774 -1.6345
 4278TIP3    H234250   1.459   5.643   3.912  0.4160  0.1084 -0.4766
 4279TIP3   OH234251   4.359   6.697   5.923 -0.1050 -0.2496 -0.0911
 4279TIP3    H134252   4.299   6.717   5.996  0.5545 -0.7443  0.6060
 4279TIP3    H234253   4.419   6.631   5.959  0.4003 -0.2984 -1.0035
 4280TIP3   OH234254   6.139   2.266   3.539  0.1334  0.0116 -0.2463
 4280TIP3    H134255   6.152   2.191   3.482 -2.0084 -1.5150  1.1242
 4280TIP3    H234256   6.091   2.329   3.485 -1.7381 -1.3524 -0.2602
 4281TIP3   OH234257   6.314   3.297   2.815  0.4480 -0.2901 -0.2470
 4281TIP3    H134258   6.336   3.377   2.861  1.7107 -0.6120 -0.2613
 4281TIP3    H234259   6.389   3.239   2.829  0.5586 -0.6566 -2.0939
 4282TIP3   OH234260   0.558   6.494   4.653 -0.3604  0.9404 -0.0793
 4282TIP3    H134261   0.627   6.478   4.716 -1.3314  1.8956  1.2765
 4282TIP3    H234262   0.585   6.447   4.575 -0.1109 -2.0526  1.6802
 4283TIP3   OH234263   2.035   0.924  15.719  0.0499  0.5033 -0.2049
 4283TIP3    H134264   2.118   0.935  15.673 -0.4860  1.9606 -0.8948
 4283TIP3    H234265   2.057   0.873  15.797  1.0891 -1.5650 -1.7510
 4284TIP3   OH234266   6.361   3.333   1.850  0.4438  0.3780 -0.4268
 4284TIP3    H134267   6.354   3.346   1.756 -1.2673  0.3879 -0.3320
 4284TIP3    H234268   6.311   3.253   1.867  2.3483 -0.7375  0.2575
 4285TIP3   OH234269   1.275   3.670   2.282 -0.3684 -0.7074  0.4047
 4285TIP3    H134270   1.366   3.639   2.287 -0.0351  0.3913  2.8583
 4285TIP3    H234271   1.240   3.630   2.203  2.5085 -0.4879 -1.1210
 4286TIP3   OH234272   5.189   1.213   4.804 -0.4060 -0.2685  0.0329
 4286TIP3    H134273   5.262   1.250   4.753 -1.4484  0.0950 -1.2433
 4286TIP3    H234274   5.132   1.287   4.822 -2.4819 -1.1052 -2.4919
 4287TIP3   OH234275   0.950   6.346   0.260 -0.0934  0.0674  0.0348
 4287TIP3    H134276   0.957   6.439   0.282  0.3443 -0.0321  0.3451
 4287TIP3    H234277   0.937   6.303   0.345 -0.4121 -0.1389 -0.1211
 4288TIP3   OH234278   1.684   3.848  11.309 -0.0399 -0.3344  0.4195
 4288TIP3    H134279   1.691   3.866  11.402  0.3583 -1.6882  0.6771
 4288TIP3    H234280   1.774   3.831  11.280 -0.1515  0.1461 -0.2199
 4289TIP3   OH234281   6.327   2.872   4.633 -0.0079 -0.2464 -0.5124
 4289TIP3    H134282   6.337   2.966   4.616 -1.4415 -0.1528 -0.9747
 4289TIP3    H234283   6.361   2.829   4.555  1.2944 -0.1640 -0.0176
 4290TIP3   OH234284   5.864   1.806  10.934 -0.2787 -0.0288 -0.4854
 4290TIP3    H134285   5.860   1.880  10.874 -0.0810  1.2808  1.0353
 4290TIP3    H234286   5.827   1.839  11.016  1.2742 -1.1054  0.7248
 4291TIP3   OH234287   3.824   5.632  12.829 -0.1879 -0.3654  0.5927
 4291TIP3    H134288   3.882   5.671  12.764 -0.8181  1.6367  1.1536
 4291TIP3    H234289   3.880   5.616  12.905  0.9249 -4.1896 -0.7903
 4292TIP3   OH234290   4.044   4.757   0.591  0.1818  0.2869  0.0433
 4292TIP3    H134291   3.962   4.732   0.635  0.1983 -0.4790 -0.3380
 4292TIP3    H234292   4.075   4.833   0.639 -0.6910  0.5030  0.2768
 4293TIP3   OH234293   2.707   5.412  12.602  0.0195 -0.4784 -0.2782
 4293TIP3    H134294   2.720   5.506  12.604  1.0093 -0.5874 -0.7563
 4293TIP3    H234295   2.618   5.399  12.634  0.1441  0.5536  0.5291
 4294TIP3   OH234296   5.783   6.638   5.656  0.1804 -0.2621 -0.0996
 4294TIP3    H134297   5.798   6.556   5.703 -0.9190 -0.9934 -0.9633
 4294TIP3    H234298   5.851   6.697   5.689 -0.9536 -0.4661  2.9980
 4295TIP3   OH234299   1.592   5.481  11.693  0.4438  0.5802  0.0525
 4295TIP3    H134300   1.598   5.398  11.646  1.4537  1.1810 -0.9480
 4295TIP3    H234301   1.527   5.466  11.761 -0.5053 -0.5644 -1.0638
 4296TIP3   OH234302   3.712   0.912   2.198  0.0159 -0.0384 -0.9437
 4296TIP3    H134303   3.754   0.894   2.114  0.1568 -2.4464 -0.4351
 4296TIP3    H234304   3.621   0.885   2.187 -0.1058  0.1579 -0.4685
 4297TIP3   OH234305   5.977   3.761  15.239 -0.0083  0.4060 -0.1140
 4297TIP3    H134306   5.922   3.778  15.315 -1.3406 -0.0226 -0.9344
 4297TIP3    H234307   6.033   3.688  15.265 -1.1542 -0.4152  0.1612
 4298TIP3   OH234308   5.044   5.618   2.647  0.0449  0.1392  0.6235
 4298TIP3    H134309   5.125   5.670   2.645  1.0574 -1.4064  0.1608
 4298TIP3    H234310   5.035   5.592   2.738  0.0771  0.2800  0.6683
 4299TIP3   OH234311   1.417   6.396  14.022 -0.2211 -0.3813  0.4580
 4299TIP3    H134312   1.482   6.327  14.033  0.6226  0.2251 -0.4922
 4299TIP3    H234313   1.408   6.407  13.928 -0.0830  1.0158  0.5757
 4300TIP3   OH234314   1.712   3.901  11.898  0.0687  0.2108  0.5111
 4300TIP3    H134315   1.733   3.989  11.929  2.3569 -0.5958  1.4587
 4300TIP3    H234316   1.656   3.864  11.966 -0.0408  0.5772  0.6204
 4301TIP3   OH234317   1.817   1.736  12.517 -0.4433  0.3234 -0.0615
 4301TIP3    H134318   1.839   1.668  12.582 -2.2284 -1.0703 -0.8363
 4301TIP3    H234319   1.892   1.796  12.520  0.3055 -0.5943  2.0691
 4302TIP3   OH234320   5.428   4.804   3.245  0.0230  0.1405 -0.4828
 4302TIP3    H134321   5.359   4.844   3.193  0.2193  0.6581 -0.3568
 4302TIP3    H234322   5.405   4.826   3.336  0.0433 -0.1780 -0.3995
 4303TIP3   OH234323   6.199   6.258   1.878 -0.4549  0.6221  0.3829
 4303TIP3    H134324   6.204   6.182   1.935 -3.6607 -0.1876 -0.2007
 4303TIP3    H234325   6.186   6.332   1.937 -1.8950  0.0436  0.8332
 4304TIP3   OH234326   4.149   2.237  11.202 -0.5636  0.2580  0.3190
 4304TIP3    H134327   4.079   2.287  11.160 -3.0294 -2.3636  1.0214
 4304TIP3    H234328   4.168   2.166  11.141  0.9548  0.4426  0.5299
 4305TIP3   OH234329   0.322   3.093   1.496  0.0955  0.3150  0.2036
 4305TIP3    H134330   0.308   3.019   1.555 -0.7964  0.2758 -0.0405
 4305TIP3    H234331   0.291   3.169   1.545 -1.0281  0.2308 -0.3400
 4306TIP3   OH234332   5.700   1.413  13.542 -0.3452  0.0949  0.0268
 4306TIP3    H134333   5.654   1.346  13.593  0.6964 -1.9787 -1.5663
 4306TIP3    H234334   5.782   1.370  13.516  1.1919  2.6471  0.3512
 4307TIP3   OH234335   3.202   5.092  11.497 -0.6105 -0.5655  0.4636
 4307TIP3    H134336   3.241   5.079  11.410 -1.2044  0.1791  0.0751
 4307TIP3    H234337   3.256   5.159  11.538  0.7739 -2.1697  1.3996
 4308TIP3   OH234338   1.283   3.460   4.771 -0.2150 -0.0274 -0.0322
 4308TIP3    H134339   1.327   3.512   4.837 -1.3383 -1.3153  1.8172
 4308TIP3    H234340   1.321   3.373   4.778 -3.0437 -1.2810  1.8591
 4309TIP3   OH234341   1.828   1.549  14.885 -0.4835  0.1403 -0.5693
 4309TIP3    H134342   1.733   1.541  14.892 -0.5525  1.3836  0.1665
 4309TIP3    H234343   1.844   1.567  14.792 -1.3551  3.6889 -0.1910
 4310TIP3   OH234344   3.170   4.087  13.140 -0.1755  0.5678 -0.7907
 4310TIP3    H134345   3.097   4.118  13.086 -2.3051 -0.1240  1.4955
 4310TIP3    H234346   3.144   4.110  13.229  1.7912 -0.9488  0.2333
 4311TIP3   OH234347   5.397   1.014  12.725 -0.1475  0.2837 -0.5016
 4311TIP3    H134348   5.309   0.981  12.744 -0.1932  0.4320 -0.4592
 4311TIP3    H234349   5.454   0.937  12.737 -0.3000  0.1264 -0.7874
 4312TIP3   OH234350   5.909   5.568  15.949 -0.3775  0.5702 -0.3815
 4312TIP3    H134351   5.880   5.552  16.039  0.4941 -0.7417 -0.2967
 4312TIP3    H234352   5.907   5.481  15.908  1.2387  0.7902 -1.0001
 4313TIP3   OH234353   3.191   3.154   1.487 -0.4170 -0.2268 -0.3861
 4313TIP3    H134354   3.150   3.140   1.402 -0.8739 -0.8948 -0.0661
 4313TIP3    H234355   3.227   3.068   1.511 -1.4295 -0.3959  0.6654
 4314TIP3   OH234356   1.000   5.307  16.110  0.1193  0.1944  0.4652
 4314TIP3    H134357   0.931   5.335  16.050  0.1669  0.7499  0.6638
 4314TIP3    H234358   1.072   5.281  16.053  0.3333  1.1550  0.2742
 4315TIP3   OH234359   5.507   4.276   4.809  0.6865  0.0823  0.2461
 4315TIP3    H134360   5.445   4.249   4.740  1.4695 -0.0677 -0.4176
 4315TIP3    H234361   5.495   4.371   4.815 -0.2276 -0.0520  0.7479
 4316TIP3   OH234362   0.248   0.209   2.858 -0.0404 -0.5825 -0.0653
 4316TIP3    H134363   0.312   0.252   2.802 -0.4857  1.1512  0.7014
 4316TIP3    H234364   0.225   0.274   2.924 -1.6154 -1.5971  0.4615
 4317TIP3   OH234365   5.397   4.302   3.102  0.8539  0.3668 -0.3674
 4317TIP3    H134366   5.358   4.301   3.015  0.2179 -0.1926 -0.0863
 4317TIP3    H234367   5.360   4.380   3.143  0.8925  0.4450 -0.4804
 4318TIP3   OH234368   6.511   5.527  13.168 -0.6896 -0.3658 -0.1214
 4318TIP3    H134369   6.427   5.573  13.165 -1.9705 -2.3802  2.1164
 4318TIP3    H234370   6.547   5.547  13.254 -0.1666 -1.6710 -0.0175
 4319TIP3   OH234371   5.705   6.330  12.342 -0.2770  0.1168 -0.0552
 4319TIP3    H134372   5.653   6.344  12.263  0.0321 -0.4467 -0.3705
 4319TIP3    H234373   5.777   6.393  12.336  1.2830 -1.6718 -1.6141
 4320TIP3   OH234374   3.959   4.518   5.313  0.4998 -0.1414 -0.3252
 4320TIP3    H134375   4.052   4.497   5.301  0.8269 -0.8539  2.7411
 4320TIP3    H234376   3.958   4.589   5.377 -1.0595  1.0053 -1.5415
 4321TIP3   OH234377   2.556   6.024   0.516  0.5470 -0.4278  0.3480
 4321TIP3    H134378   2.504   6.074   0.579 -2.1395 -0.6126 -1.5897
 4321TIP3    H234379   2.590   6.090   0.456 -0.1298 -0.5875 -0.2201
 4322TIP3   OH234380   3.646   1.418  12.999 -0.7704  0.4920 -0.0507
 4322TIP3    H134381   3.589   1.343  13.019  2.7625 -2.6418 -0.5391
 4322TIP3    H234382   3.662   1.412  12.905  0.3703  1.2704  0.0759
 4323TIP3   OH234383   3.018   3.012  16.225  0.1029 -0.4279 -0.5828
 4323TIP3    H134384   2.995   3.049  16.310 -1.6384 -3.0983  0.2294
 4323TIP3    H234385   3.109   3.038  16.211  0.2993  0.4081  1.9030
 4324TIP3   OH234386   0.686   4.330  11.232  0.5445 -0.3074 -0.3123
 4324TIP3    H134387   0.623   4.366  11.294  2.2225  1.0807  0.6987
 4324TIP3    H234388   0.638   4.325  11.149 -0.8404  0.8483  0.3696
 4325TIP3   OH234389   2.074   3.198   1.955  0.2486 -0.1195 -0.0407
 4325TIP3    H134390   2.003   3.138   1.978 -0.9118  1.7626  1.6102
 4325TIP3    H234391   2.057   3.221   1.864  1.6002 -3.3231 -1.2467
 4326TIP3   OH234392   4.158   5.446   6.100  0.6950  0.0345 -0.4122
 4326TIP3    H134393   4.166   5.538   6.076  0.1786  0.8662  2.2644
 4326TIP3    H234394   4.244   5.423   6.134  0.6594 -0.3277 -0.5625
 4327TIP3   OH234395   0.606   4.840  14.495 -0.2938 -0.1565 -0.4511
 4327TIP3    H134396   0.608   4.907  14.426  1.7287 -0.7537 -1.0317
 4327TIP3    H234397   0.671   4.776  14.468  0.6828 -0.3440  2.0895
 4328TIP3   OH234398   1.945   4.849   1.430  0.0792  0.2032  0.0617
 4328TIP3    H134399   1.909   4.926   1.386 -0.5618 -1.2145 -2.0442
 4328TIP3    H234400   1.874   4.785   1.428  0.9916 -0.8548  0.6779
 4329TIP3   OH234401   4.664   0.554  13.766 -0.5542  0.0268  0.4228
 4329TIP3    H134402   4.621   0.571  13.681 -0.4326 -0.3963  0.2760
 4329TIP3    H234403   4.698   0.465  13.758  2.7943  1.2305 -0.5114
 4330TIP3   OH234404   3.054   1.386   5.410  0.1528 -0.2618  0.0576
 4330TIP3    H134405   3.131   1.396   5.353  1.2962 -0.9844  1.3917
 4330TIP3    H234406   3.079   1.317   5.472 -1.2089  0.1580  1.1358
 4331TIP3   OH234407   0.293   1.961   2.549  0.0334 -0.0524 -0.4999
 4331TIP3    H134408   0.208   1.975   2.507 -1.5663  1.6274  2.8946
 4331TIP3    H234409   0.333   2.048   2.552  0.6531 -0.3486  0.2677
 4332TIP3   OH234410   4.863   3.381  10.993  0.3644 -0.0471  0.2208
 4332TIP3    H134411   4.908   3.461  10.969 -1.1381  0.0829 -2.5336
 4332TIP3    H234412   4.795   3.409  11.055  1.1852  0.4400  0.9139
 4333TIP3   OH234413   4.249   2.208  16.200  0.4794  0.1331 -0.9650
 4333TIP3    H134414   4.230   2.224  16.107 -0.0757  1.7317 -0.6011
 4333TIP3    H234415   4.176   2.153  16.230  1.4879 -1.7823 -1.8093
 4334TIP3   OH234416   3.183   2.728   3.998  0.2673  0.0421  0.0117
 4334TIP3    H134417   3.224   2.780   4.067 -1.0411  0.7919  0.2554
 4334TIP3    H234418   3.108   2.687   4.041  0.2436 -0.6114 -0.6337
 4335TIP3   OH234419   6.185   1.730  16.717  0.3429 -0.7686 -0.4330
 4335TIP3    H134420   6.264   1.767  16.677  0.5392 -0.9318 -0.2008
 4335TIP3    H234421   6.130   1.706  16.643  0.2296 -0.0516 -0.5889
 4336TIP3   OH234422   2.797   5.893  16.321 -0.6445 -0.3068  0.4024
 4336TIP3    H134423   2.788   5.873  16.228 -0.5124  0.7489  0.1496
 4336TIP3    H234424   2.792   5.989  16.326  0.8064 -0.2479  1.3203
 4337TIP3   OH234425   6.201   3.144  16.185 -0.4561 -0.0807  0.4060
 4337TIP3    H134426   6.134   3.093  16.139 -0.2766  1.1729 -1.3518
 4337TIP3    H234427   6.258   3.175  16.115  0.5027  0.9793  1.6290
 4338TIP3   OH234428   4.028   2.631  16.570  0.3678  0.0335 -0.3038
 4338TIP3    H134429   4.095   2.584  16.619  0.6320 -0.2630 -0.9387
 4338TIP3    H234430   4.075   2.672  16.498 -0.2143 -0.6484 -1.0815
 4339TIP3   OH234431   4.237   0.154  12.891  0.2206  0.1711  0.5226
 4339TIP3    H134432   4.323   0.164  12.850 -0.5390  1.0495 -0.9350
 4339TIP3    H234433   4.181   0.121  12.822 -0.8177  0.4395  1.2193
 4340TIP3   OH234434   0.017   6.745  11.730 -0.9443  0.1728 -0.3141
 4340TIP3    H134435  -0.033   6.672  11.694 -2.4492  1.8357 -1.7459
 4340TIP3    H234436  -0.040   6.782  11.798 -1.0886  1.2127 -0.9780
 4341TIP3   OH234437   5.982   6.610   3.943  0.4008  0.1855 -0.0273
 4341TIP3    H134438   6.071   6.591   3.914  0.6549  2.6416 -1.0769
 4341TIP3    H234439   5.926   6.588   3.869  0.4817  1.3427 -0.4601
 4342TIP3   OH234440   3.731   4.698   1.770  1.0526 -0.0199 -0.8507
 4342TIP3    H134441   3.683   4.615   1.769  2.0435 -0.6127 -1.2244
 4342TIP3    H234442   3.823   4.672   1.765  1.4760  1.0459  0.6291
 4343TIP3   OH234443   3.100   1.687  15.200 -0.1894 -0.2241  0.1842
 4343TIP3    H134444   3.079   1.636  15.278 -0.8117  1.3656  1.1012
 4343TIP3    H234445   3.194   1.705  15.207 -0.0947 -0.6923  0.1709
 4344TIP3   OH234446   5.495   4.867  12.433  0.0990 -0.2404  0.4273
 4344TIP3    H134447   5.589   4.855  12.449  0.3363  1.2950  0.3548
 4344TIP3    H234448   5.491   4.930  12.361 -1.0024 -0.3179  0.4078
 4345TIP3   OH234449   5.783   1.675   2.656 -0.4263  0.3466  0.3037
 4345TIP3    H134450   5.767   1.757   2.609  2.7397  2.8892  3.1783
 4345TIP3    H234451   5.749   1.690   2.744  1.2139 -0.9525  1.2256
 4346TIP3   OH234452   6.492   5.576  14.680  0.2892 -0.6348 -0.2612
 4346TIP3    H134453   6.467   5.610  14.766 -0.6421 -1.6651 -0.1052
 4346TIP3    H234454   6.577   5.535  14.694  0.0193 -1.0360  0.2489
 4347TIP3   OH234455   2.318   4.360   3.340  0.1598  0.3340  0.2646
 4347TIP3    H134456   2.380   4.290   3.361 -1.4332 -1.3179 -0.2837
 4347TIP3    H234457   2.299   4.347   3.247 -1.6725  0.2097  0.6278
 4348TIP3   OH234458   3.777   1.737   3.139 -0.3388 -0.2404 -0.4452
 4348TIP3    H134459   3.714   1.682   3.186 -0.4133 -1.0038 -1.4018
 4348TIP3    H234460   3.724   1.807   3.100 -0.0618  1.4401  1.9971
 4349TIP3   OH234461   3.528   2.592  11.497  0.0711  0.8800 -0.3310
 4349TIP3    H134462   3.465   2.529  11.463  0.5347 -0.5472  1.3072
 4349TIP3    H234463   3.526   2.665  11.434 -0.4177 -0.7724 -2.3259
 4350TIP3   OH234464   1.102   2.217   0.435  0.0711 -0.4276  0.3947
 4350TIP3    H134465   1.133   2.146   0.378  4.2736  1.8672 -0.6408
 4350TIP3    H234466   1.152   2.206   0.516 -0.7515  0.2207  1.0037
 4351TIP3   OH234467   1.244   6.459   3.169  0.2634 -0.5886 -0.0487
 4351TIP3    H134468   1.247   6.452   3.265  0.0553 -0.5273 -0.0386
 4351TIP3    H234469   1.247   6.368   3.139 -0.5691 -0.6469  0.0386
 4352TIP3   OH234470   4.719   5.711  15.904 -0.2619 -0.0546 -0.0483
 4352TIP3    H134471   4.715   5.780  15.970 -0.2507 -2.6682  2.9165
 4352TIP3    H234472   4.630   5.705  15.869 -0.3110  1.2642 -0.1880
 4353TIP3   OH234473   3.273   6.405   4.010 -0.0623  0.0195  0.1431
 4353TIP3    H134474   3.190   6.373   3.976 -0.5256  0.4921  0.8098
 4353TIP3    H234475   3.327   6.420   3.932 -0.4736 -0.6225 -0.2701
 4354TIP3   OH234476   5.381   3.579  16.593 -0.0670  0.1655  0.0952
 4354TIP3    H134477   5.319   3.567  16.521  2.4188 -0.0876 -2.1709
 4354TIP3    H234478   5.390   3.493  16.632  0.0230 -0.1455 -0.5951
 4355TIP3   OH234479   6.737   3.642   2.577 -0.0652  0.5394 -0.1405
 4355TIP3    H134480   6.785   3.601   2.649  0.6829  1.2163 -0.2386
 4355TIP3    H234481   6.668   3.693   2.620 -0.8989 -0.6561 -0.0129
 4356TIP3   OH234482   5.814   6.279   3.942  0.0301 -1.3736  0.0150
 4356TIP3    H134483   5.742   6.340   3.922  1.8541  0.8995  0.0125
 4356TIP3    H234484   5.775   6.192   3.929 -2.6794 -0.2564 -0.0744
 4357TIP3   OH234485   4.783   0.797   2.787 -0.6262 -0.6841  0.5919
 4357TIP3    H134486   4.840   0.863   2.748 -0.5665  0.1874  2.0746
 4357TIP3    H234487   4.730   0.765   2.714  0.2918  0.0103 -0.4155
 4358TIP3   OH234488   1.708   1.858   5.436 -0.2252 -0.0406  0.4854
 4358TIP3    H134489   1.744   1.877   5.523 -0.7263  0.7464  0.5256
 4358TIP3    H234490   1.665   1.774   5.446  0.5205 -0.4039  0.7547
 4359TIP3   OH234491   4.952   5.594   0.185  0.3223 -0.8086  0.4598
 4359TIP3    H134492   4.957   5.690   0.191 -2.0399 -0.5541 -0.8472
 4359TIP3    H234493   4.936   5.576   0.092  1.2458 -2.5320  0.5931
 4360TIP3   OH234494   0.072   5.076   5.852  0.1487 -0.0432  0.1978
 4360TIP3    H134495   0.142   5.111   5.907  1.1263 -1.2430 -0.2347
 4360TIP3    H234496   0.009   5.040   5.915  1.1568 -1.2082  0.5936
 4361TIP3   OH234497   1.293   2.416   1.636 -0.1785  0.8707 -0.1877
 4361TIP3    H134498   1.266   2.472   1.563  0.0839 -0.8693 -1.6946
 4361TIP3    H234499   1.360   2.359   1.599 -1.1451 -1.1235  0.9558
 4362TIP3   OH234500   1.690   5.273  12.850  0.0977 -0.4994 -0.0802
 4362TIP3    H134501   1.723   5.183  12.850 -0.8632 -0.9161  2.0507
 4362TIP3    H234502   1.605   5.267  12.806 -0.2676 -0.7740  0.6533
 4363TIP3   OH234503   2.279   4.552  12.226 -0.8643 -0.0703  0.0613
 4363TIP3    H134504   2.374   4.559  12.236 -0.6605  0.0078 -1.5238
 4363TIP3    H234505   2.243   4.597  12.302  0.4020  1.9781 -0.4379
 4364TIP3   OH234506   2.840   5.116   4.059 -0.1882  0.6857 -0.5056
 4364TIP3    H134507   2.800   5.090   3.976  1.2857 -1.9343 -0.4922
 4364TIP3    H234508   2.772   5.100   4.125 -0.2791 -0.4120 -0.8535
 4365TIP3   OH234509   4.385   4.779  11.991  0.0981  0.2888 -0.1521
 4365TIP3    H134510   4.428   4.840  11.932  1.2982 -1.3575 -1.0674
 4365TIP3    H234511   4.392   4.821  12.077  1.2897  1.2429 -0.6760
 4366TIP3   OH234512   1.752   1.335  16.696  0.5360 -0.2968 -0.1899
 4366TIP3    H134513   1.775   1.385  16.617 -1.7599  0.0663 -0.6751
 4366TIP3    H234514   1.774   1.245  16.674 -0.4398 -0.2618 -1.4311
 4367TIP3   OH234515   4.144   2.505  16.214 -0.3908  0.5375 -0.1203
 4367TIP3    H134516   4.175   2.518  16.125 -0.1806  3.9905  0.3302
 4367TIP3    H234517   4.210   2.450  16.255 -0.9272 -1.8501 -2.2246
 4368TIP3   OH234518   4.961   0.985   2.657 -0.4112 -0.3660  0.2415
 4368TIP3    H134519   5.034   1.016   2.710 -0.8763 -0.3378  0.8770
 4368TIP3    H234520   4.999   0.920   2.599  0.3495  0.5093 -0.2721
 4369TIP3   OH234521   4.550   1.654   2.142  0.9335  0.6716 -0.4776
 4369TIP3    H134522   4.548   1.733   2.195 -0.0965 -0.1421  0.7517
 4369TIP3    H234523   4.612   1.597   2.187  4.4933  1.9699 -3.2664
 4370TIP3   OH234524   4.502   2.201   3.300 -0.1144 -0.1920 -0.1829
 4370TIP3    H134525   4.464   2.133   3.245  1.4599 -1.2276 -0.0326
 4370TIP3    H234526   4.555   2.154   3.364 -0.7221  1.0725  1.3207
 4371TIP3   OH234527   2.859   4.553  11.789  0.6070 -0.0988  0.7493
 4371TIP3    H134528   2.905   4.477  11.826  1.1800  0.6549  1.6385
 4371TIP3    H234529   2.794   4.575  11.855  0.5822  0.3111  0.5856
 4372TIP3   OH234530   1.292   2.430  15.105 -0.5965  0.0882 -0.2581
 4372TIP3    H134531   1.343   2.432  15.024 -0.3835 -0.3890 -0.1395
 4372TIP3    H234532   1.347   2.475  15.169 -1.0888  1.1555 -0.5466
 4373TIP3   OH234533   6.684   3.410   0.775  0.1164  0.1118  0.2848
 4373TIP3    H134534   6.705   3.318   0.793 -0.4502 -0.1512 -0.3490
 4373TIP3    H234535   6.765   3.457   0.795  0.3429 -0.4930  0.8407
 4374TIP3   OH234536   0.778   2.349  11.080 -0.4452  0.1021  0.0759
 4374TIP3    H134537   0.683   2.358  11.093 -0.1406  1.5111  1.7677
 4374TIP3    H234538   0.791   2.258  11.055 -2.0984 -0.5783  1.5110
 4375TIP3   OH234539   2.779   0.393   5.280  0.2213 -0.1404 -0.0164
 4375TIP3    H134540   2.783   0.354   5.193 -0.8933  3.0157 -1.6532
 4375TIP3    H234541   2.687   0.383   5.306 -0.4067  2.2486 -1.0316
 4376TIP3   OH234542   2.452   5.592   4.659 -0.4310 -0.5049  0.0397
 4376TIP3    H134543   2.401   5.570   4.737 -2.6604  0.0392 -1.1730
 4376TIP3    H234544   2.520   5.524   4.655 -1.4856 -1.7180  1.3678
 4377TIP3   OH234545   2.483   3.848   4.792  0.0271 -0.0184  0.6407
 4377TIP3    H134546   2.463   3.942   4.790 -0.2189 -0.0797 -0.4128
 4377TIP3    H234547   2.484   3.822   4.700  0.6250 -0.9446  0.8975
 4378TIP3   OH234548   6.026   4.179   1.279  0.0746 -0.3746 -0.2052
 4378TIP3    H134549   6.036   4.163   1.373  2.5517  0.7004 -0.2164
 4378TIP3    H234550   5.945   4.134   1.256 -1.1606  0.1495  2.6265
 4379TIP3   OH234551   2.298   6.150   5.946  0.0640  0.0354 -0.1848
 4379TIP3    H134552   2.303   6.175   6.038  1.5221 -1.8256  0.3154
 4379TIP3    H234553   2.204   6.149   5.927 -0.2865  0.1456  1.3825
 4380TIP3   OH234554   6.796   6.393   0.314 -0.2648 -0.2612 -0.3754
 4380TIP3    H134555   6.790   6.298   0.307  0.1123 -0.5708  2.3379
 4380TIP3    H234556   6.712   6.420   0.350  0.0391  0.3051 -0.0770
 4381TIP3   OH234557   5.433   5.990  15.597  0.5210 -0.5088 -0.2937
 4381TIP3    H134558   5.495   6.057  15.627 -0.1339 -0.7786  1.8588
 4381TIP3    H234559   5.478   5.945  15.525  1.9830  0.6070 -0.1102
 4382TIP3   OH234560   0.711   4.164   0.090 -0.1784 -0.4562 -0.1773
 4382TIP3    H134561   0.743   4.085   0.049 -0.2781 -0.1099 -0.9392
 4382TIP3    H234562   0.618   4.146   0.107 -0.1652 -0.5550 -0.2096
 4383TIP3   OH234563   5.577   3.665  15.714 -0.2895 -0.1867  0.6331
 4383TIP3    H134564   5.656   3.717  15.728 -0.0091 -0.5523  0.4143
 4383TIP3    H234565   5.606   3.574  15.720 -0.6596 -0.3244  0.3791
 4384TIP3   OH234566   3.098   2.751  10.977 -0.6098 -0.4122  0.2903
 4384TIP3    H134567   3.179   2.703  10.962  0.5686  0.6239  2.8235
 4384TIP3    H234568   3.100   2.822  10.914  0.1287 -0.7761 -0.1063
 4385TIP3   OH234569   4.921   5.171   4.485  0.4655 -0.7614 -0.8376
 4385TIP3    H134570   4.882   5.109   4.422  0.2853 -1.3571 -0.1561
 4385TIP3    H234571   4.859   5.173   4.558  0.3636  0.4058 -0.9414
 4386TIP3   OH234572   6.190   3.215  10.820  0.3417  0.0244 -0.2833
 4386TIP3    H134573   6.274   3.228  10.863  0.5200  0.6159 -0.8029
 4386TIP3    H234574   6.153   3.302  10.812 -0.3643 -0.2429  0.0173
 4387TIP3   OH234575   4.590   0.711  14.673  0.4615 -0.8418 -0.5082
 4387TIP3    H134576   4.522   0.654  14.709 -1.0133 -1.0686 -3.3389
 4387TIP3    H234577   4.582   0.792  14.723 -1.0888 -1.2901  0.0420
 4388TIP3   OH234578   1.426   2.045   3.999  0.5631 -0.0645  0.3972
 4388TIP3    H134579   1.369   1.975   3.968  1.5195 -0.3302 -0.8179
 4388TIP3    H234580   1.498   2.000   4.042  0.9610  0.1834 -0.0052
 4389TIP3   OH234581   6.274   1.001   0.892  0.5714  0.2803 -0.5716
 4389TIP3    H134582   6.325   1.046   0.824  2.4673 -2.1505 -0.8607
 4389TIP3    H234583   6.338   0.953   0.944 -1.2533 -1.7597 -0.0327
 4390TIP3   OH234584   4.256   6.713   2.753 -0.0715 -1.1029  0.2674
 4390TIP3    H134585   4.315   6.642   2.728  0.0837 -1.3061  1.1847
 4390TIP3    H234586   4.219   6.685   2.836  0.5970  0.2317  1.0506
 4391TIP3   OH234587   4.733   0.509  12.318  0.3289  0.2648  0.9173
 4391TIP3    H134588   4.758   0.599  12.301 -0.4919 -0.0122 -2.4113
 4391TIP3    H234589   4.816   0.462  12.326  0.7672  1.0308  0.9273
 4392TIP3   OH234590   2.076   2.919   2.660 -0.4625 -0.5061 -0.2745
 4392TIP3    H134591   2.134   2.860   2.613  1.3576  1.6383 -0.9244
 4392TIP3    H234592   2.135   2.979   2.706 -2.2046  0.1142  1.3033
 4393TIP3   OH234593   3.334   3.575  13.057 -0.4934  0.4924  0.4242
 4393TIP3    H134594   3.386   3.608  13.131 -0.6084  2.1305 -0.1738
 4393TIP3    H234595   3.328   3.650  12.998 -0.5414 -0.7456 -1.1814
 4394TIP3   OH234596   2.027   5.448  15.038  0.1753  0.5599  0.8934
 4394TIP3    H134597   2.100   5.387  15.034  1.1295  1.7137 -0.0743
 4394TIP3    H234598   2.045   5.503  15.114 -0.3395  0.0730  1.3759
 4395TIP3   OH234599   4.579   1.746   3.634  0.6074  0.2274  0.2462
 4395TIP3    H134600   4.573   1.703   3.719  2.0852 -1.3790 -0.4029
 4395TIP3    H234601   4.612   1.833   3.654  1.6730 -0.3871  1.2778
 4396TIP3   OH234602   2.159   2.920  11.749 -0.3001  0.0837 -0.2357
 4396TIP3    H134603   2.074   2.935  11.708 -0.8266  0.0853  0.8167
 4396TIP3    H234604   2.140   2.916  11.843  0.6388 -1.4635 -0.0687
 4397TIP3   OH234605   5.943   6.028   5.586 -0.1971  0.3442 -0.4809
 4397TIP3    H134606   5.875   6.073   5.534 -0.1858  1.3998  0.3751
 4397TIP3    H234607   5.972   6.094   5.648  0.4698 -0.6125  0.2415
 4398TIP3   OH234608   3.589   5.672  15.167 -0.5805  0.2796 -0.1466
 4398TIP3    H134609   3.635   5.637  15.243 -0.3612 -0.5445 -0.6437
 4398TIP3    H234610   3.496   5.664  15.189 -0.6498 -2.4870 -0.9685
 4399TIP3   OH234611   1.591   2.474  13.618 -0.1411  0.3542 -0.1104
 4399TIP3    H134612   1.495   2.465  13.617 -0.0481 -0.9132  0.0678
 4399TIP3    H234613   1.615   2.476  13.525 -0.1964 -1.5970 -0.2081
 4400TIP3   OH234614   5.727   4.359   1.508  0.0227 -0.2539  0.4591
 4400TIP3    H134615   5.724   4.329   1.599  0.4032  0.2667  0.6522
 4400TIP3    H234616   5.672   4.438   1.507  1.7556  1.0356  0.7683
 4401TIP3   OH234617   2.373   0.727   2.466 -0.0313 -0.0431  0.5322
 4401TIP3    H134618   2.296   0.670   2.467  0.7888 -1.3033 -1.3307
 4401TIP3    H234619   2.390   0.746   2.558 -1.7501 -0.8465  1.0628
 4402TIP3   OH234620   3.390   0.542  13.981 -0.4737  0.6813  0.0565
 4402TIP3    H134621   3.321   0.549  13.915 -1.1634 -0.1206  0.6824
 4402TIP3    H234622   3.364   0.606  14.048 -0.3962  0.6607  0.1053
 4403TIP3   OH234623   6.764   4.476  12.790  0.0619  0.2645  0.1308
 4403TIP3    H134624   6.739   4.559  12.829  0.1404  0.6340 -0.5823
 4403TIP3    H234625   6.802   4.500  12.705  0.2646 -0.4814  0.0047
 4404TIP3   OH234626   3.927   0.123  12.242 -0.1315 -0.3035 -0.5592
 4404TIP3    H134627   3.884   0.201  12.208  2.1128  1.1518 -0.2395
 4404TIP3    H234628   3.951   0.146  12.332  1.0207 -1.1530 -0.6290
 4405TIP3   OH234629   4.115   6.688   0.988 -0.2478  0.2896 -0.0302
 4405TIP3    H134630   4.130   6.620   0.921 -0.6370 -0.2645  0.4365
 4405TIP3    H234631   4.202   6.703   1.026 -0.3871 -0.9879  0.8400
 4406TIP3   OH234632   1.054   3.092  17.001 -0.0253 -0.2579 -0.0797
 4406TIP3    H134633   0.962   3.065  16.998 -0.7991  2.2518 -0.5577
 4406TIP3    H234634   1.066   3.126  17.090  0.0784  0.5364 -0.3895
 4407TIP3   OH234635   4.306   3.194  11.983 -0.0687 -0.2135  0.3098
 4407TIP3    H134636   4.374   3.127  11.986  0.8727  0.5153 -2.1372
 4407TIP3    H234637   4.353   3.276  11.998 -0.7464  0.1403  0.5439
 4408TIP3   OH234638   4.777   4.833  14.358  0.2531 -1.3586 -0.4707
 4408TIP3    H134639   4.774   4.780  14.278 -0.6531 -1.5183 -0.3330
 4408TIP3    H234640   4.686   4.848  14.381  0.5053 -1.2022  0.4701
 4409TIP3   OH234641   6.732   4.469   5.876 -0.2413  0.4993  1.0615
 4409TIP3    H134642   6.687   4.439   5.797  0.3433  0.5404  0.7066
 4409TIP3    H234643   6.811   4.511   5.843  0.1320  0.2868  1.6847
 4410TIP3   OH234644   6.013   4.062   0.719 -0.4141  0.2497  0.2695
 4410TIP3    H134645   6.072   4.016   0.779 -0.2253 -1.4328 -1.1384
 4410TIP3    H234646   5.977   3.993   0.663 -0.7178  1.7291 -1.4321
 4411TIP3   OH234647   0.387   4.532  16.644 -0.5394  0.5429  1.4341
 4411TIP3    H134648   0.473   4.493  16.630 -0.9525  0.4170 -1.3051
 4411TIP3    H234649   0.384   4.607  16.584 -2.1996  0.7760  1.7373
 4412TIP3   OH234650   1.775   1.671  16.000  0.3126  0.4679 -0.3748
 4412TIP3    H134651   1.702   1.727  15.972 -0.2057  0.0889  0.2250
 4412TIP3    H234652   1.734   1.590  16.028  0.9349  0.4118  0.3782
 4413TIP3   OH234653   4.389   1.666  14.061 -0.3341 -0.1585 -0.3264
 4413TIP3    H134654   4.405   1.713  14.143  1.5064  0.2608 -0.8854
 4413TIP3    H234655   4.368   1.576  14.088 -0.1974  0.0826  0.6117
 4414TIP3   OH234656   1.800   1.586   1.636  0.1905 -0.0407  0.1417
 4414TIP3    H134657   1.776   1.507   1.683 -0.0074 -0.1880 -0.2059
 4414TIP3    H234658   1.887   1.609   1.670  1.1156 -1.4863 -1.0975
 4415TIP3   OH234659   2.316   4.598  11.763 -0.1870 -0.0355  0.2126
 4415TIP3    H134660   2.346   4.554  11.683 -0.0267 -0.8910  0.7283
 4415TIP3    H234661   2.225   4.620  11.745 -0.1987 -0.3652 -0.1521
 4416TIP3   OH234662   5.301   4.275   2.855  0.5275  0.5907  0.0611
 4416TIP3    H134663   5.213   4.311   2.870  0.2432  0.4264 -1.1340
 4416TIP3    H234664   5.305   4.259   2.761  1.2511 -0.9190  0.3118
 4417TIP3   OH234665   0.641   2.585  12.251  0.5044  0.3943 -0.1313
 4417TIP3    H134666   0.730   2.588  12.287 -0.6917 -0.5262  3.3611
 4417TIP3    H234667   0.633   2.496  12.216 -0.1210 -0.9714  3.1509
 4418TIP3   OH234668   2.670   1.755  11.926 -0.4146 -0.0093 -0.4649
 4418TIP3    H134669   2.580   1.752  11.959 -0.6608 -0.8538 -1.1702
 4418TIP3    H234670   2.684   1.847  11.902 -0.2233  0.6510  1.9199
 4419TIP3   OH234671   4.158   6.017  11.350 -0.1363  0.4327  0.1895
 4419TIP3    H134672   4.111   6.063  11.419 -2.3827  0.2008 -1.0501
 4419TIP3    H234673   4.188   6.086  11.291 -0.5445  0.5075  0.0638
 4420TIP3   OH234674   6.326   3.068   1.426  0.0537 -0.1198 -0.4205
 4420TIP3    H134675   6.290   3.115   1.351 -0.1107  1.1903  0.4547
 4420TIP3    H234676   6.268   2.993   1.438 -0.9358  0.6133 -0.5402
 4421TIP3   OH234677   2.559   1.888   2.530  0.0501 -0.7679  0.2754
 4421TIP3    H134678   2.576   1.968   2.480  0.3021 -0.8588  0.2144
 4421TIP3    H234679   2.477   1.855   2.495  0.9125 -1.5817 -1.0462
 4422TIP3   OH234680   4.352   0.530  14.372  0.2120  0.9896 -0.3336
 4422TIP3    H134681   4.408   0.462  14.410  0.4028  0.8544 -0.8494
 4422TIP3    H234682   4.300   0.484  14.306 -0.8602  1.0186  0.4758
 4423TIP3   OH234683   6.050   4.381  13.495 -0.0899 -0.1706  0.2596
 4423TIP3    H134684   5.967   4.393  13.542 -2.1834 -0.6063 -3.0396
 4423TIP3    H234685   6.046   4.291  13.463  0.8208  0.3608 -1.4257
 4424TIP3   OH234686   1.875   3.392  13.824  0.3556 -0.3883  0.3831
 4424TIP3    H134687   1.947   3.445  13.792  0.5736  0.2380  1.8458
 4424TIP3    H234688   1.856   3.331  13.752 -1.4002  3.0215 -2.4012
 4425TIP3   OH234689   3.090   0.397   4.945 -0.0862  0.1943  0.3121
 4425TIP3    H134690   3.138   0.470   4.986  0.6172  0.1782 -0.4564
 4425TIP3    H234691   3.050   0.435   4.868  1.6840 -0.5583 -1.0488
 4426TIP3   OH234692   3.102   3.440  12.318 -0.4243 -0.2857  0.2352
 4426TIP3    H134693   3.042   3.456  12.391  0.0594  2.3722  0.1234
 4426TIP3    H234694   3.181   3.488  12.340  0.2892 -0.6657 -1.3552
 4427TIP3   OH234695   2.372   2.368  15.487 -0.1193 -0.2554 -0.0426
 4427TIP3    H134696   2.330   2.449  15.460 -0.2702 -0.6076 -0.9089
 4427TIP3    H234697   2.360   2.309  15.413  2.2262 -0.2649 -0.4867
 4428TIP3   OH234698   1.588   6.066   2.817 -0.4251  0.5270 -0.3769
 4428TIP3    H134699   1.656   5.999   2.821 -0.7091  0.1971 -0.9716
 4428TIP3    H234700   1.615   6.132   2.881 -0.7459 -0.7127  1.1023
 4429TIP3   OH234701   2.248   2.642  14.919  0.1093  0.4817  0.6418
 4429TIP3    H134702   2.187   2.624  14.848  0.2074 -1.0170  0.9032
 4429TIP3    H234703   2.289   2.725  14.896 -0.9871  0.7909 -0.2538
 4430TIP3   OH234704   1.153   4.460   0.066  0.0175 -0.1070  0.9766
 4430TIP3    H134705   1.205   4.511   0.004 -2.7600 -1.7328 -3.0640
 4430TIP3    H234706   1.203   4.379   0.079  0.3656  0.0209  0.4417
 4431TIP3   OH234707   5.494   6.609   5.697 -0.2702  0.2345 -0.4932
 4431TIP3    H134708   5.444   6.688   5.677 -0.7803 -0.2909 -1.3260
 4431TIP3    H234709   5.583   6.641   5.713 -0.6093  1.0453 -0.1491
 4432TIP3   OH234710   3.409   4.707   0.608  0.0063  0.1955  0.5555
 4432TIP3    H134711   3.494   4.732   0.644  1.4206 -1.0010 -1.7589
 4432TIP3    H234712   3.419   4.717   0.513 -2.5618  0.3026  0.2265
 4433TIP3   OH234713   6.421   4.881  10.170 -0.3263 -0.4984  0.5448
 4433TIP3    H134714   6.348   4.938  10.146  0.4284 -0.0573 -0.8398
 4433TIP3    H234715   6.381   4.797  10.190 -1.3026  0.0220  0.8594
 4434TIP3   OH234716   2.442   0.894  14.933 -0.0335 -0.1229 -0.6932
 4434TIP3    H134717   2.357   0.933  14.953 -1.1848 -2.5658 -0.3602
 4434TIP3    H234718   2.473   0.859  15.016  2.1112  2.0317 -0.4921
 4435TIP3   OH234719   2.389   5.750   3.903  0.0209  0.2498 -0.1373
 4435TIP3    H134720   2.441   5.807   3.846  2.6693 -1.2066  0.6484
 4435TIP3    H234721   2.381   5.799   3.985 -0.0217  0.5851 -0.3401
 4436TIP3   OH234722   5.109   2.301  12.990  0.1370  0.4623 -0.4406
 4436TIP3    H134723   5.149   2.388  12.986  1.1955  0.0556  0.7034
 4436TIP3    H234724   5.134   2.267  13.076 -1.8823 -0.2226 -0.0790
 4437TIP3   OH234725   4.262   4.904  14.430  0.4179  0.3568 -0.7750
 4437TIP3    H134726   4.233   4.975  14.373 -1.8285  0.2822  0.1366
 4437TIP3    H234727   4.185   4.884  14.483  2.7275  1.5423  3.4768
 4438TIP3   OH234728   0.163   6.579  14.287 -0.4076  0.1999  0.0004
 4438TIP3    H134729   0.173   6.541  14.374  0.6545 -0.8382 -0.5443
 4438TIP3    H234730   0.229   6.648  14.283  0.1218 -0.3080 -0.2540
 4439TIP3   OH234731   4.865   2.704  16.624  0.1209 -0.3830  0.1038
 4439TIP3    H134732   4.800   2.688  16.555  0.6126 -0.6834 -0.2948
 4439TIP3    H234733   4.858   2.628  16.682  0.5271 -0.7076 -0.2681
 4440TIP3   OH234734   4.052   5.365   1.407  0.2426 -0.1888 -0.3484
 4440TIP3    H134735   4.060   5.441   1.464  0.3068 -0.2300 -0.3023
 4440TIP3    H234736   4.118   5.304   1.439  0.7326  0.0514 -0.8862
 4441TIP3   OH234737   4.908   5.342  13.604 -0.2733  0.2744 -0.2439
 4441TIP3    H134738   5.004   5.332  13.603 -0.3146 -0.2001  0.2649
 4441TIP3    H234739   4.894   5.433  13.577  0.2735  0.0780 -1.2624
 4442TIP3   OH234740   4.272   3.819  11.225 -0.8844 -0.2909  0.4433
 4442TIP3    H134741   4.329   3.846  11.152 -1.9103  0.1095 -0.2361
 4442TIP3    H234742   4.278   3.723  11.225  1.1125 -0.2243  1.4976
 4443TIP3   OH234743   6.052   6.299   2.605 -0.2462 -0.5389 -0.1727
 4443TIP3    H134744   6.045   6.291   2.700 -1.6619 -0.4521 -0.2508
 4443TIP3    H234745   6.042   6.393   2.588 -0.8007 -0.6430 -0.4524
 4444TIP3   OH234746   0.503   2.453  14.609  0.0308 -0.0505  0.0841
 4444TIP3    H134747   0.502   2.469  14.515 -1.9516 -1.4361 -0.1828
 4444TIP3    H234748   0.415   2.474  14.638  0.5240  0.0709  1.6048
 4445TIP3   OH234749   3.490   0.439   3.689  0.7302 -0.0029 -0.0425
 4445TIP3    H134750   3.428   0.378   3.648  0.2506  0.1990  0.3709
 4445TIP3    H234751   3.545   0.470   3.616  1.0499 -0.9949 -0.2450
 4446TIP3   OH234752   6.230   4.719   5.902 -0.4217 -0.3330 -0.5049
 4446TIP3    H134753   6.181   4.802   5.909 -0.0507 -0.1141 -0.5005
 4446TIP3    H234754   6.260   4.702   5.991 -0.9691 -0.7660 -0.3943
 4447TIP3   OH234755   4.614   3.963   0.241  0.1873 -0.0412 -0.0626
 4447TIP3    H134756   4.650   3.923   0.321 -1.5377  1.2100  1.4202
 4447TIP3    H234757   4.630   4.057   0.252  0.0805  0.1341 -1.3000
 4448TIP3   OH234758   1.632   1.171   2.993  0.4280 -0.6067  0.4370
 4448TIP3    H134759   1.701   1.237   2.997  0.8986 -1.1342  2.3655
 4448TIP3    H234760   1.676   1.091   2.966  0.4155 -0.7472  0.8223
 4449TIP3   OH234761   0.266   2.543  11.244 -0.1260  0.3986  0.3104
 4449TIP3    H134762   0.195   2.570  11.302 -2.0307  0.2785 -1.7968
 4449TIP3    H234763   0.265   2.447  11.247  0.2899  0.3996  0.6308
 4450TIP3   OH234764   3.029   0.840  14.065 -0.4640  0.1516 -0.0057
 4450TIP3    H134765   2.949   0.888  14.087 -0.5794  0.8365 -1.8158
 4450TIP3    H234766   3.036   0.845  13.970  0.6734 -1.6214 -0.0780
 4451TIP3   OH234767   3.449   4.141  12.538  0.2122  1.1042  0.2913
 4451TIP3    H134768   3.543   4.146  12.519  0.2772  2.4264  0.8780
 4451TIP3    H234769   3.443   4.097  12.622  0.0980 -1.8137 -1.1349
 4452TIP3   OH234770   3.262   5.718   3.011 -0.0043  0.5497 -0.0600
 4452TIP3    H134771   3.193   5.784   3.001 -0.2416  0.3311  0.1166
 4452TIP3    H234772   3.264   5.700   3.105 -1.0895 -0.9051 -0.2705
 4453TIP3   OH234773   2.555   2.599   5.922  0.3180 -0.1811 -0.0994
 4453TIP3    H134774   2.539   2.681   5.875  0.1691 -0.1029  0.0828
 4453TIP3    H234775   2.565   2.626   6.014  0.5000 -0.3422 -0.0723
 4454TIP3   OH234776   1.206   2.593  15.538 -0.8240 -0.2421  0.3181
 4454TIP3    H134777   1.147   2.668  15.533 -0.3146  0.2899  1.7097
 4454TIP3    H234778   1.274   2.621  15.599  0.6222 -1.0089 -0.8632
 4455TIP3   OH234779   0.842   3.671   0.109  0.2451  0.6061  0.3433
 4455TIP3    H134780   0.851   3.628   0.194  0.1345  0.0800  0.0935
 4455TIP3    H234781   0.932   3.686   0.080  0.2956  0.1099  0.2239
 4456TIP3   OH234782   0.301   2.055  13.251  0.1575 -0.0734 -0.3574
 4456TIP3    H134783   0.320   2.012  13.335 -0.0258  0.3283 -0.1081
 4456TIP3    H234784   0.234   1.999  13.210  1.4585 -1.2064 -1.0051
 4457TIP3   OH234785   1.251   1.458   4.719  0.0779  0.0358 -0.3659
 4457TIP3    H134786   1.285   1.529   4.665 -1.3910  1.3545  0.3787
 4457TIP3    H234787   1.185   1.416   4.665  0.6078 -0.4751 -0.6265
 4458TIP3   OH234788   1.355   4.213  15.640  0.4201 -0.1834 -0.4780
 4458TIP3    H134789   1.404   4.294  15.651  0.0749  0.0347 -0.5448
 4458TIP3    H234790   1.302   4.227  15.562  0.5773 -0.5836 -0.6595
 4459TIP3   OH234791   4.887   6.226  11.647  0.1771 -0.0827 -0.3479
 4459TIP3    H134792   4.798   6.244  11.679  0.5922 -0.9624  1.4403
 4459TIP3    H234793   4.890   6.131  11.637  0.7687 -0.0162 -0.8650
 4460TIP3   OH234794   5.457   1.410   5.130 -0.6253 -0.8207 -0.0666
 4460TIP3    H134795   5.420   1.336   5.178 -0.1925 -0.3837  0.9919
 4460TIP3    H234796   5.548   1.414   5.160  0.1382 -1.5096 -2.1532
 4461TIP3   OH234797   6.017   6.126  13.622  0.7424  0.2268 -0.5759
 4461TIP3    H134798   5.930   6.155  13.593  0.3435 -0.3756 -0.0228
 4461TIP3    H234799   5.999   6.072  13.699  1.7423  1.7127  0.7623
 4462TIP3   OH234800   1.253   6.499   6.475  0.0010 -0.1991  0.2284
 4462TIP3    H134801   1.202   6.550   6.538 -1.1078 -1.3711  0.3050
 4462TIP3    H234802   1.318   6.562   6.441  0.0217  0.6910  1.8284
 4463TIP3   OH234803   3.316   2.281   5.650  0.1274 -0.0454 -0.7317
 4463TIP3    H134804   3.308   2.270   5.745 -2.2487 -3.5279 -1.1336
 4463TIP3    H234805   3.324   2.375   5.636  0.2651  0.5971  2.8711
 4464TIP3   OH234806   4.141   0.314  13.293  0.9595 -0.0714 -0.0550
 4464TIP3    H134807   4.063   0.263  13.311 -1.5437  3.7217  1.0132
 4464TIP3    H234808   4.198   0.298  13.368 -0.4681 -0.0294  1.0710
 4465TIP3   OH234809   4.128   1.801   1.859  0.0310  0.2919 -0.1489
 4465TIP3    H134810   4.082   1.865   1.913 -0.3800  0.2446 -0.4401
 4465TIP3    H234811   4.076   1.795   1.779 -0.5528 -1.1955  0.3011
 4466TIP3   OH234812   6.133   0.046   1.163 -0.6102  0.1474 -0.0862
 4466TIP3    H134813   6.134   0.046   1.259 -0.6901  1.2321 -0.0707
 4466TIP3    H234814   6.104   0.134   1.140  0.3747  0.2187 -1.1172
 4467TIP3   OH234815   3.003   3.156  14.048 -0.2867 -0.6001  0.7771
 4467TIP3    H134816   2.937   3.087  14.059 -0.5494 -0.1055  2.6770
 4467TIP3    H234817   3.029   3.178  14.137  0.3655  1.2168  0.1671
 4468TIP3   OH234818   3.840   5.468   2.084  0.2476 -0.0680  0.1922
 4468TIP3    H134819   3.774   5.535   2.063 -2.2572 -1.5315  2.5944
 4468TIP3    H234820   3.803   5.387   2.049  0.4907 -0.9912  1.9707
 4469TIP3   OH234821   0.920   0.650  10.838 -0.0492 -0.0479  0.0315
 4469TIP3    H134822   0.889   0.621  10.753  0.5256 -2.3218  0.5262
 4469TIP3    H234823   1.005   0.689  10.821  0.2284 -0.8264 -0.4104
 4470TIP3   OH234824   0.257   6.601  14.758 -0.0144  0.2203  0.3507
 4470TIP3    H134825   0.282   6.514  14.789  1.4931  0.5190  0.0146
 4470TIP3    H234826   0.303   6.661  14.815 -1.3921  0.8407  0.8609
 4471TIP3   OH234827   5.560   3.560   2.331 -0.1423  0.0136  0.2834
 4471TIP3    H134828   5.549   3.563   2.426 -0.2287 -1.8567  0.3886
 4471TIP3    H234829   5.579   3.650   2.306  3.7770  0.0167  2.5261
 4472TIP3   OH234830   2.649   1.468   1.414  0.4321  0.1310  0.4652
 4472TIP3    H134831   2.709   1.407   1.457  0.7753  0.8382  1.0159
 4472TIP3    H234832   2.566   1.421   1.409  1.0966 -0.9810 -0.5895
 4473TIP3   OH234833   1.959   5.377   5.057 -0.4436  0.3648  0.1800
 4473TIP3    H134834   2.024   5.412   5.118 -1.5861  0.7185  1.2394
 4473TIP3    H234835   1.875   5.398   5.097 -1.2257  0.0379 -1.2217
 4474TIP3   OH234836   2.720   2.999  15.997 -0.2560 -0.5666 -0.4717
 4474TIP3    H134837   2.761   3.058  15.933 -1.1392 -0.8540 -1.3337
 4474TIP3    H234838   2.782   2.927  16.007  0.6355  0.2919  0.2633
 4475TIP3   OH234839   0.855   5.884  16.828  0.3383 -0.1690 -0.2183
 4475TIP3    H134840   0.880   5.969  16.863  1.1992 -0.5416  0.1132
 4475TIP3    H234841   0.841   5.829  16.906 -0.1162 -0.3522 -0.4294
 4476TIP3   OH234842   0.679   5.451  14.723 -0.2133  0.7410  0.0508
 4476TIP3    H134843   0.611   5.519  14.735  0.5991  1.2821  1.9844
 4476TIP3    H234844   0.732   5.483  14.650 -0.5605  1.5997  0.1581
 4477TIP3   OH234845   2.815   2.081   3.657  0.6123  0.0609 -0.7124
 4477TIP3    H134846   2.752   2.134   3.609  1.6272  0.0573 -2.0988
 4477TIP3    H234847   2.791   1.990   3.636  0.6630  0.0412 -0.6862
 4478TIP3   OH234848   0.110   2.451  16.478  0.3588  0.0990 -0.3328
 4478TIP3    H134849   0.100   2.389  16.406 -1.1363 -0.6633  0.4826
 4478TIP3    H234850   0.076   2.405  16.555  0.4700  1.4464  0.5669
 4479TIP3   OH234851   3.912   2.776  11.470  0.2153  0.3799  0.5314
 4479TIP3    H134852   4.003   2.748  11.466 -0.1633 -0.7906 -0.4768
 4479TIP3    H234853   3.868   2.709  11.521 -0.4860 -0.3300 -0.9362
 4480TIP3   OH234854   0.720   1.656  15.706 -0.6007 -1.0167 -0.0826
 4480TIP3    H134855   0.630   1.633  15.731 -0.7866  0.9698  1.3254
 4480TIP3    H234856   0.742   1.730  15.763  1.6510 -0.9407 -0.9673
 4481TIP3   OH234857   1.375   1.235   4.422  0.4660  0.2496  0.0793
 4481TIP3    H134858   1.454   1.253   4.474 -0.1740  3.7968  0.0527
 4481TIP3    H234859   1.387   1.285   4.342 -0.5600 -1.5853 -1.2964
 4482TIP3   OH234860   6.147   6.148  10.603  0.1696  0.4898 -0.7989
 4482TIP3    H134861   6.194   6.165  10.522  0.1205 -0.4436 -1.0306
 4482TIP3    H234862   6.184   6.066  10.636 -0.8513  0.0634 -0.6707
 4483TIP3   OH234863   4.170   4.908  13.266 -0.6954  0.2087 -0.0591
 4483TIP3    H134864   4.241   4.942  13.321  0.5883  0.2576 -1.6582
 4483TIP3    H234865   4.110   4.981  13.254 -1.5294 -0.0623  2.0049
 4484TIP3   OH234866   2.720   2.630  16.135  0.0411 -0.2326  0.0343
 4484TIP3    H134867   2.795   2.687  16.147 -0.3613  0.2609  0.2563
 4484TIP3    H234868   2.647   2.678  16.174 -0.8031  0.2060 -1.9567
 4485TIP3   OH234869   0.529   3.979   1.119  0.3690 -0.2707 -0.1211
 4485TIP3    H134870   0.611   3.931   1.129  0.7100  0.4234  0.5249
 4485TIP3    H234871   0.498   3.991   1.209  0.0919  0.3729 -0.3014
 4486TIP3   OH234872   5.190   6.283   3.974  0.2680  0.1782 -0.1163
 4486TIP3    H134873   5.247   6.216   3.936  1.1310 -0.5806  2.2695
 4486TIP3    H234874   5.241   6.364   3.969  1.3646 -0.3634  1.3646
 4487TIP3   OH234875   5.948   6.555   0.320 -0.0806 -0.1119 -0.9220
 4487TIP3    H134876   6.007   6.515   0.257 -1.1418 -2.3120 -0.6147
 4487TIP3    H234877   5.994   6.548   0.404 -1.1115 -2.8587 -0.4863
 4488TIP3   OH234878   1.096   4.333  12.012  0.3913 -0.0313 -0.2384
 4488TIP3    H134879   1.046   4.404  11.973 -1.1297 -1.1134 -0.3163
 4488TIP3    H234880   1.095   4.263  11.946 -0.6857 -1.2167  0.9758
 4489TIP3   OH234881   2.819   6.794  11.067 -0.2403 -0.2125  0.0191
 4489TIP3    H134882   2.846   6.832  10.984  0.9750 -0.9124  0.0614
 4489TIP3    H234883   2.895   6.805  11.124 -0.5275 -1.0338  0.5852
 4490TIP3   OH234884   4.414   3.996   0.871 -0.2788  0.2831 -1.1466
 4490TIP3    H134885   4.490   4.055   0.874  0.3294 -0.5241  0.4468
 4490TIP3    H234886   4.438   3.929   0.807 -0.1808  0.7316 -1.5811
 4491TIP3   OH234887   3.241   4.926  10.521 -0.4673  0.7484  0.0578
 4491TIP3    H134888   3.276   4.843  10.552 -0.5776  0.4641 -0.5654
 4491TIP3    H234889   3.153   4.905  10.489 -0.2130  0.9485 -0.8000
 4492TIP3   OH234890   4.447   1.027   0.934  0.1536  0.3161  0.2485
 4492TIP3    H134891   4.523   1.077   0.963  1.2612 -0.1381 -1.6711
 4492TIP3    H234892   4.409   1.081   0.864 -1.0496  0.3274  0.8914
 4493TIP3   OH234893   6.267   5.535  15.055  0.5912 -0.3148 -0.0662
 4493TIP3    H134894   6.298   5.445  15.068  0.2994 -0.2549  1.2273
 4493TIP3    H234895   6.211   5.551  15.131 -0.1531  0.6222 -0.8031
 4494TIP3   OH234896   3.133   0.307   5.214 -0.2288 -0.2073  0.2088
 4494TIP3    H134897   3.059   0.247   5.226 -0.4736 -0.0397 -0.3953
 4494TIP3    H234898   3.128   0.332   5.122  1.5953 -1.5078 -0.2933
 4495TIP3   OH234899   1.011   3.618  16.193  0.3628  0.3043 -0.0497
 4495TIP3    H134900   0.932   3.564  16.189  0.9507 -0.5592 -0.2779
 4495TIP3    H234901   0.996   3.677  16.267  0.1235 -0.8373  0.8402
 4496TIP3   OH234902   0.214   2.737  12.260  0.6412 -0.0428  0.2091
 4496TIP3    H134903   0.225   2.649  12.223  0.5892 -0.0963  0.3170
 4496TIP3    H234904   0.130   2.733  12.306 -0.0059  0.4732 -0.9124
 4497TIP3   OH234905   5.175   3.405  14.183  0.4597  0.8764 -0.7153
 4497TIP3    H134906   5.143   3.365  14.264  0.7087  0.6502 -0.7301
 4497TIP3    H234907   5.143   3.347  14.113 -0.5976  1.5918 -0.8561
 4498TIP3   OH234908   6.099   3.775  16.780  0.3876 -0.5088 -0.3648
 4498TIP3    H134909   6.149   3.747  16.857  0.5476  0.0055 -0.2790
 4498TIP3    H234910   6.119   3.709  16.714  1.5245 -0.0996 -0.4648
 4499TIP3   OH234911   5.536   2.830  15.478 -0.3111  0.1029 -0.1503
 4499TIP3    H134912   5.493   2.914  15.469  1.0487  0.7250 -1.3108
 4499TIP3    H234913   5.576   2.832  15.565  1.0104  1.3291 -0.7520
 4500TIP3   OH234914   0.958   6.296  11.723 -0.1603 -0.3212 -0.7168
 4500TIP3    H134915   1.051   6.282  11.704  0.3938  0.6792  1.0480
 4500TIP3    H234916   0.955   6.311  11.817 -2.0024  0.6903 -0.8934
 4501TIP3   OH234917   0.838   6.093   5.165  0.4216  0.0018 -0.1991
 4501TIP3    H134918   0.850   6.173   5.215  0.0554 -0.5494  0.8096
 4501TIP3    H234919   0.756   6.107   5.118  0.7055  0.4807 -0.5545
 4502TIP3   OH234920   5.509   6.149  12.793  0.5373 -0.3547  0.1648
 4502TIP3    H134921   5.531   6.092  12.866  0.8201 -0.3598  0.0754
 4502TIP3    H234922   5.428   6.112  12.757  1.2700 -1.2979 -0.5373
 4503TIP3   OH234923   5.278   1.508   0.222 -0.3521 -0.2636  0.0450
 4503TIP3    H134924   5.316   1.463   0.147 -0.4373 -0.0908 -0.1006
 4503TIP3    H234925   5.253   1.594   0.189  0.1070  0.0072  0.4069
 4504TIP3   OH234926   6.496   4.615   0.345  0.7215 -0.0334  0.6702
 4504TIP3    H134927   6.404   4.627   0.370 -0.3638  0.7638 -3.0128
 4504TIP3    H234928   6.492   4.558   0.268  3.5511 -1.5616  1.5266
 4505TIP3   OH234929   5.762   0.655  16.810 -0.1765 -0.0127  0.0852
 4505TIP3    H134930   5.848   0.691  16.791  0.6960 -2.5424 -1.1124
 4505TIP3    H234931   5.744   0.595  16.738 -3.0403  0.5154  0.2130
 4506TIP3   OH234932   4.474   4.543  13.465 -0.1031 -0.0831 -0.0159
 4506TIP3    H134933   4.504   4.498  13.385 -0.7424  0.4973 -0.5923
 4506TIP3    H234934   4.555   4.568  13.510  0.2641 -0.8581 -0.2267
 4507TIP3   OH234935   4.708   4.284   6.709 -0.0410 -0.4012  0.4424
 4507TIP3    H134936   4.753   4.317   6.631  1.1439  1.1546  1.7166
 4507TIP3    H234937   4.615   4.285   6.686  0.3291 -0.7598 -1.2025
 4508TIP3   OH234938   3.028   0.106  14.642 -0.1377 -0.2806 -0.0924
 4508TIP3    H134939   3.072   0.176  14.690  0.9474  1.8502 -3.8143
 4508TIP3    H234940   2.936   0.134  14.638 -0.2185 -0.4276  0.5868
 4509TIP3   OH234941   1.191   1.939   4.359 -0.5265  0.5537 -0.0150
 4509TIP3    H134942   1.175   1.940   4.453  0.9461  1.9478  0.2691
 4509TIP3    H234943   1.109   1.968   4.320 -0.8841  0.7878  0.8931
 4510TIP3   OH234944   6.515   0.220   3.087 -0.4727 -0.1476  0.1207
 4510TIP3    H134945   6.437   0.273   3.101 -1.4161 -1.2667 -0.6216
 4510TIP3    H234946   6.493   0.165   3.011  1.7369  0.8015 -1.3006
 4511TIP3   OH234947   2.974   6.480   0.071  0.8882 -0.1896 -0.1138
 4511TIP3    H134948   2.928   6.410   0.023 -1.4537  1.1437  0.0252
 4511TIP3    H234949   2.969   6.453   0.162 -3.2743  1.6262  0.4381
 4512TIP3   OH234950   0.317   6.772  15.782  0.0176 -0.2953  0.5301
 4512TIP3    H134951   0.340   6.773  15.875  0.2196  0.6078  0.4725
 4512TIP3    H234952   0.331   6.861  15.752 -1.1176 -0.3121 -0.1112
 4513TIP3   OH234953   6.266   0.703   3.249 -0.2747  0.4336 -0.1915
 4513TIP3    H134954   6.225   0.632   3.298  0.6465  0.3876  0.5286
 4513TIP3    H234955   6.193   0.762   3.228 -1.0310 -0.6364 -0.6870
 4514TIP3   OH234956   6.423   4.540   1.743 -0.0921 -0.3264 -0.3333
 4514TIP3    H134957   6.399   4.449   1.763 -1.1319  0.1312  0.5604
 4514TIP3    H234958   6.375   4.592   1.806  3.2795  0.6704  1.6801
 4515TIP3   OH234959   5.949   5.690  13.152  0.1323  0.0550 -0.2003
 4515TIP3    H134960   6.024   5.635  13.129  0.4770  0.6241 -0.4487
 4515TIP3    H234961   5.970   5.776  13.117  0.3535  0.7850  1.5830
 4516TIP3   OH234962   4.892   5.259  13.330 -0.2977  0.2421 -0.0960
 4516TIP3    H134963   4.861   5.183  13.380 -1.5169 -0.1569 -1.3924
 4516TIP3    H234964   4.853   5.334  13.375  0.2867  0.0621  0.7407
 4517TIP3   OH234965   6.341   5.765  14.491  0.0958  0.2414  0.6425
 4517TIP3    H134966   6.296   5.769  14.575 -0.3411  0.8269  0.3921
 4517TIP3    H234967   6.367   5.674  14.482  1.5776  0.4725  2.1510
 4518TIP3   OH234968   0.241   3.537  13.413  0.1086  0.1262 -0.0034
 4518TIP3    H134969   0.283   3.569  13.333  0.2928  1.1255  0.4805
 4518TIP3    H234970   0.236   3.613  13.470  1.2288 -0.8350  1.4799
 4519TIP3   OH234971   5.816   6.532  14.700  0.5923 -0.0458  0.3494
 4519TIP3    H134972   5.762   6.464  14.740  0.5915 -0.4984 -0.3884
 4519TIP3    H234973   5.755   6.579  14.641  0.4050  1.1014  1.4088
 4520TIP3   OH234974   2.287   4.694   0.383 -0.0049 -0.1029  0.6471
 4520TIP3    H134975   2.341   4.628   0.340 -0.7394 -1.0680  1.1573
 4520TIP3    H234976   2.198   4.662   0.373 -0.7126  2.2627 -1.5810
 4521TIP3   OH234977   2.219   5.884   3.341 -0.0870 -0.4597  0.2133
 4521TIP3    H134978   2.294   5.914   3.392  0.5376 -1.1206 -0.2956
 4521TIP3    H234979   2.256   5.824   3.276 -1.0877 -1.0150  0.1251
 4522TIP3   OH234980   2.003   3.233  17.031  0.5149 -0.1514 -0.7563
 4522TIP3    H134981   2.081   3.209  16.982  1.1583  1.3894 -0.5269
 4522TIP3    H234982   2.013   3.326  17.048 -0.3345 -0.3553  1.1167
 4523TIP3   OH234983   3.032   1.511  10.960 -0.4512 -0.0089 -0.4006
 4523TIP3    H134984   3.046   1.599  10.925 -0.2003  0.1693  0.1352
 4523TIP3    H234985   3.032   1.454  10.883  1.3593  0.2189 -0.6166
 4524TIP3   OH234986   4.901   0.664   3.718 -0.4886 -0.9732 -0.4849
 4524TIP3    H134987   4.884   0.583   3.669 -0.1476 -2.2538  1.4335
 4524TIP3    H234988   4.997   0.669   3.722 -0.4848  0.0786 -1.4097
 4525TIP3   OH234989   0.675   3.282   1.277 -1.1035 -0.1316 -0.3621
 4525TIP3    H134990   0.744   3.347   1.266 -0.4733 -0.1156  2.7084
 4525TIP3    H234991   0.673   3.235   1.194  1.7660  0.6724 -1.0116
 4526TIP3   OH234992   1.100   3.154   2.813  0.3381 -0.4445  0.2806
 4526TIP3    H134993   1.144   3.148   2.898 -0.6031 -3.3810  0.6770
 4526TIP3    H234994   1.053   3.071   2.804 -0.2847  0.1014 -2.7594
 4527TIP3   OH234995   5.113   4.682  16.636  0.3157 -0.1680  0.3626
 4527TIP3    H134996   5.073   4.643  16.558 -1.1895 -0.2713  1.1630
 4527TIP3    H234997   5.201   4.707  16.607 -0.2582 -0.0545 -1.4210
 4528TIP3   OH234998   4.319   4.109   4.018  0.1993 -0.2403 -0.2330
 4528TIP3    H134999   4.366   4.159   4.084 -0.7045  1.0351 -0.5060
 4528TIP3    H235000   4.234   4.090   4.058  0.2714 -0.9406 -0.4012
 4529TIP3   OH235001   4.670   4.628   1.701 -0.2945 -0.4819 -0.0412
 4529TIP3    H135002   4.764   4.624   1.685 -0.3752  0.6244 -0.9950
 4529TIP3    H235003   4.634   4.557   1.649  0.0075 -0.8451  0.2439
 4530TIP3   OH235004   2.819   4.932   1.009  0.5567 -0.0975  0.2721
 4530TIP3    H135005   2.912   4.912   1.024  0.8678  1.2653  0.3123
 4530TIP3    H235006   2.820   5.001   0.942 -0.4513 -0.3609 -0.0297
 4531TIP3   OH235007   4.845   0.761  13.844 -0.8560 -0.1306  0.2564
 4531TIP3    H135008   4.903   0.727  13.913 -0.2152  0.6542  0.1312
 4531TIP3    H235009   4.787   0.688  13.822  1.1843 -1.5202 -0.8151
 4532TIP3   OH235010   1.225   0.732  12.018 -0.2761  0.9450 -0.6556
 4532TIP3    H135011   1.173   0.804  11.982 -1.0978  1.2303  0.9943
 4532TIP3    H235012   1.295   0.775  12.067 -0.8819  0.6632  0.4983
 4533TIP3   OH235013   0.605   1.683   0.444 -0.0777  0.0204  0.1244
 4533TIP3    H135014   0.566   1.752   0.498 -0.1746  0.8831 -1.0161
 4533TIP3    H235015   0.686   1.722   0.410 -0.8609  0.1430 -1.7184
 4534TIP3   OH235016   2.603   4.297  15.000 -0.0105  0.2802  0.0742
 4534TIP3    H135017   2.543   4.285  15.073 -1.1016 -1.1985 -1.0205
 4534TIP3    H235018   2.559   4.360  14.942 -0.1655 -0.2373 -0.3735
 4535TIP3   OH235019   1.625   2.222   0.703  0.2101  0.5922 -0.1697
 4535TIP3    H135020   1.708   2.198   0.662  0.2072 -0.1786  0.2673
 4535TIP3    H235021   1.558   2.188   0.644  0.1769 -2.2353  1.3428
 4536TIP3   OH235022   0.785   4.684   0.971 -0.0699  0.4892 -0.1051
 4536TIP3    H135023   0.852   4.683   1.040 -0.2514 -2.1139  0.1460
 4536TIP3    H235024   0.717   4.743   1.004 -0.2597 -0.8515  2.1229
 4537TIP3   OH235025   4.936   4.352   5.629 -0.0832  0.3194  0.2301
 4537TIP3    H135026   4.949   4.444   5.605 -0.1062  0.4284  0.6341
 4537TIP3    H235027   4.867   4.322   5.571 -1.1429  0.9753  1.1243
 4538TIP3   OH235028   1.613   6.433  16.085 -0.2538  0.3259  0.2059
 4538TIP3    H135029   1.667   6.503  16.047  0.1241  0.2475  0.5873
 4538TIP3    H235030   1.676   6.378  16.132 -0.7030  0.3819  0.8814
 4539TIP3   OH235031   0.272   5.475  13.094  0.2146 -0.2617  0.8311
 4539TIP3    H135032   0.216   5.473  13.016 -0.1368  0.2319  1.0664
 4539TIP3    H235033   0.336   5.405  13.079  0.0317 -0.3001  0.1908
 4540TIP3   OH235034   6.226   6.507   4.689  0.0383  0.0497  0.1275
 4540TIP3    H135035   6.238   6.565   4.614 -0.9769 -1.1044 -0.9923
 4540TIP3    H235036   6.222   6.565   4.765  0.0485  1.3407 -0.8325
 4541TIP3   OH235037   3.606   5.595  15.890 -0.4691  0.1925  0.1873
 4541TIP3    H135038   3.627   5.529  15.956 -2.1365 -0.8850 -0.3237
 4541TIP3    H235039   3.575   5.670  15.941 -0.2407 -0.0512  0.6927
 4542TIP3   OH235040   5.581   0.191   3.428  0.0092 -0.2509 -0.0809
 4542TIP3    H135041   5.610   0.270   3.383 -0.9834 -0.3553 -0.9399
 4542TIP3    H235042   5.643   0.123   3.400  1.4135  0.3766  1.3643
 4543TIP3   OH235043   3.237   5.136  12.040 -0.1513  0.0346  0.2544
 4543TIP3    H135044   3.282   5.079  11.978 -0.2336  1.7306 -1.4663
 4543TIP3    H235045   3.205   5.209  11.987  0.5602  2.0553  2.4196
 4544TIP3   OH235046   0.880   3.463  14.152  0.1403  0.0160  0.3192
 4544TIP3    H135047   0.946   3.465  14.222  2.0473 -3.4151 -1.1383
 4544TIP3    H235048   0.807   3.413  14.188 -0.6184  1.5916  1.0633
 4545TIP3   OH235049   5.463   3.227   3.776 -0.1936 -0.3045 -0.3861
 4545TIP3    H135050   5.382   3.252   3.819 -1.0888 -0.6568 -1.7845
 4545TIP3    H235051   5.449   3.249   3.683  0.2027 -2.8629 -1.1358
 4546TIP3   OH235052   1.690   5.035   4.630 -0.2883  0.9579  0.5062
 4546TIP3    H135053   1.770   5.013   4.677 -1.0059  2.0967  2.3906
 4546TIP3    H235054   1.619   5.015   4.692 -1.3668  1.3417 -0.5502
 4547TIP3   OH235055   3.518   5.466   6.158  0.0593  0.2193 -0.3748
 4547TIP3    H135056   3.494   5.558   6.149  0.6179  0.3631 -0.4333
 4547TIP3    H235057   3.461   5.433   6.227 -0.3215  0.5468 -0.5298
 4548TIP3   OH235058   1.171   3.684   5.851 -0.1055  0.4317 -0.0332
 4548TIP3    H135059   1.118   3.623   5.903  2.1914 -1.3703  0.4031
 4548TIP3    H235060   1.144   3.771   5.880 -2.1293 -0.4001  0.7727
 4549TIP3   OH235061   4.078   6.560  14.894 -0.4291 -0.7939  0.1060
 4549TIP3    H135062   4.158   6.606  14.870 -0.8727  0.1652  0.4343
 4549TIP3    H235063   4.058   6.589  14.982 -1.9182  0.1094 -0.4916
 4550TIP3   OH235064   3.806   6.696  16.469 -0.2170 -0.1208  0.0203
 4550TIP3    H135065   3.901   6.690  16.467 -0.1806 -0.4753  1.6100
 4550TIP3    H235066   3.785   6.710  16.561 -1.6546  1.0755 -0.4428
 4551TIP3   OH235067   4.563   1.497   1.280 -0.0281 -0.3119  0.1648
 4551TIP3    H135068   4.528   1.563   1.340  0.5223 -1.2455  1.5826
 4551TIP3    H235069   4.488   1.441   1.259 -0.8157  1.4883 -2.1475
 4552TIP3   OH235070   1.557   5.677   2.888  0.2505 -0.8256 -0.0562
 4552TIP3    H135071   1.511   5.623   2.952  0.6586 -2.1097 -0.8233
 4552TIP3    H235072   1.521   5.650   2.803 -1.9870  2.4486 -0.3355
 4553TIP3   OH235073   0.640   1.983  10.869  0.0959  0.1028 -0.0392
 4553TIP3    H135074   0.555   1.949  10.895  0.3286  0.1821  0.8481
 4553TIP3    H235075   0.620   2.046  10.799 -0.4342 -0.9180 -0.8242
 4554TIP3   OH235076   6.324   0.354  13.392 -0.4037 -0.1699 -0.0435
 4554TIP3    H135077   6.308   0.276  13.445 -0.7984 -0.6950 -0.9128
 4554TIP3    H235078   6.329   0.426  13.455 -2.7287 -0.4870  0.5735
 4555TIP3   OH235079   3.529   1.330   4.272 -0.4393 -0.6536  0.1117
 4555TIP3    H135080   3.514   1.371   4.358  1.6358 -1.3440  0.8556
 4555TIP3    H235081   3.493   1.242   4.281 -0.6707 -0.5612  0.0989
 4556TIP3   OH235082   4.655   0.580   3.554 -0.5535 -0.3258  0.2460
 4556TIP3    H135083   4.671   0.548   3.643  1.9046 -0.3111 -0.0984
 4556TIP3    H235084   4.610   0.508   3.510  0.4259 -1.3436  0.8551
 4557TIP3   OH235085   4.012   0.294  14.845 -0.2375  0.0986 -0.0629
 4557TIP3    H135086   4.086   0.297  14.785  0.0026 -2.7144 -0.0209
 4557TIP3    H235087   3.947   0.353  14.806  0.8641  0.2485 -1.7348
 4558TIP3   OH235088   4.413   0.902   5.719 -0.0784  0.5891 -0.0734
 4558TIP3    H135089   4.334   0.921   5.770  0.3295  0.1816  0.7415
 4558TIP3    H235090   4.421   0.806   5.724  0.8623  0.6893  0.4710
 4559TIP3   OH235091   2.751   1.473  14.516  0.0885 -0.0552 -0.1932
 4559TIP3    H135092   2.841   1.473  14.550 -0.2627  0.0461  0.7763
 4559TIP3    H235093   2.758   1.436  14.428  1.2052  0.8099 -0.4868
 4560TIP3   OH235094   0.370   1.833  16.588 -0.0953  0.3229  0.7807
 4560TIP3    H135095   0.426   1.784  16.648  1.5235 -0.0922 -0.9713
 4560TIP3    H235096   0.352   1.771  16.516 -2.1423  0.7266  0.8654
 4561TIP3   OH235097   6.676   5.353   1.214  0.0396  0.2327 -0.1015
 4561TIP3    H135098   6.758   5.334   1.259  0.0991  1.4032  0.3236
 4561TIP3    H235099   6.657   5.444   1.236 -1.8443 -0.2747  0.5612
 4562TIP3   OH235100   6.262   1.492   2.521  0.5136 -0.0739 -0.3385
 4562TIP3    H135101   6.271   1.483   2.616 -0.4496 -0.6772 -0.2844
 4562TIP3    H235102   6.254   1.402   2.489  1.3483  0.0968 -1.0584
 4563TIP3   OH235103   5.729   5.854  16.670 -0.4301  0.5140  0.2424
 4563TIP3    H135104   5.769   5.818  16.592  0.0712 -0.9616  1.1370
 4563TIP3    H235105   5.794   5.914  16.706  0.1819 -0.3462  0.6020
 4564TIP3   OH235106   6.198   1.404  16.006 -0.4107  0.4796  0.4119
 4564TIP3    H135107   6.217   1.460  15.931 -0.7285 -0.3650 -0.3012
 4564TIP3    H235108   6.105   1.383  15.998 -0.5102  0.5803  1.1857
 4565TIP3   OH235109   3.969   2.704  13.062  0.4361  0.1183  0.3672
 4565TIP3    H135110   4.014   2.653  12.995 -0.1335  0.0571  0.0294
 4565TIP3    H235111   4.032   2.709  13.135  0.9686 -0.0070 -0.0774
 4566TIP3   OH235112   5.284   5.756   2.511 -0.2101  0.1775  0.1807
 4566TIP3    H135113   5.368   5.773   2.553  0.3993 -1.1856 -0.4243
 4566TIP3    H235114   5.300   5.681   2.454 -1.9117 -0.3304  0.2935
 4567TIP3   OH235115   5.817   0.060   3.642  0.4397  0.1641  0.3533
 4567TIP3    H135116   5.757   0.115   3.592  0.2898  0.3321  0.7146
 4567TIP3    H235117   5.762   0.019   3.708  0.8027  0.7228  1.0206
 4568TIP3   OH235118   0.672   5.320   1.752  0.0233 -0.3264 -0.1123
 4568TIP3    H135119   0.581   5.323   1.784 -0.3494  0.7684 -1.1782
 4568TIP3    H235120   0.674   5.243   1.694 -0.5486  0.2648 -0.9433
 4569TIP3   OH235121   6.670   5.590  16.016  0.4149  0.6989  0.0670
 4569TIP3    H135122   6.628   5.513  16.054  0.4358  1.0428  0.7927
 4569TIP3    H235123   6.626   5.664  16.056 -0.4787  1.1037 -1.5609
 4570TIP3   OH235124   2.286   5.979   5.325 -0.5173 -0.0741 -0.4360
 4570TIP3    H135125   2.217   5.960   5.389 -1.2427  0.4833 -1.0169
 4570TIP3    H235126   2.368   5.968   5.372 -1.0035 -0.8936  0.2381
 4571TIP3   OH235127   6.108   4.920  13.629 -0.3161 -0.3974  0.2667
 4571TIP3    H135128   6.104   4.994  13.690  3.0352 -1.7668  2.4641
 4571TIP3    H235129   6.195   4.925  13.591 -0.2090 -2.8342  0.0189
 4572TIP3   OH235130   1.619   5.557  13.082 -0.2193  0.5212  0.0223
 4572TIP3    H135131   1.702   5.525  13.117 -0.0161  0.7820 -0.2199
 4572TIP3    H235132   1.554   5.535  13.150 -0.2490 -1.2496 -0.5183
 4573TIP3   OH235133   0.757   5.666   3.092  0.6052 -0.1535 -0.3940
 4573TIP3    H135134   0.731   5.754   3.120  1.3539 -0.7528  2.4970
 4573TIP3    H235135   0.852   5.663   3.105  0.5406 -1.4821 -0.0477
 4574TIP3   OH235136   4.690   2.157  13.550  0.3841 -0.3226 -0.2271
 4574TIP3    H135137   4.777   2.144  13.589  1.4133  0.6251 -2.0400
 4574TIP3    H235138   4.661   2.069  13.526  0.1821 -0.8005  1.6459
 4575TIP3   OH235139   1.243   3.041   2.524 -0.3539 -0.2548  0.4348
 4575TIP3    H135140   1.220   3.133   2.532 -0.6144 -0.3329  0.6066
 4575TIP3    H235141   1.180   2.996   2.580 -0.2648 -0.5414  0.3055
 4576TIP3   OH235142   2.597   2.999   3.632 -0.5071 -0.0235  0.0261
 4576TIP3    H135143   2.624   2.983   3.723 -0.3388  1.1337  0.1918
 4576TIP3    H235144   2.559   2.915   3.604  2.6120 -1.5608 -0.0274
 4577TIP3   OH235145   2.066   4.868   3.703 -0.3059  0.6437  0.0433
 4577TIP3    H135146   1.998   4.934   3.691  0.2189  1.4034  1.1044
 4577TIP3    H235147   2.120   4.901   3.775  0.3666 -0.6211  0.1549
 4578TIP3   OH235148   6.529   3.959   5.892 -0.2891  0.3341  0.5044
 4578TIP3    H135149   6.456   3.994   5.840 -0.3150  0.4390  0.6103
 4578TIP3    H235150   6.496   3.875   5.926  0.5297 -0.8712 -1.5128
 4579TIP3   OH235151   0.109   0.955   2.140  0.1090 -0.7262  0.6489
 4579TIP3    H135152   0.025   0.999   2.153  0.7129  0.6550  0.0810
 4579TIP3    H235153   0.143   0.992   2.058  0.7884 -2.0496  0.3139
 4580TIP3   OH235154   3.966   2.154  11.399  0.4551  0.2756  0.2896
 4580TIP3    H135155   3.942   2.062  11.385  0.9154  0.0488  0.9626
 4580TIP3    H235156   4.037   2.169  11.336 -0.2165  0.4295 -0.4405
 4581TIP3   OH235157   5.019   3.297   4.629  0.5337  0.0137  0.1970
 4581TIP3    H135158   4.995   3.351   4.554  0.1490  1.0653  1.0482
 4581TIP3    H235159   4.935   3.273   4.669  0.7534  1.6024  1.7338
 4582TIP3   OH235160   6.198   3.144   5.149 -0.1783 -0.3713 -0.4176
 4582TIP3    H135161   6.234   3.120   5.063 -0.3309  2.3427 -1.3260
 4582TIP3    H235162   6.243   3.226   5.172 -1.2251 -0.2569  1.4133
 4583TIP3   OH235163   0.922   4.431  16.964  0.1862 -0.4236 -0.3622
 4583TIP3    H135164   0.904   4.525  16.958  0.6082 -0.3846 -1.2556
 4583TIP3    H235165   0.989   4.424  17.031 -0.8178 -0.2425  0.6882
 4584TIP3   OH235166   4.953   1.242   2.341  0.1299 -0.3971  0.2977
 4584TIP3    H135167   4.958   1.264   2.434  3.6416  2.4731 -0.3321
 4584TIP3    H235168   5.009   1.165   2.332 -1.0003 -1.2960  0.5862
 4585TIP3   OH235169   6.362   2.868  13.474  0.0610  0.4376 -0.0238
 4585TIP3    H135170   6.288   2.809  13.485  0.2188  0.2106 -0.1589
 4585TIP3    H235171   6.433   2.828  13.524  0.0856  0.6693  0.1313
 4586TIP3   OH235172   4.085   2.582   3.056 -0.3896 -0.3788  0.3202
 4586TIP3    H135173   4.080   2.603   3.149  0.5810 -2.0570  0.7882
 4586TIP3    H235174   4.106   2.665   3.013  0.8894  0.0861  1.7814
 4587TIP3   OH235175   1.455   6.784   4.589 -0.3500  0.1130  0.6057
 4587TIP3    H135176   1.472   6.813   4.500  0.2538 -0.2123  0.6084
 4587TIP3    H235177   1.465   6.689   4.585  1.5319  0.2391  1.3965
 4588TIP3   OH235178   2.617   0.004  16.577 -0.8174  0.7359 -0.0143
 4588TIP3    H135179   2.583   0.082  16.621  0.4690  2.0570 -1.2408
 4588TIP3    H235180   2.563  -0.005  16.499 -1.0974  0.2594  0.2314
 4589TIP3   OH235181   2.957   1.635   3.748 -0.2823  0.1164 -0.2518
 4589TIP3    H135182   2.995   1.693   3.682 -0.3346 -0.5477 -0.8847
 4589TIP3    H235183   2.870   1.671   3.765 -0.8410 -0.4927 -1.6235
 4590TIP3   OH235184   4.088   4.987  16.993 -0.6178  0.1853 -0.3932
 4590TIP3    H135185   4.074   5.027  17.079 -0.9139  1.3514 -0.9713
 4590TIP3    H235186   4.108   4.895  17.013  0.3410  0.6541  0.9740
 4591TIP3   OH235187   5.887   6.739   0.039  0.9834  0.0146  0.0729
 4591TIP3    H135188   5.954   6.672   0.029  0.8078  0.0431 -1.5698
 4591TIP3    H235189   5.915   6.811  -0.018  1.3072  1.4926  1.9865
 4592TIP3   OH235190   2.246   4.670  12.511 -0.3345  0.1002 -0.3145
 4592TIP3    H135191   2.151   4.671  12.522 -0.4277 -1.1535 -0.8614
 4592TIP3    H235192   2.273   4.584  12.544  0.6146  0.4466 -0.1611
 4593TIP3   OH235193   5.016   2.934   1.620 -0.0026 -0.5101 -0.3227
 4593TIP3    H135194   4.927   2.939   1.653  0.1696 -0.0841  0.0825
 4593TIP3    H235195   5.058   2.867   1.674  0.8025  1.4304  1.6236
 4594TIP3   OH235196   2.338   3.841   2.520  0.3203  0.0289  0.6929
 4594TIP3    H135197   2.273   3.798   2.575  0.7423 -0.1255  1.0774
 4594TIP3    H235198   2.299   3.926   2.498 -0.5114 -0.5263 -0.0581
 4595TIP3   OH235199   4.918   4.650   5.614  0.2619  0.0074 -0.1271
 4595TIP3    H135200   4.904   4.733   5.659  0.8512 -0.3878  0.8283
 4595TIP3    H235201   4.834   4.631   5.571 -0.1581  0.6539  0.3954
 4596TIP3   OH235202   5.487   4.832  13.948  0.5614 -0.6995 -0.2173
 4596TIP3    H135203   5.520   4.913  13.987  0.3966 -0.1814 -1.1415
 4596TIP3    H235204   5.394   4.850  13.930  0.3664 -1.3095  0.1386
 4597TIP3   OH235205   6.555   6.449  16.203 -0.1002  0.2998 -0.9958
 4597TIP3    H135206   6.577   6.542  16.193  0.1389  0.4922  0.9052
 4597TIP3    H235207   6.461   6.450  16.224  0.1932  0.2700  0.4512
 4598TIP3   OH235208   1.821   5.848  16.500 -0.3436  0.3854  0.1274
 4598TIP3    H135209   1.864   5.906  16.563 -0.4283  0.5427  0.0409
 4598TIP3    H235210   1.891   5.819  16.442  0.1807 -1.5256  1.6093
 4599TIP3   OH235211   1.339   5.838  16.403  0.0234 -0.4636  1.0609
 4599TIP3    H135212   1.279   5.897  16.449 -0.8722 -0.4541 -0.0692
 4599TIP3    H235213   1.308   5.839  16.312  3.5012  1.8257 -0.2936
 4600TIP3   OH235214   2.800   5.425   1.082 -0.2012  0.2356  0.4953
 4600TIP3    H135215   2.786   5.509   1.126 -2.5049 -0.9639  2.2430
 4600TIP3    H235216   2.890   5.402   1.106 -0.2706  1.1929  1.8318
 4601TIP3   OH235217   4.705   5.040  15.089  0.2706 -0.0243 -0.3724
 4601TIP3    H135218   4.677   5.116  15.140  1.5214  0.3188 -0.1544
 4601TIP3    H235219   4.797   5.058  15.068  0.3756 -1.1436 -0.9416
 4602TIP3   OH235220   0.019   3.337  13.515  0.6170  0.1639  0.2609
 4602TIP3    H135221   0.024   3.376  13.428 -0.2523 -0.7235 -0.2037
 4602TIP3    H235222   0.037   3.244  13.501  0.3762 -0.0061  1.0159
 4603TIP3   OH235223   1.681   5.644   1.244  0.1552  0.0792  0.1837
 4603TIP3    H135224   1.701   5.707   1.175  2.0256 -0.7440 -0.0670
 4603TIP3    H235225   1.730   5.675   1.321 -0.6780  0.1347  0.7085
 4604TIP3   OH235226   5.326   2.948  13.241 -0.4536 -0.0531 -0.3366
 4604TIP3    H135227   5.260   3.014  13.263  1.1274  2.0178 -1.4398
 4604TIP3    H235228   5.407   2.980  13.281 -0.1305 -2.9320  1.6549
 4605TIP3   OH235229   0.630   6.610   3.005  0.0604 -0.1432  0.7000
 4605TIP3    H135230   0.630   6.698   2.966  0.6477 -0.2604  0.4348
 4605TIP3    H235231   0.565   6.562   2.954 -0.5621  0.2441  1.1067
 4606TIP3   OH235232   4.028   1.988  10.762  0.1243  0.7335 -0.3564
 4606TIP3    H135233   4.035   2.081  10.742  0.0037  1.0667  1.0886
 4606TIP3    H235234   4.119   1.958  10.767  0.1974  1.0776  0.5054
 4607TIP3   OH235235   1.438   1.717  12.630 -0.2780 -0.7600  0.3435
 4607TIP3    H135236   1.441   1.765  12.547 -1.1573 -0.4357  0.4863
 4607TIP3    H235237   1.530   1.704  12.653  0.0214  1.4024  0.5922
 4608TIP3   OH235238   5.607   2.577   1.879 -0.1839  0.3476  0.0745
 4608TIP3    H135239   5.681   2.538   1.926 -0.3881 -1.1410 -0.7647
 4608TIP3    H235240   5.577   2.648   1.935  2.7491  1.9199 -0.1881
 4609TIP3   OH235241   2.049   4.180   1.406 -0.0259 -0.0144 -0.2886
 4609TIP3    H135242   2.118   4.192   1.471 -1.5152 -2.0344  1.8646
 4609TIP3    H235243   1.975   4.229   1.440 -0.6745 -0.6663 -0.7151
 4610TIP3   OH235244   4.824   0.956   1.230  0.1277  0.1770 -0.2400
 4610TIP3    H135245   4.798   1.044   1.260  0.7917  0.2993 -0.0157
 4610TIP3    H235246   4.810   0.900   1.306  1.8141  0.4876  0.3392
 4611TIP3   OH235247   6.690   0.797  16.250  0.2035  0.6291  0.4229
 4611TIP3    H135248   6.677   0.891  16.246 -0.2822  0.5566  0.1257
 4611TIP3    H235249   6.626   0.762  16.187 -1.2730 -0.0343  2.2076
 4612TIP3   OH235250   1.482   3.172   4.478  0.1591  0.0791  0.1253
 4612TIP3    H135251   1.525   3.244   4.432 -0.8988 -0.0671 -1.1352
 4612TIP3    H235252   1.520   3.093   4.440 -0.3337 -0.0391 -0.1288
 4613TIP3   OH235253   1.119   3.115   0.189 -0.2959 -0.1661  0.8095
 4613TIP3    H135254   1.151   3.149   0.273 -0.2141 -0.6044  0.9552
 4613TIP3    H235255   1.131   3.020   0.195  1.3346 -0.0710 -0.3669
 4614TIP3   OH235256   1.844   3.491   4.860  0.1585 -0.2626  0.4115
 4614TIP3    H135257   1.914   3.556   4.860 -0.6710  0.6607  1.1440
 4614TIP3    H235258   1.765   3.541   4.881 -0.4827 -1.5188  1.0959
 4615TIP3   OH235259   3.733   1.167   0.148  0.1906 -0.3539  0.2877
 4615TIP3    H135260   3.758   1.164   0.241  1.6107 -2.5422 -0.0732
 4615TIP3    H235261   3.804   1.214   0.105 -0.3729  0.4947  0.2786
 4616TIP3   OH235262   5.573   5.426  15.138  0.3483  0.0663  0.0803
 4616TIP3    H135263   5.479   5.429  15.156  0.1071  0.8129 -1.1363
 4616TIP3    H235264   5.600   5.338  15.163 -0.4746  0.1418  1.3280
 4617TIP3   OH235265   0.487   5.415  11.198 -0.0721  0.2670  0.3688
 4617TIP3    H135266   0.445   5.448  11.119 -0.3753 -0.1248  0.3634
 4617TIP3    H235267   0.470   5.482  11.264  0.1675  0.5864  0.1082
 4618TIP3   OH235268   0.548   2.742  13.396  0.2091  0.2387  0.1461
 4618TIP3    H135269   0.531   2.686  13.320  0.9057  0.8449 -0.4809
 4618TIP3    H235270   0.461   2.767  13.428 -0.1058  0.6089 -0.9464
 4619TIP3   OH235271   6.671   0.722   2.320  0.5267  0.3277 -0.0322
 4619TIP3    H135272   6.602   0.785   2.339 -0.7303 -0.8730 -0.5168
 4619TIP3    H235273   6.666   0.708   2.226  0.4280 -0.8916  0.1419
 4620TIP3   OH235274   2.080   2.938   1.577  0.1075 -0.5050 -0.2025
 4620TIP3    H135275   2.141   2.891   1.634  0.8982 -0.8357 -1.2985
 4620TIP3    H235276   2.083   3.028   1.607  0.4259 -0.6962  0.3523
 4621TIP3   OH235277   4.933   5.795   1.345 -0.1715  0.2214  0.4592
 4621TIP3    H135278   5.024   5.823   1.339 -0.4346  1.0284  0.2215
 4621TIP3    H235279   4.884   5.874   1.368 -0.8206 -0.1948  0.5461
 4622TIP3   OH235280   5.686   4.737   5.856 -0.0551  0.2817 -0.3146
 4622TIP3    H135281   5.640   4.820   5.849 -1.0067 -0.2988 -1.2280
 4622TIP3    H235282   5.633   4.685   5.917  0.8268  0.5050  0.6868
 4623TIP3   OH235283   0.252   2.324  12.642  0.0842 -0.2906 -0.1653
 4623TIP3    H135284   0.222   2.407  12.606 -0.4313 -0.5782 -0.4104
 4623TIP3    H235285   0.323   2.297  12.585  0.6474  0.2671  0.2601
 4624TIP3   OH235286   3.488   6.691   4.149  0.5859 -0.0553 -0.4632
 4624TIP3    H135287   3.548   6.745   4.099  0.9683 -0.1354 -0.0976
 4624TIP3    H235288   3.540   6.657   4.221  0.2503 -0.5879 -0.4610
 4625TIP3   OH235289   5.991   0.140   4.404 -0.1661  0.7453 -0.7635
 4625TIP3    H135290   6.079   0.178   4.410 -0.2515  0.9266 -0.6473
 4625TIP3    H235291   6.002   0.062   4.349  0.2761  0.1486  0.1335
 4626TIP3   OH235292   2.085   5.681  13.277  0.3529 -0.0593 -0.0781
 4626TIP3    H135293   2.127   5.678  13.363  0.1252 -1.6971  0.0077
 4626TIP3    H235294   1.992   5.677  13.295  0.3315 -1.7506 -0.4068
 4627TIP3   OH235295   2.969   4.867   1.417 -0.0692 -0.2685 -0.7030
 4627TIP3    H135296   2.946   4.875   1.510  2.8559  1.8255 -0.0322
 4627TIP3    H235297   2.962   4.774   1.398 -1.4050 -0.6565  1.4010
 4628TIP3   OH235298   4.421   0.992  15.272 -0.2882  0.8340  0.8521
 4628TIP3    H135299   4.404   0.899  15.257  1.2329  0.5958  0.4357
 4628TIP3    H235300   4.376   1.011  15.355  1.1088 -0.8226  2.0808
 4629TIP3   OH235301   0.119   5.179   1.568 -0.4300 -0.0573  0.4060
 4629TIP3    H135302   0.044   5.227   1.533  0.9651  1.7603 -0.2213
 4629TIP3    H235303   0.115   5.193   1.662 -1.3070 -0.6643  0.4749
 4630TIP3   OH235304   1.801   4.163  11.949  0.1322 -0.1071 -0.3217
 4630TIP3    H135305   1.751   4.239  11.977 -0.3844 -1.0471  1.4584
 4630TIP3    H235306   1.881   4.166  12.002  1.4008  0.6212 -2.1524
 4631TIP3   OH235307   4.876   5.367  16.797  0.3611  0.0077 -0.2277
 4631TIP3    H135308   4.811   5.324  16.742  0.5956  3.9378 -4.1327
 4631TIP3    H235309   4.955   5.369  16.743  1.8606  0.8367  1.8421
 4632TIP3   OH235310   1.770   5.809  12.994  0.0167 -0.3139  0.3711
 4632TIP3    H135311   1.713   5.745  13.038 -0.3550 -0.2825 -0.0517
 4632TIP3    H235312   1.797   5.765  12.913 -0.7278  0.2690 -0.2186
 4633TIP3   OH235313   3.296   1.422   2.962  0.2383 -0.3656 -0.5303
 4633TIP3    H135314   3.318   1.359   2.894  0.9630 -0.6155 -0.0752
 4633TIP3    H235315   3.375   1.430   3.015 -0.6587 -1.0905  1.0025
 4634TIP3   OH235316   0.298   3.346   1.710 -0.4887  0.0248 -0.5465
 4634TIP3    H135317   0.259   3.264   1.740 -0.9291  0.7299  0.8499
 4634TIP3    H235318   0.242   3.414   1.747  0.5057  0.9876 -0.7875
 4635TIP3   OH235319   3.273   6.501   6.474  0.3430 -0.0210  0.1442
 4635TIP3    H135320   3.246   6.410   6.471  0.8451 -0.1638 -0.2080
 4635TIP3    H235321   3.219   6.545   6.408 -0.4390  0.0938  0.8441
 4636TIP3   OH235322   4.057   5.475  11.096  0.0401 -0.1718 -0.2780
 4636TIP3    H135323   4.133   5.457  11.040 -0.3384 -0.9323 -0.5655
 4636TIP3    H235324   4.015   5.551  11.055  0.8346  0.4937  0.0937
 4637TIP3   OH235325   6.212   0.275   1.546  0.6615 -0.1281 -0.1844
 4637TIP3    H135326   6.137   0.240   1.498  0.5892  2.3081 -2.0674
 4637TIP3    H235327   6.279   0.286   1.479  2.0746 -0.5354  1.1308
 4638TIP3   OH235328   0.423   6.167  12.574 -0.5543  0.5092 -0.7812
 4638TIP3    H135329   0.440   6.076  12.550 -2.4124 -0.0366 -0.2075
 4638TIP3    H235330   0.368   6.200  12.502 -2.3466  0.2389  0.3945
 4639TIP3   OH235331   5.729   3.328   2.373  0.4115  0.2455 -0.1276
 4639TIP3    H135332   5.653   3.378   2.345  0.1629 -0.9475 -1.7171
 4639TIP3    H235333   5.802   3.365   2.322  0.3695 -0.4504 -0.7051
 4640TIP3   OH235334   2.612   2.898  15.633 -0.4364  0.5833  0.1243
 4640TIP3    H135335   2.682   2.843  15.668 -1.0524 -1.7821 -2.0116
 4640TIP3    H235336   2.647   2.929  15.549 -1.5826  0.0533 -0.5755
 4641TIP3   OH235337   5.962   0.834  12.374 -0.2050 -0.6020 -0.2958
 4641TIP3    H135338   5.999   0.917  12.342 -0.0044 -0.1765  1.0009
 4641TIP3    H235339   5.893   0.861  12.435  0.4841 -1.3750  0.8595
 4642TIP3   OH235340   6.322   2.537  13.611 -0.0185  0.2957 -0.2097
 4642TIP3    H135341   6.308   2.521  13.518  1.3629 -0.1411 -0.3670
 4642TIP3    H235342   6.332   2.450  13.649 -2.4084  0.3460  0.7118
 4643TIP3   OH235343   1.827   1.219  13.275  0.0408  0.0161 -0.3092
 4643TIP3    H135344   1.915   1.210  13.313 -0.2768 -1.1313  0.2119
 4643TIP3    H235345   1.811   1.135  13.233 -1.1074 -0.0736  0.2761
 4644TIP3   OH235346   5.444   1.470   1.662  0.2268 -0.0672  0.1697
 4644TIP3    H135347   5.431   1.486   1.756 -0.0622  0.7550 -0.0046
 4644TIP3    H235348   5.360   1.435   1.632  0.9154 -2.2829  0.5914
 4645TIP3   OH235349   4.786   6.277  13.397 -0.3354 -0.5502 -0.7882
 4645TIP3    H135350   4.778   6.279  13.302 -1.5167 -0.0640 -0.6864
 4645TIP3    H235351   4.711   6.327  13.429 -0.8138 -1.9807  0.4404
 4646TIP3   OH235352   5.898   4.069   3.303 -0.6619  0.4430  0.1886
 4646TIP3    H135353   5.861   4.144   3.255 -0.4410  1.0958  1.0253
 4646TIP3    H235354   5.884   3.995   3.244  0.2098  1.3251 -1.2027
 4647TIP3   OH235355   3.098   3.610   5.409 -0.0024 -0.0294 -0.3791
 4647TIP3    H135356   3.007   3.639   5.402 -0.2759 -0.6723  0.3833
 4647TIP3    H235357   3.092   3.517   5.430  0.8462 -0.3022 -1.3028
 4648TIP3   OH235358   4.894   1.984  17.066 -0.1092 -0.1308 -0.1966
 4648TIP3    H135359   4.811   1.943  17.041  1.2660 -2.1950 -1.6201
 4648TIP3    H235360   4.868   2.058  17.121 -2.8115 -1.7879  0.9631
 4649TIP3   OH235361   4.683   1.065   2.921 -0.2595 -0.6265  0.4136
 4649TIP3    H135362   4.667   1.135   2.984  0.0203 -1.1899  1.1170
 4649TIP3    H235363   4.632   0.991   2.953 -0.2779 -0.8605 -0.1373
 4650TIP3   OH235364   6.188   1.797  11.190  0.1796 -0.5494 -0.3810
 4650TIP3    H135365   6.246   1.835  11.256  0.8490 -2.0330 -0.0702
 4650TIP3    H235366   6.227   1.822  11.106 -0.6372  1.2910 -0.2680
 4651TIP3   OH235367   2.739   6.311   0.725 -0.2497  1.0035  0.1729
 4651TIP3    H135368   2.663   6.367   0.714  0.9509  2.8124  0.6656
 4651TIP3    H235369   2.810   6.359   0.683  0.6715 -0.5588 -0.1304
 4652TIP3   OH235370   2.022   0.984   6.513  0.4405 -0.3379 -0.5159
 4652TIP3    H135371   2.051   0.935   6.590  1.5577 -0.4536 -0.9912
 4652TIP3    H235372   1.970   0.921   6.462  0.5142 -0.5489 -0.3319
 4653TIP3   OH235373   4.847   4.080  11.228  0.3102  0.2893 -0.0007
 4653TIP3    H135374   4.885   4.112  11.146 -0.7414 -1.9634 -1.4726
 4653TIP3    H235375   4.864   3.986  11.228 -1.0376 -0.0134  1.6141
 4654TIP3   OH235376   6.584   6.771  12.818 -0.2109 -0.3569 -0.7108
 4654TIP3    H135377   6.616   6.857  12.845 -0.1057 -0.7861  0.5832
 4654TIP3    H235378   6.493   6.787  12.792 -0.1354  0.1719 -0.6591
 4655TIP3   OH235379   1.455   6.191  15.915 -0.0218  0.2044  0.9472
 4655TIP3    H135380   1.467   6.270  15.967  1.0455  0.2136  0.7108
 4655TIP3    H235381   1.489   6.121  15.970  1.6213  0.2789  0.1080
 4656TIP3   OH235382   6.415   6.389  10.874 -0.1033 -0.2279  0.2671
 4656TIP3    H135383   6.487   6.333  10.847  0.9107  0.4626  1.4604
 4656TIP3    H235384   6.450   6.440  10.946 -1.9386 -0.2083  1.1900
 4657TIP3   OH235385   3.591   0.049  13.727 -0.1042 -0.1020 -0.3149
 4657TIP3    H135386   3.507   0.095  13.716  0.1243  0.2343 -0.6846
 4657TIP3    H235387   3.569  -0.029  13.777 -0.5073  0.4077  0.3259
 4658TIP3   OH235388   6.087   5.792  15.976  0.1395 -0.6817  0.1828
 4658TIP3    H135389   6.031   5.723  15.940  0.2451 -0.5131 -0.3191
 4658TIP3    H235390   6.029   5.868  15.983  0.2045 -0.6210  0.0544
 4659TIP3   OH235391   2.005   3.749  16.059  0.0925  0.8586 -0.0890
 4659TIP3    H135392   2.048   3.823  16.016 -0.8416  2.0912  1.0098
 4659TIP3    H235393   1.992   3.779  16.149 -2.5578  0.3595 -0.2433
 4660TIP3   OH235394   0.796   5.818  14.414  0.6281  0.0672  0.0039
 4660TIP3    H135395   0.845   5.883  14.466 -2.0077  0.8983  1.6834
 4660TIP3    H235396   0.814   5.735  14.457  0.8936  0.2908  0.3333
 4661TIP3   OH235397   1.113   5.630   2.653  0.0313  0.3023  0.0143
 4661TIP3    H135398   1.183   5.566   2.641  0.9709  1.0236  1.4310
 4661TIP3    H235399   1.130   5.697   2.587  0.5815  0.4015  0.2584
 4662TIP3   OH235400   2.008   2.528   0.443  0.2762 -0.4074  0.5459
 4662TIP3    H135401   2.001   2.562   0.532 -2.6172  1.7804 -0.3494
 4662TIP3    H235402   1.932   2.470   0.433 -0.8438  1.2033 -1.0858
 4663TIP3   OH235403   6.789   0.278   3.066  0.8322  0.0023 -0.0512
 4663TIP3    H135404   6.835   0.216   3.122  0.1065 -0.3917  0.1087
 4663TIP3    H235405   6.698   0.250   3.068  0.9157 -0.5519 -2.1171
 4664TIP3   OH235406   2.732   1.185  16.292  0.1205 -0.1274  0.1952
 4664TIP3    H135407   2.691   1.232  16.220 -0.1186 -1.1761 -0.3655
 4664TIP3    H235408   2.753   1.253  16.357 -2.8114  0.4292  0.6753
 4665TIP3   OH235409   3.796   1.238  11.052 -0.3262 -0.3914 -0.5207
 4665TIP3    H135410   3.829   1.295  10.982  1.1674 -0.3644  0.1637
 4665TIP3    H235411   3.861   1.168  11.058  0.2278  0.2454  1.6229
 4666TIP3   OH235412   4.209   4.532  14.102  0.9539  0.4862  0.2818
 4666TIP3    H135413   4.167   4.446  14.103 -0.8646  1.3318  1.2120
 4666TIP3    H235414   4.270   4.529  14.176  1.4576 -0.2436 -0.1485
 4667TIP3   OH235415   3.058   2.958  17.012  0.0944 -0.1053  0.1301
 4667TIP3    H135416   3.006   2.879  16.997 -2.0302  1.4043 -0.8608
 4667TIP3    H235417   3.085   2.987  16.925 -1.1763  1.5385  0.2394
 4668TIP3   OH235418   3.990   1.220  11.392 -0.8862  0.1277 -0.0316
 4668TIP3    H135419   3.964   1.146  11.448  1.9355 -0.2697  0.9652
 4668TIP3    H235420   4.021   1.179  11.311  0.7310  0.1360  0.5422
 4669TIP3   OH235421   1.744   2.326   3.360  0.0536  0.4534 -0.1681
 4669TIP3    H135422   1.717   2.285   3.443  0.0073 -0.5379 -0.6589
 4669TIP3    H235423   1.788   2.256   3.312 -0.0053  0.9931 -1.0272
 4670TIP3   OH235424   5.599   4.620  10.346  0.4938 -0.3262  0.1089
 4670TIP3    H135425   5.613   4.646  10.254  0.3175  1.8777  0.6476
 4670TIP3    H235426   5.671   4.559  10.364  0.0355 -1.4840 -1.7220
 4671TIP3   OH235427   2.707   1.832  12.959 -0.0089  0.1460 -0.0388
 4671TIP3    H135428   2.666   1.918  12.957  0.0434  0.1701 -0.1238
 4671TIP3    H235429   2.635   1.770  12.969 -0.0408  0.2033  0.0870
 4672TIP3   OH235430   0.212   3.309  14.694  0.1855 -0.2987 -0.0442
 4672TIP3    H135431   0.301   3.282  14.717 -0.3014 -1.0958  0.9925
 4672TIP3    H235432   0.201   3.393  14.739  0.4859 -0.0941 -0.3496
 4673TIP3   OH235433   6.498   6.356   4.647  0.0354 -0.1238  0.7788
 4673TIP3    H135434   6.438   6.284   4.665  1.3507 -1.0765  1.5783
 4673TIP3    H235435   6.442   6.432   4.633 -1.3683 -1.1714  0.5491
 4674TIP3   OH235436   2.495   0.287   1.356  0.1851 -0.4380  0.6852
 4674TIP3    H135437   2.571   0.263   1.303  0.5677  0.4419  0.8142
 4674TIP3    H235438   2.448   0.205   1.368 -0.6855 -0.4674 -2.1732
 4675TIP3   OH235439   0.880   3.526   4.778 -0.3070  0.9436 -0.0568
 4675TIP3    H135440   0.938   3.477   4.719 -2.6994  0.5636 -2.2635
 4675TIP3    H235441   0.939   3.583   4.827  2.1886 -1.2885 -0.1891
 4676TIP3   OH235442   4.821   1.030  15.799  0.1871 -0.7376 -0.2968
 4676TIP3    H135443   4.854   0.956  15.849 -0.2084 -0.4476  0.4041
 4676TIP3    H235444   4.770   0.989  15.728 -2.0091 -1.1544  1.4311
 4677TIP3   OH235445   3.923   5.355   4.828  0.3432 -0.3840  0.0491
 4677TIP3    H135446   3.836   5.394   4.835 -0.2468 -1.6971  0.4323
 4677TIP3    H235447   3.928   5.325   4.737  1.3666  1.7865 -0.6689
 4678TIP3   OH235448   6.450   3.009   5.101 -0.8287 -0.9327 -0.2755
 4678TIP3    H135449   6.513   3.020   5.030 -0.5707 -0.0516  0.0751
 4678TIP3    H235450   6.493   3.047   5.178 -1.5013 -0.9648  0.1252
 4679TIP3   OH235451   0.003   5.337  10.359  0.0764  0.0771  0.3411
 4679TIP3    H135452   0.071   5.367  10.420 -0.6985 -1.3026  1.9425
 4679TIP3    H235453   0.050   5.279  10.299  0.4533 -0.3581  1.0380
 4680TIP3   OH235454   5.630   4.430  11.460  0.0375  0.7177  0.0206
 4680TIP3    H135455   5.648   4.375  11.536 -0.9903  1.2182  0.6445
 4680TIP3    H235456   5.650   4.519  11.490 -0.3505  0.9143 -0.2924
 4681TIP3   OH235457   5.379   5.534   5.735 -0.1149  0.0346 -0.6883
 4681TIP3    H135458   5.474   5.526   5.732 -0.0673  0.5556 -0.6543
 4681TIP3    H235459   5.347   5.474   5.667  0.2069 -0.5752 -0.3132
 4682TIP3   OH235460   1.026   2.940  16.715 -0.0470  0.7922 -0.4599
 4682TIP3    H135461   0.991   2.888  16.788 -0.8257  0.2613 -1.1881
 4682TIP3    H235462   1.076   3.010  16.757  0.5208 -0.1996  0.5549
 4683TIP3   OH235463   4.258   6.368   4.919 -0.2395 -0.0722  0.2585
 4683TIP3    H135464   4.226   6.440   4.974  0.0826 -1.0295  1.7600
 4683TIP3    H235465   4.296   6.411   4.843  0.0343  1.3572  1.1675
 4684TIP3   OH235466   1.084   4.001  15.569  0.0455  0.5719 -0.4066
 4684TIP3    H135467   1.133   4.081  15.554  0.3911  0.6982  1.2173
 4684TIP3    H235468   1.118   3.967  15.653 -1.6191 -0.0978  0.0391
 4685TIP3   OH235469   0.830   1.817   1.308 -0.7176  0.2958  0.5191
 4685TIP3    H135470   0.827   1.747   1.243 -0.9995  1.2597 -0.5463
 4685TIP3    H235471   0.915   1.806   1.351  0.1685  0.5519 -1.0852
 4686TIP3   OH235472   3.982   2.861   2.834  0.2225  0.4852 -0.3889
 4686TIP3    H135473   3.903   2.825   2.875  0.7451 -0.5772 -0.3037
 4686TIP3    H235474   3.967   2.956   2.835  0.0214  0.4827  1.8406
 4687TIP3   OH235475   1.306   5.921  13.517  0.2773 -0.1393 -0.7513
 4687TIP3    H135476   1.236   5.979  13.486 -0.5112  0.2530  1.5808
 4687TIP3    H235477   1.386   5.958  13.482 -0.5114  0.3941 -2.0621
 4688TIP3   OH235478   3.642   5.875   0.221  0.4505 -0.4619 -0.3499
 4688TIP3    H135479   3.578   5.942   0.197 -0.2600 -0.8395  0.4380
 4688TIP3    H235480   3.644   5.817   0.144  1.6759  0.8647 -1.3758
 4689TIP3   OH235481   5.745   2.080   2.427 -0.0225  0.1980  0.4637
 4689TIP3    H135482   5.823   2.122   2.464 -0.1194  0.4279  0.4065
 4689TIP3    H235483   5.688   2.153   2.402  1.0987  0.1846 -2.4921
 4690TIP3   OH235484   1.032   2.362  10.370  0.0445  0.5169 -0.0944
 4690TIP3    H135485   1.003   2.429  10.308  0.1965  0.7001  0.0285
 4690TIP3    H235486   0.955   2.345  10.425 -0.5552 -0.7413 -1.2668
 4691TIP3   OH235487   3.942   5.984   6.390 -0.1299 -0.2263 -0.1663
 4691TIP3    H135488   4.027   5.939   6.390  1.4493  2.5259  0.4223
 4691TIP3    H235489   3.915   5.986   6.299 -1.7768 -4.7378 -0.0247
 4692TIP3   OH235490   6.365   5.270  10.809  0.2572  0.2739 -0.1285
 4692TIP3    H135491   6.315   5.189  10.821 -0.4096  0.5427 -0.9403
 4692TIP3    H235492   6.298   5.337  10.797  0.8102  0.8836  0.1590
 4693TIP3   OH235493   4.237   6.629   3.029 -0.4268 -0.2335  0.3661
 4693TIP3    H135494   4.166   6.577   3.065 -0.3327 -0.3531  0.3797
 4693TIP3    H235495   4.311   6.569   3.024 -1.2547 -1.1868 -3.0413
 4694TIP3   OH235496   0.608   4.126  13.708 -0.7243 -0.0747  0.1354
 4694TIP3    H135497   0.581   4.216  13.689  0.0316  0.0216 -0.5246
 4694TIP3    H235498   0.572   4.109  13.795 -0.0427  1.2136  0.7099
 4695TIP3   OH235499   1.641   5.391   1.351 -0.2216  0.5622  0.2749
 4695TIP3    H135500   1.725   5.352   1.374 -1.1251 -0.7889  1.5338
 4695TIP3    H235501   1.661   5.457   1.285  1.8362  0.4626  0.7530
 4696TIP3   OH235502   2.402   2.215   3.190  0.1896 -0.0043  1.0683
 4696TIP3    H135503   2.417   2.133   3.236 -0.4634  0.1799  1.6342
 4696TIP3    H235504   2.335   2.259   3.242 -0.9608 -0.0196 -0.3542
 4697TIP3   OH235505   6.350   1.742  13.295  0.4693  0.1955  0.0834
 4697TIP3    H135506   6.280   1.689  13.332  0.3598 -0.0514 -0.4826
 4697TIP3    H235507   6.335   1.830  13.332  0.5720 -0.1227  0.9071
 4698TIP3   OH235508   0.668   6.319  11.888 -0.0298  0.3351 -0.7252
 4698TIP3    H135509   0.759   6.292  11.884  0.0542  0.6109 -0.6836
 4698TIP3    H235510   0.660   6.388  11.822  0.0002  0.9130 -0.1319
 4699TIP3   OH235511   3.342   0.570   3.291  0.2560  0.1132 -0.5239
 4699TIP3    H135512   3.420   0.571   3.347 -0.6895  0.2232  0.8397
 4699TIP3    H235513   3.366   0.512   3.218  0.6872 -2.1660  1.3088
 4700TIP3   OH235514   2.008   5.887   2.289 -0.3480 -0.6361  0.9194
 4700TIP3    H135515   1.976   5.949   2.224  0.1804 -0.7009  0.5941
 4700TIP3    H235516   2.078   5.839   2.244 -2.5484 -3.4322  0.1670
 4701TIP3   OH235517   1.561   0.909  13.073  0.2915 -0.2117  0.1796
 4701TIP3    H135518   1.540   0.861  12.993  0.3039 -0.7096  0.4707
 4701TIP3    H235519   1.551   1.002  13.049 -2.7375 -0.3670  0.3916
 4702TIP3   OH235520   6.751   1.066  12.108  0.2810  0.3555 -0.2178
 4702TIP3    H135521   6.808   1.111  12.169  0.8159 -1.1824  0.4805
 4702TIP3    H235522   6.667   1.061  12.152  0.5691 -0.4286  0.2700
 4703TIP3   OH235523   2.221   4.897  13.876 -0.3442 -0.4536 -0.6442
 4703TIP3    H135524   2.257   4.852  13.799 -1.2056 -1.7184 -0.3457
 4703TIP3    H235525   2.288   4.961  13.900  1.2378 -1.9957 -0.7367
 4704TIP3   OH235526   5.561   1.909  15.799  0.8046  0.3477  0.4369
 4704TIP3    H135527   5.650   1.911  15.834  0.6768 -0.8228  0.9004
 4704TIP3    H235528   5.508   1.875  15.872  0.4619 -1.8041 -0.7160
 4705TIP3   OH235529   3.777   0.798  13.954 -1.0641 -0.5841 -1.1483
 4705TIP3    H135530   3.770   0.889  13.929  0.4043 -0.3531 -0.8181
 4705TIP3    H235531   3.723   0.790  14.033  1.3409  0.8171  0.7487
 4706TIP3   OH235532   2.095   5.730   0.532 -0.0904  0.0680  0.2401
 4706TIP3    H135533   2.123   5.820   0.516 -0.8520  0.2091 -0.3750
 4706TIP3    H235534   2.171   5.676   0.508 -0.3141  0.4341 -1.4082
 4707TIP3   OH235535   0.520   5.351   4.102 -0.4718  0.0655  0.7700
 4707TIP3    H135536   0.483   5.285   4.043  1.4869 -1.5051  1.1859
 4707TIP3    H235537   0.522   5.431   4.050  0.6236 -1.1255 -1.1466
 4708TIP3   OH235538   6.657   0.795  12.023  0.4505  0.1964  0.1079
 4708TIP3    H135539   6.663   0.890  12.024 -0.0951  0.2555 -0.8815
 4708TIP3    H235540   6.723   0.768  11.959  0.5797 -0.0944  0.3600
 4709TIP3   OH235541   5.078   2.841  13.427 -0.4027  0.5731 -0.3787
 4709TIP3    H135542   5.160   2.882  13.453 -0.0004 -0.3270 -0.2240
 4709TIP3    H235543   5.015   2.914  13.425  0.0812  1.0441  0.8154
 4710TIP3   OH235544   1.214   3.148  13.078  0.2685  0.5023 -0.4280
 4710TIP3    H135545   1.166   3.218  13.123  3.3436  1.8898  1.0152
 4710TIP3    H235546   1.250   3.191  13.000 -0.3600 -0.3737 -1.2249
 4711TIP3   OH235547   5.410   0.070   2.850  0.0278  0.6050 -0.2070
 4711TIP3    H135548   5.413   0.126   2.928  1.1795 -0.9121  0.8868
 4711TIP3    H235549   5.486   0.097   2.798  0.1978  0.5026 -0.0098
 4712TIP3   OH235550   2.600   3.474   3.328  0.2700 -1.0486 -0.3855
 4712TIP3    H135551   2.619   3.544   3.265 -0.9329 -0.3686 -0.0214
 4712TIP3    H235552   2.646   3.398   3.293  0.9077 -0.2977 -1.2467
 4713TIP3   OH235553   2.671   3.801   5.780  0.2419 -0.6886  0.2828
 4713TIP3    H135554   2.695   3.828   5.869  3.7952 -0.9688 -0.4534
 4713TIP3    H235555   2.658   3.884   5.733  0.5455 -0.4943  0.5354
 4714TIP3   OH235556   6.538   1.972   1.171 -0.0751  0.0575  0.2042
 4714TIP3    H135557   6.549   1.952   1.078  0.0626  0.0344  0.2249
 4714TIP3    H235558   6.598   2.044   1.188 -0.7187  0.6336  0.0863
 4715TIP3   OH235559   0.572   3.888   3.699  0.5512 -0.3895 -0.1945
 4715TIP3    H135560   0.520   3.842   3.633  1.4550 -0.5087 -0.8572
 4715TIP3    H235561   0.527   3.972   3.711  1.4914  0.5529 -2.5922
 4716TIP3   OH235562   3.693   2.798   2.355  0.2329  0.6250 -0.2851
 4716TIP3    H135563   3.740   2.857   2.414 -0.0047  1.3526 -0.8130
 4716TIP3    H235564   3.604   2.833   2.352 -0.0784 -0.1312 -0.1191
 4717TIP3   OH235565   0.174   3.464  15.709 -0.2040  0.1313  0.6136
 4717TIP3    H135566   0.181   3.557  15.688 -1.4278 -0.0969 -1.0144
 4717TIP3    H235567   0.192   3.420  15.626 -1.1598 -1.0267  0.9893
 4718TIP3   OH235568   0.994   0.999   5.508 -0.0002 -0.6110  0.6517
 4718TIP3    H135569   1.083   1.005   5.542  0.7914  1.3980 -1.5156
 4718TIP3    H235570   0.996   0.923   5.450 -0.2920 -1.7062  2.0098
 4719TIP3   OH235571   4.790   3.622   2.757  0.3399  0.0740 -0.6214
 4719TIP3    H135572   4.747   3.541   2.784  0.4280 -0.1472 -1.1280
 4719TIP3    H235573   4.813   3.666   2.838 -0.0470 -0.2324 -0.3444
 4720TIP3   OH235574   3.459   5.655   0.298 -0.3692  0.6559  0.1839
 4720TIP3    H135575   3.505   5.650   0.214  1.4291 -1.6432  1.1870
 4720TIP3    H235576   3.501   5.727   0.344 -0.4593  1.0741 -0.3854
 4721TIP3   OH235577   6.309   3.200  12.302  0.3627  0.0573 -0.6571
 4721TIP3    H135578   6.340   3.173  12.216 -0.2068 -0.7726 -0.6027
 4721TIP3    H235579   6.385   3.187  12.360  0.5671  0.0804 -0.9199
 4722TIP3   OH235580   2.599   2.463   5.456  0.2776  0.0321  0.5396
 4722TIP3    H135581   2.534   2.413   5.506 -1.7119  1.1019 -0.8436
 4722TIP3    H235582   2.682   2.420   5.476 -0.8502 -1.5437  2.2160
 4723TIP3   OH235583   6.429   6.230  13.280 -0.5778  0.1317  0.1792
 4723TIP3    H135584   6.375   6.283  13.339  0.9816  0.1961  1.6310
 4723TIP3    H235585   6.504   6.286  13.260  0.1469 -0.8172  0.1663
 4724TIP3   OH235586   3.261   3.529  14.728  0.0105  0.1540  0.3948
 4724TIP3    H135587   3.352   3.524  14.756 -0.1095 -1.5488  0.6338
 4724TIP3    H235588   3.242   3.622  14.722  2.0659  0.5522 -0.6868
 4725TIP3   OH235589   3.080   6.655  15.232 -0.5808 -0.6015  0.0155
 4725TIP3    H135590   3.132   6.729  15.201 -0.6284 -0.7304 -0.3806
 4725TIP3    H235591   3.126   6.625  15.310 -0.9896  0.3214  0.6304
 4726TIP3   OH235592   6.184   5.339   1.738 -0.2523  0.5636  0.0507
 4726TIP3    H135593   6.112   5.301   1.689  0.4841  0.1313 -0.7249
 4726TIP3    H235594   6.160   5.431   1.749 -0.9696  0.3982 -0.0912
 4727TIP3   OH235595   6.661   3.449  14.783 -0.0137  0.0809  0.3295
 4727TIP3    H135596   6.567   3.468  14.772  0.1154 -0.2128 -1.5019
 4727TIP3    H235597   6.663   3.360  14.819 -0.4420 -1.2321 -2.6638
 4728TIP3   OH235598   5.222   5.326   2.752 -0.0610  0.5294 -0.1424
 4728TIP3    H135599   5.163   5.395   2.782 -0.5156 -0.0308  0.2889
 4728TIP3    H235600   5.174   5.245   2.768  0.7750  0.0645  0.0883
 4729TIP3   OH235601   5.440   0.875   5.467  0.3577 -0.2068  0.1656
 4729TIP3    H135602   5.375   0.853   5.401  0.2489 -0.4673  0.3579
 4729TIP3    H235603   5.513   0.816   5.448  0.5474  0.0984 -0.0621
 4730TIP3   OH235604   1.625   6.222   2.143 -0.7188  0.2783 -0.3653
 4730TIP3    H135605   1.634   6.316   2.128 -1.8749  0.5980  0.7047
 4730TIP3    H235606   1.553   6.195   2.085 -1.2845  0.3416  0.2926
 4731TIP3   OH235607   5.349   4.371   3.488 -0.1006  0.0953  0.6445
 4731TIP3    H135608   5.258   4.387   3.513 -0.8339 -1.5569 -0.7388
 4731TIP3    H235609   5.364   4.280   3.511  0.7651 -0.0298 -0.3519
 4732TIP3   OH235610   4.279   0.289  14.239  0.1598  0.0874  0.2411
 4732TIP3    H135611   4.349   0.276  14.176 -1.4307 -0.0260 -1.6233
 4732TIP3    H235612   4.254   0.201  14.266 -0.1402  0.0445 -0.1583
 4733TIP3   OH235613   5.390   3.163   4.591  0.1898  0.3625  0.7799
 4733TIP3    H135614   5.376   3.246   4.544 -1.3516  0.1334  0.7770
 4733TIP3    H235615   5.362   3.181   4.681 -0.5551 -0.2495  0.6831
 4734TIP3   OH235616   6.603   5.302  10.618 -0.7395  0.1557  0.2849
 4734TIP3    H135617   6.697   5.305  10.601 -0.3901 -1.0948  1.8261
 4734TIP3    H235618   6.585   5.211  10.640 -2.0442  0.6772  1.5345
 4735TIP3   OH235619   2.170   1.276   0.716 -0.1123  0.8966  0.2666
 4735TIP3    H135620   2.232   1.250   0.648  1.3635  1.6287  1.2678
 4735TIP3    H235621   2.084   1.261   0.677  0.6780 -0.1799 -1.1660
 4736TIP3   OH235622   3.952   1.431   2.102 -0.0619  0.6580 -0.4274
 4736TIP3    H135623   3.925   1.522   2.097  0.3506  0.7021 -2.8968
 4736TIP3    H235624   4.044   1.431   2.075  0.0479 -0.4656 -0.1247
 4737TIP3   OH235625   5.881   1.642  15.807  0.7597 -0.1377  0.1959
 4737TIP3    H135626   5.934   1.684  15.875  0.3292 -0.9408  1.0316
 4737TIP3    H235627   5.884   1.704  15.734 -0.6841  1.8562  1.7258
 4738TIP3   OH235628   4.533   4.844  16.411  0.1744  0.0008 -0.2646
 4738TIP3    H135629   4.553   4.811  16.498 -4.1458  1.6080  1.5970
 4738TIP3    H235630   4.479   4.776  16.371  0.9835 -0.1267 -1.1942
 4739TIP3   OH235631   0.588   4.233  14.654 -0.0141  0.0189  0.0424
 4739TIP3    H135632   0.563   4.299  14.719  1.4712 -0.0945  0.7716
 4739TIP3    H235633   0.543   4.261  14.574 -1.0066  0.7819  0.8243
 4740TIP3   OH235634   2.869   4.826   0.253 -0.2826 -0.5566 -0.2262
 4740TIP3    H135635   2.920   4.832   0.172 -1.8310  2.0399 -1.1334
 4740TIP3    H235636   2.927   4.863   0.320 -0.3197  0.8047 -0.9147
 4741TIP3   OH235637   4.735   1.750  13.120 -0.1749  0.1647 -0.3682
 4741TIP3    H135638   4.758   1.832  13.164  0.3206  0.4172 -1.0644
 4741TIP3    H235639   4.732   1.774  13.027  1.2394 -0.8577 -0.7126
 4742TIP3   OH235640   2.451   1.081   5.854  0.5099  0.7348 -0.2900
 4742TIP3    H135641   2.377   1.102   5.796  1.5895  2.9253 -0.9812
 4742TIP3    H235642   2.461   0.986   5.847 -1.6427  0.5066 -0.8907
 4743TIP3   OH235643   1.078   3.275   2.571  0.1814 -0.7333  0.0821
 4743TIP3    H135644   1.094   3.276   2.665  1.7820  1.9471 -0.1053
 4743TIP3    H235645   0.985   3.297   2.562  0.4160  0.7746  1.0581
 4744TIP3   OH235646   6.352   4.019   6.346 -0.0807 -0.4663 -0.5650
 4744TIP3    H135647   6.447   4.015   6.332 -0.0686 -3.2014 -0.1545
 4744TIP3    H235648   6.316   3.951   6.289 -1.7962  0.2292 -0.3879
 4745TIP3   OH235649   3.365   2.556  10.906 -0.3715 -0.1686  0.2518
 4745TIP3    H135650   3.375   2.466  10.937 -1.8578 -0.2205  0.6613
 4745TIP3    H235651   3.365   2.548  10.810  2.9682 -0.1517  0.1536
 4746TIP3   OH235652   2.754   2.107  11.587 -0.1439 -0.3535  0.4486
 4746TIP3    H135653   2.690   2.122  11.518 -2.1872 -0.0827  2.2673
 4746TIP3    H235654   2.754   2.188  11.638  0.3594 -0.9751  1.4736
 4747TIP3   OH235655   5.253   0.732   4.521  0.6529  0.1459 -0.5796
 4747TIP3    H135656   5.320   0.784   4.477  0.3051  0.8737 -0.2723
 4747TIP3    H235657   5.218   0.790   4.589  0.2945 -0.5146 -0.1834
 4748TIP3   OH235658   4.218   1.602  15.400 -0.0120 -0.0375 -0.3375
 4748TIP3    H135659   4.176   1.575  15.318  1.0101 -0.1575 -0.8339
 4748TIP3    H235660   4.257   1.521  15.434 -0.3724  0.0274  0.2448
 4749TIP3   OH235661   6.560   6.638  12.067  0.5931  0.0539  0.6139
 4749TIP3    H135662   6.475   6.681  12.075  0.0960 -1.0421  1.5885
 4749TIP3    H235663   6.612   6.697  12.012 -1.5227 -0.3462 -2.0391
 4750TIP3   OH235664   0.365   3.771  16.881  0.5245  0.7978 -0.1474
 4750TIP3    H135665   0.332   3.834  16.816 -1.7572 -1.8538 -1.8175
 4750TIP3    H235666   0.434   3.723  16.835 -1.7295 -1.7227 -1.1645
 4751TIP3   OH235667   3.062   1.461  11.994  0.2007 -0.2963 -0.3889
 4751TIP3    H135668   3.157   1.455  11.991  0.2910 -0.2291  1.3292
 4751TIP3    H235669   3.031   1.380  11.953  0.9916 -0.2958 -0.9993
 4752TIP3   OH235670   0.702   0.735   0.842 -0.2114 -0.2403 -0.6022
 4752TIP3    H135671   0.620   0.685   0.841  0.3809 -1.2225 -0.8892
 4752TIP3    H235672   0.697   0.792   0.765 -1.8116  1.7170  0.8333
 4753TIP3   OH235673   2.265   5.240  13.316 -0.0624 -0.4809 -0.4030
 4753TIP3    H135674   2.170   5.233  13.310 -0.0007 -0.8223 -1.1809
 4753TIP3    H235675   2.291   5.281  13.233  0.3907  0.5159  0.2165
 4754TIP3   OH235676   4.846   1.524  12.790 -0.0339  0.1509 -0.1679
 4754TIP3    H135677   4.885   1.561  12.869  1.5042 -2.9710  0.6903
 4754TIP3    H235678   4.769   1.476  12.822  0.7994 -1.4251 -0.4323
 4755TIP3   OH235679   0.882   5.285  14.105  0.5077 -0.4124 -0.2762
 4755TIP3    H135680   0.872   5.191  14.087 -0.9867 -0.4182  0.4530
 4755TIP3    H235681   0.885   5.290  14.201 -1.1537  0.4223 -0.2432
 4756TIP3   OH235682   2.814   4.655  13.088  0.1667 -0.0090 -0.2979
 4756TIP3    H135683   2.890   4.600  13.106 -0.8612 -0.7496  2.2782
 4756TIP3    H235684   2.809   4.659  12.993  1.2913 -3.0047 -0.5842
 4757TIP3   OH235685   5.197   0.656   5.558 -0.3301  0.2744 -0.1437
 4757TIP3    H135686   5.187   0.621   5.647  3.8886 -0.3166  0.3243
 4757TIP3    H235687   5.220   0.748   5.571 -0.4047  0.3648 -0.6527
 4758TIP3   OH235688   6.128   2.804   5.487 -0.4029 -0.1921 -0.6902
 4758TIP3    H135689   6.126   2.820   5.393 -1.2731 -2.7115 -1.1880
 4758TIP3    H235690   6.119   2.709   5.495  0.5382 -0.1392  1.9238
 4759TIP3   OH235691   3.337   6.282   5.809 -0.5294 -0.1409  0.1591
 4759TIP3    H135692   3.269   6.215   5.807  1.2759 -2.0412 -1.7775
 4759TIP3    H235693   3.409   6.243   5.860  1.3766 -0.6658 -2.7216
 4760TIP3   OH235694   6.133   1.016   0.022  0.0296 -0.1289 -0.2256
 4760TIP3    H135695   6.173   0.934  -0.009 -0.5869 -0.7302  0.5183
 4760TIP3    H235696   6.206   1.076   0.034  0.6206 -0.9325  0.2986
 4761TIP3   OH235697   3.035   5.550   1.780 -0.0857  0.2282 -0.2902
 4761TIP3    H135698   3.055   5.634   1.821 -1.2906  0.4231 -0.0586
 4761TIP3    H235699   2.998   5.497   1.850  0.9787 -0.6376 -0.3562
 4762TIP3   OH235700   2.601   3.478   3.690 -0.3093  0.0608 -0.1213
 4762TIP3    H135701   2.647   3.518   3.764 -0.7385 -1.4341  0.9962
 4762TIP3    H235702   2.670   3.445   3.633  0.0272  1.2475 -0.4421
 4763TIP3   OH235703   6.128   0.432   1.764  0.0832  0.0506 -0.1271
 4763TIP3    H135704   6.170   0.372   1.702  0.7684  0.4239 -0.0412
 4763TIP3    H235705   6.065   0.378   1.811 -0.3509 -0.2641 -1.0575
 4764TIP3   OH235706   5.654   1.822  14.159 -0.5327 -0.1301 -0.2851
 4764TIP3    H135707   5.648   1.904  14.109  1.4589 -0.6994 -1.5532
 4764TIP3    H235708   5.572   1.819  14.209 -1.2404  1.9794 -1.1871
 4765TIP3   OH235709   2.735   6.309  13.036  0.2469 -0.4173 -0.0970
 4765TIP3    H135710   2.780   6.386  13.001 -1.5076  1.1221  0.8251
 4765TIP3    H235711   2.804   6.255  13.072  1.7973 -0.4843 -2.8735
 4766TIP3   OH235712   6.139   5.261  15.368 -0.2220  0.2904  0.4081
 4766TIP3    H135713   6.046   5.282  15.376 -0.4203 -0.3472 -0.1156
 4766TIP3    H235714   6.184   5.343  15.389 -0.9845  1.4914 -2.2199
 4767TIP3   OH235715   5.196   5.527  13.760 -0.0769 -0.1082 -0.5374
 4767TIP3    H135716   5.104   5.544  13.782  0.2681  0.5259  0.4990
 4767TIP3    H235717   5.198   5.434  13.737 -0.7228 -0.5299  0.9637
 4768TIP3   OH235718   0.331   1.525   2.583  0.1200  0.3344  0.2240
 4768TIP3    H135719   0.285   1.473   2.517  1.8328 -0.4447 -0.4029
 4768TIP3    H235720   0.412   1.478   2.599  0.3425  1.2068  1.9534
 4769TIP3   OH235721   1.119   1.721   1.286 -0.3055  0.0534 -0.2466
 4769TIP3    H135722   1.177   1.778   1.236 -1.5865  0.4117 -1.3984
 4769TIP3    H235723   1.088   1.656   1.222 -0.5211 -0.6422  0.5417
 4770TIP3   OH235724   0.803   6.646   5.577  0.6442 -0.1180 -0.0938
 4770TIP3    H135725   0.876   6.589   5.555 -0.0353 -0.5064 -1.4421
 4770TIP3    H235726   0.792   6.636   5.672  3.4626  1.3303  0.4922
 4771TIP3   OH235727   2.057   6.069   3.231 -0.0103  0.1288  0.1510
 4771TIP3    H135728   2.112   6.142   3.259  0.1195 -0.5434  1.7795
 4771TIP3    H235729   2.105   5.991   3.260 -0.8658 -0.5490 -0.2015
 4772TIP3   OH235730   2.126   1.687   3.123  0.2063  0.0004  0.0062
 4772TIP3    H135731   2.139   1.677   3.217  0.2209  0.4482  0.0527
 4772TIP3    H235732   2.179   1.763   3.099 -1.8461  1.5625  0.1204
 4773TIP3   OH235733   6.169   2.483  16.118  0.1292 -0.1174 -0.5098
 4773TIP3    H135734   6.153   2.528  16.035 -1.6406 -1.0973 -0.7448
 4773TIP3    H235735   6.123   2.400  16.109  0.8717 -0.7259  1.0313
 4774TIP3   OH235736   5.927   6.591  15.148 -0.9141 -0.2846  0.3986
 4774TIP3    H135737   5.875   6.660  15.107 -0.6876 -0.2756  0.1208
 4774TIP3    H235738   5.906   6.512  15.098 -1.0332 -0.3809  0.5990
 4775TIP3   OH235739   1.396   1.956  11.323 -0.8259  0.4812  0.2522
 4775TIP3    H135740   1.301   1.956  11.311 -0.8414 -0.0617  0.3784
 4775TIP3    H235741   1.410   2.006  11.404 -0.8487  2.4566 -0.8757
 4776TIP3   OH235742   2.189   4.727  16.815 -0.2852  0.2298 -0.3292
 4776TIP3    H135743   2.217   4.636  16.826 -2.8855 -0.7770 -1.2826
 4776TIP3    H235744   2.187   4.762  16.904  0.5559 -0.7094  0.0784
 4777TIP3   OH235745   5.709   4.220   3.131  0.2899 -0.7578  0.5622
 4777TIP3    H135746   5.698   4.292   3.069  2.0662 -1.4222 -0.5876
 4777TIP3    H235747   5.655   4.150   3.095  0.4222 -0.7734  0.3948
 4778TIP3   OH235748   2.763   4.763  14.464 -0.1934 -0.9778  0.3142
 4778TIP3    H135749   2.804   4.820  14.398  0.9452 -1.2912  0.7255
 4778TIP3    H235750   2.694   4.717  14.416 -0.7757  0.3231 -0.1587
 4779TIP3   OH235751   1.573   6.456  11.817 -0.2500 -0.0526 -0.1641
 4779TIP3    H135752   1.493   6.425  11.859  0.2219 -1.7415 -0.4410
 4779TIP3    H235753   1.637   6.460  11.888 -0.6588  1.7555  0.1509
 4780TIP3   OH235754   2.120   3.756   5.833  0.0587 -0.1960  0.3057
 4780TIP3    H135755   2.035   3.801   5.840 -1.3354 -2.5953  0.0525
 4780TIP3    H235756   2.099   3.665   5.852  2.8488 -0.6841  1.4395
 4781TIP3   OH235757   0.521   3.471   2.528  0.5657 -0.2491 -0.2940
 4781TIP3    H135758   0.597   3.429   2.489  1.5285  1.2486 -0.0867
 4781TIP3    H235759   0.534   3.565   2.514  0.2994  0.2840  2.4072
 4782TIP3   OH235760   6.529   5.972  15.151 -0.3551  0.6044 -0.4267
 4782TIP3    H135761   6.493   5.893  15.192 -0.1448  0.9598  0.4716
 4782TIP3    H235762   6.459   6.037  15.159  0.5429  1.4086  1.6656
 4783TIP3   OH235763   3.345   4.846   1.572 -0.3966 -0.2250 -0.4184
 4783TIP3    H135764   3.372   4.756   1.587  0.2184  0.2715  1.9265
 4783TIP3    H235765   3.423   4.898   1.594 -0.9022  0.9074 -1.2068
 4784TIP3   OH235766   4.010   4.557   2.820 -0.0936 -0.0550 -0.3919
 4784TIP3    H135767   4.003   4.648   2.793  0.6038  0.2670  0.4370
 4784TIP3    H235768   4.024   4.562   2.915  0.1544 -1.0115 -0.3694
 4785TIP3   OH235769   4.270   3.151  14.823 -0.1402  0.1029  0.0473
 4785TIP3    H135770   4.318   3.172  14.743 -1.5387  0.4660 -0.7370
 4785TIP3    H235771   4.314   3.200  14.892  0.4815  0.5795 -0.6800
 4786TIP3   OH235772   6.512   4.758  15.111 -0.6316 -0.1004 -0.3560
 4786TIP3    H135773   6.548   4.674  15.081 -2.2680 -0.3085 -1.9449
 4786TIP3    H235774   6.552   4.823  15.054 -0.9954 -0.0699 -0.5813
 4787TIP3   OH235775   2.878   5.756  13.482  0.6382 -0.0666  0.2336
 4787TIP3    H135776   2.786   5.765  13.504  0.5349  0.1969 -0.2943
 4787TIP3    H235777   2.901   5.667  13.511  0.5118  0.2650  1.3794
 4788TIP3   OH235778   1.564   6.499   4.622  0.4795 -0.3485 -0.3732
 4788TIP3    H135779   1.653   6.464   4.619  1.7355  2.1787  2.1208
 4788TIP3    H235780   1.520   6.448   4.690  0.4962 -0.6369 -0.5776
 4789TIP3   OH235781   2.978   3.339  16.632 -0.3251 -0.2171 -0.7255
 4789TIP3    H135782   2.981   3.350  16.537 -0.4712 -0.3964 -0.7502
 4789TIP3    H235783   2.911   3.272  16.647  0.7902 -1.3409 -0.6008
 4790TIP3   OH235784   3.062   2.554  11.542 -0.3493  0.4529  0.3838
 4790TIP3    H135785   2.972   2.585  11.530 -0.2060  2.2264  2.9936
 4790TIP3    H235786   3.055   2.459  11.534 -2.2106  0.6222 -0.7222
 4791TIP3   OH235787   4.257   6.773  12.400 -0.4240 -0.1824 -0.4067
 4791TIP3    H135788   4.277   6.722  12.321  0.7185 -0.0169 -0.2437
 4791TIP3    H235789   4.343   6.790  12.439 -0.7035  2.2195 -0.6943
 4792TIP3   OH235790   2.671   3.418   5.521 -0.2328  0.0947  0.3738
 4792TIP3    H135791   2.740   3.409   5.586  1.0614 -1.9762 -1.1275
 4792TIP3    H235792   2.649   3.511   5.521  3.3803  1.0940  0.1405
 4793TIP3   OH235793   5.934   5.782   2.551  0.8889 -0.8111  0.2156
 4793TIP3    H135794   6.029   5.792   2.551  0.9790 -1.4654  1.6954
 4793TIP3    H235795   5.918   5.707   2.493  1.1148  0.2707 -1.3126
 4794TIP3   OH235796   1.286   2.326   3.802  0.1255 -0.1257  0.4954
 4794TIP3    H135797   1.283   2.419   3.778 -0.4995 -0.5917 -1.4125
 4794TIP3    H235798   1.346   2.323   3.877  0.7002  1.7262  0.1680
 4795TIP3   OH235799   0.930   2.469  13.043  0.4180  0.0057  0.3353
 4795TIP3    H135800   1.004   2.415  13.016  0.5021 -0.1280  0.8264
 4795TIP3    H235801   0.918   2.531  12.971 -0.1837 -1.1568 -0.5959
 4796TIP3   OH235802   6.220   1.721   4.450  0.6979  0.4335  0.0464
 4796TIP3    H135803   6.258   1.784   4.511  1.3206 -2.0977  2.4852
 4796TIP3    H235804   6.145   1.684   4.498  1.5761 -2.0817 -0.3609
 4797TIP3   OH235805   4.930   6.173  13.938 -0.3586 -0.0762 -0.3822
 4797TIP3    H135806   4.995   6.177  14.008  1.3154 -2.6579 -1.6240
 4797TIP3    H235807   4.901   6.264  13.927  1.4481  0.8385  1.6677
 4798TIP3   OH235808   4.701   0.361   5.236  0.8557  0.1030  0.3295
 4798TIP3    H135809   4.643   0.359   5.160  0.1119 -1.9300  0.8738
 4798TIP3    H235810   4.693   0.450   5.271 -2.9525 -0.3964  1.0945
 4799TIP3   OH235811   3.871   3.427   0.108  0.7022 -0.6849  0.1049
 4799TIP3    H135812   3.963   3.438   0.086  0.3698  0.6749 -0.7665
 4799TIP3    H235813   3.824   3.471   0.037 -0.5428  0.8482  1.7663
 4800TIP3   OH235814   0.282   2.252  10.375  0.1948 -0.0422 -0.4403
 4800TIP3    H135815   0.239   2.199  10.307  0.6566 -1.1075  0.0788
 4800TIP3    H235816   0.260   2.342  10.352 -0.6381 -0.4505 -1.3347
 4801TIP3   OH235817   1.219   4.691   6.063  0.0513  0.3140 -0.3570
 4801TIP3    H135818   1.248   4.754   6.129  0.2247 -1.6526  1.5593
 4801TIP3    H235819   1.127   4.713   6.047  0.7053  2.4997 -1.5725
 4802TIP3   OH235820   0.481   4.685   0.453 -0.5060  0.5530  0.0044
 4802TIP3    H135821   0.555   4.738   0.483 -0.8888  0.6070  0.8951
 4802TIP3    H235822   0.411   4.705   0.515 -0.5486 -1.2563  0.5980
 4803TIP3   OH235823   4.349   0.875   2.892  0.4858  0.1781 -0.1143
 4803TIP3    H135824   4.432   0.858   2.937  1.1455  0.3153 -1.2265
 4803TIP3    H235825   4.282   0.841   2.950  1.3080  0.2915  0.9285
 4804TIP3   OH235826   2.813   5.327   5.596 -0.0929  0.0849 -0.9097
 4804TIP3    H135827   2.811   5.421   5.579 -0.5150  0.3196  0.3367
 4804TIP3    H235828   2.731   5.309   5.641  0.0051 -0.8769 -1.0986
 4805TIP3   OH235829   6.031   0.676   4.948 -0.1201  0.3046 -0.9291
 4805TIP3    H135830   6.052   0.584   4.929  2.1052  0.3463  0.9601
 4805TIP3    H235831   5.961   0.672   5.013  0.6382 -0.1018 -0.1240
 4806TIP3   OH235832   5.932   3.090   0.610 -0.4082 -0.1157  0.3386
 4806TIP3    H135833   5.892   3.087   0.523  1.1117 -0.5754 -0.3808
 4806TIP3    H235834   5.880   3.029   0.662 -0.6681 -0.6717 -0.5539
 4807TIP3   OH235835   5.071   2.311   4.427  0.0803  0.2338 -0.2428
 4807TIP3    H135836   5.047   2.377   4.492 -0.0349  0.7172 -0.7745
 4807TIP3    H235837   5.012   2.327   4.354 -0.7496 -1.1983  0.0764
 4808TIP3   OH235838   6.529   1.069   4.271  0.1093  0.1751  0.4841
 4808TIP3    H135839   6.483   0.985   4.260  1.7350 -0.7330  0.3490
 4808TIP3    H235840   6.533   1.081   4.366 -0.6324  0.3951  0.4906
 4809TIP3   OH235841   0.464   4.566  12.797  0.3116  0.6135 -0.2448
 4809TIP3    H135842   0.372   4.591  12.783  0.6256  0.7044 -2.5745
 4809TIP3    H235843   0.462   4.471  12.800 -0.0360  0.6399  1.5768
 4810TIP3   OH235844   4.094   1.697   2.633 -0.2100  0.0525  0.3202
 4810TIP3    H135845   4.118   1.698   2.726 -0.8818 -1.7678  0.5459
 4810TIP3    H235846   4.115   1.609   2.603 -0.8682  0.3262 -1.0277
 4811TIP3   OH235847   3.479   3.887   2.877 -0.2303 -0.0436  0.0363
 4811TIP3    H135848   3.455   3.853   2.791  0.8920  0.7076 -0.5944
 4811TIP3    H235849   3.415   3.955   2.895  1.2140  1.8529 -1.5669
 4812TIP3   OH235850   0.413   5.463   3.176  0.0811  0.9119 -0.8497
 4812TIP3    H135851   0.490   5.445   3.122 -0.6106 -0.8129 -1.3320
 4812TIP3    H235852   0.352   5.392   3.155 -0.7233  0.9141  1.2224
 4813TIP3   OH235853   5.293   1.883  15.969  0.6839 -0.1197 -0.5175
 4813TIP3    H135854   5.276   1.853  15.880 -0.6667  0.0655 -0.3422
 4813TIP3    H235855   5.236   1.828  16.024  1.7587 -0.4818  0.2812
 4814TIP3   OH235856   3.136   1.151  16.762  0.3843  0.4480 -0.0036
 4814TIP3    H135857   3.049   1.143  16.803  1.0474 -0.6920  1.2489
 4814TIP3    H235858   3.195   1.107  16.823  1.4080 -1.5466 -2.2760
 4815TIP3   OH235859   2.425   0.057   0.076  0.1355 -0.0793 -0.5204
 4815TIP3    H135860   2.442   0.111   0.154  1.0033 -1.2030  0.0904
 4815TIP3    H235861   2.419  -0.032   0.109 -1.2787 -0.3900 -1.5288
 4816TIP3   OH235862   1.199   1.841  14.422 -0.1229  0.2555  0.1413
 4816TIP3    H135863   1.238   1.924  14.393  0.6422 -0.6629 -1.6563
 4816TIP3    H235864   1.115   1.837  14.376 -1.0915  0.9047  1.7757
 4817TIP3   OH235865   0.803   0.734   1.330 -0.3009 -0.3208 -0.7755
 4817TIP3    H135866   0.869   0.722   1.262  0.1581 -2.5956 -0.0125
 4817TIP3    H235867   0.721   0.704   1.291  0.0273 -1.9565 -0.2520
 4818TIP3   OH235868   4.773   6.284   2.086 -0.0867 -0.4636  0.6296
 4818TIP3    H135869   4.863   6.314   2.073 -0.7357  1.3165 -0.0727
 4818TIP3    H235870   4.735   6.349   2.145 -0.9427 -1.1581  0.8689
 4819TIP3   OH235871   0.478   0.842  11.838  0.2666  0.3173 -0.0058
 4819TIP3    H135872   0.406   0.805  11.788  0.1996  0.6225 -0.1378
 4819TIP3    H235873   0.530   0.766  11.866 -0.2077  0.0828  0.2566
 4820TIP3   OH235874   3.068   6.479  11.781  0.3258  0.2307 -0.0381
 4820TIP3    H135875   2.989   6.453  11.829 -0.7111  1.3594 -1.0569
 4820TIP3    H235876   3.068   6.575  11.784  0.9223  0.2939 -1.1874
 4821TIP3   OH235877   6.701   0.994  10.329  0.1261  0.0033 -0.1174
 4821TIP3    H135878   6.685   0.939  10.406  1.8344 -1.1250 -0.5236
 4821TIP3    H235879   6.760   1.063  10.361  1.1616 -0.7008 -0.4972
 4822TIP3   OH235880   5.089   4.460  11.787 -0.3204  0.3365 -0.6014
 4822TIP3    H135881   5.003   4.484  11.821  0.4474  2.8341 -0.1464
 4822TIP3    H235882   5.103   4.520  11.714 -0.0317 -1.8691 -2.4641
 4823TIP3   OH235883   5.844   5.809   6.081  0.4556 -0.0922 -0.3852
 4823TIP3    H135884   5.761   5.840   6.118  0.1566 -0.3910 -0.7921
 4823TIP3    H235885   5.885   5.761   6.153 -0.3067 -1.0072 -0.5357
 4824TIP3   OH235886   2.737   0.288  12.160  0.1606  0.1193  0.0328
 4824TIP3    H135887   2.832   0.274  12.153  0.4183  1.1802  1.0981
 4824TIP3    H235888   2.725   0.327  12.247 -1.1962  0.4887 -0.2999
 4825TIP3   OH235889   4.308   1.959  10.812 -0.4579 -0.5600 -0.5424
 4825TIP3    H135890   4.373   1.897  10.778  0.3570 -0.6576  1.1003
 4825TIP3    H235891   4.354   2.043  10.814 -0.2874 -0.6666  0.8149
 4826TIP3   OH235892   2.023   0.011  12.571  0.4873  0.1667 -0.2205
 4826TIP3    H135893   2.111   0.046  12.558  0.3570  0.6207  0.0883
 4826TIP3    H235894   1.971   0.087  12.599 -0.1103  0.0059 -0.8515
 4827TIP3   OH235895   3.739   4.242   0.610  0.2979  0.1146  0.7286
 4827TIP3    H135896   3.799   4.182   0.566  0.5887  0.4167  0.7126
 4827TIP3    H235897   3.653   4.201   0.601  0.0051  1.1207 -1.8847
 4828TIP3   OH235898   0.004   0.040  14.351  0.5663  0.3625 -0.2582
 4828TIP3    H135899   0.068   0.043  14.279  1.7013 -0.4204  0.6839
 4828TIP3    H235900  -0.061  -0.023  14.321  1.1821 -0.1809 -0.4967
 4829TIP3   OH235901   1.696   3.183  10.875  0.0754  0.1964  0.3583
 4829TIP3    H135902   1.746   3.225  10.805 -1.6152 -0.6400 -1.4699
 4829TIP3    H235903   1.670   3.099  10.838 -3.5219  0.9723  0.7140
 4830TIP3   OH235904   0.668   6.409  14.100 -0.3534  0.2691  0.4104
 4830TIP3    H135905   0.681   6.421  14.006 -1.3441 -1.4826 -0.0031
 4830TIP3    H235906   0.756   6.395  14.135  0.1380  1.9387 -0.0506
 4831TIP3   OH235907   3.648   6.494   5.216  0.0918  0.1639  0.0209
 4831TIP3    H135908   3.621   6.460   5.131  2.2924  0.0289 -0.6928
 4831TIP3    H235909   3.600   6.440   5.280 -1.6488  0.3238 -1.0907
 4832TIP3   OH235910   2.020   5.958  14.788 -0.1413  0.5547  0.1470
 4832TIP3    H135911   2.114   5.961  14.768 -0.4758  2.4735 -1.4931
 4832TIP3    H235912   1.998   6.049  14.810 -1.1734 -0.3058  3.1106
 4833TIP3   OH235913   0.117   3.317  15.099  0.6463  0.2769  0.4690
 4833TIP3    H135914   0.132   3.224  15.085  0.1762  0.1977  0.4909
 4833TIP3    H235915   0.154   3.359  15.021 -0.5378 -0.0507 -0.2945
 4834TIP3   OH235916   3.968   0.943   3.960 -0.7448 -0.2760  0.0098
 4834TIP3    H135917   3.993   0.891   4.036  1.3346  0.2189 -0.2665
 4834TIP3    H235918   3.955   1.031   3.995  1.4936  0.2500 -0.3086
 4835TIP3   OH235919   0.099   0.672   4.732 -0.2767 -0.0750  0.1287
 4835TIP3    H135920   0.024   0.613   4.737  0.5487 -1.0313  1.5341
 4835TIP3    H235921   0.172   0.618   4.702  0.7944 -0.1448  2.6154
 4836TIP3   OH235922   1.631   3.772  14.455  0.7132 -0.0252 -0.3923
 4836TIP3    H135923   1.556   3.811  14.411  0.8828  0.6897 -0.0640
 4836TIP3    H235924   1.693   3.845  14.465  1.4013 -0.5807 -0.5655
 4837TIP3   OH235925   3.458   5.727  12.465 -0.4759  0.1019 -0.0992
 4837TIP3    H135926   3.465   5.687  12.552  0.3122  1.6618  0.6066
 4837TIP3    H235927   3.535   5.784  12.459 -0.2775 -0.3012 -2.0210
 4838TIP3   OH235928   5.311   2.152   0.529 -0.6931 -0.3216  0.2751
 4838TIP3    H135929   5.231   2.107   0.500  0.0084 -1.1237 -0.4544
 4838TIP3    H235930   5.382   2.093   0.505  0.3104  1.3540 -1.0869
 4839TIP3   OH235931   2.936   2.868  15.219 -0.1401  0.0676  0.2223
 4839TIP3    H135932   2.989   2.938  15.257  0.8066 -0.3729 -0.2594
 4839TIP3    H235933   2.995   2.793  15.213 -0.5001 -0.1229 -1.3485
 4840TIP3   OH235934   4.316   3.919  13.807 -0.8960 -0.0292  0.2738
 4840TIP3    H135935   4.223   3.929  13.827 -1.0691  0.1855 -0.6137
 4840TIP3    H235936   4.336   3.991  13.747 -0.5728 -1.0900 -0.9228
 4841TIP3   OH235937   4.454   5.953   0.028 -0.3218 -0.1698 -0.5889
 4841TIP3    H135938   4.480   5.964  -0.063 -1.1044  1.3399 -0.6747
 4841TIP3    H235939   4.362   5.930   0.025 -0.5130  0.4930 -0.1872
 4842TIP3   OH235940   0.769   1.603   4.141 -0.1638  0.1320  0.5211
 4842TIP3    H135941   0.761   1.529   4.080 -2.0732  0.4106  0.3780
 4842TIP3    H235942   0.702   1.587   4.206  0.8549  0.6401  1.7346
 4843TIP3   OH235943   3.962   3.030   5.443 -0.0143  0.7635  0.3265
 4843TIP3    H135944   3.908   3.082   5.503 -0.5269 -0.2321  0.7470
 4843TIP3    H235945   4.051   3.063   5.456 -0.1925  0.9033  1.2750
 4844TIP3   OH235946   2.023   2.832   3.205 -0.5903 -0.0956 -0.3199
 4844TIP3    H135947   2.102   2.778   3.198 -0.7420 -0.1938 -1.4872
 4844TIP3    H235948   2.057   2.922   3.212 -0.3120 -0.3349  2.5014
 4845TIP3   OH235949   5.847   2.194  16.483  0.3497  0.2662 -0.1576
 4845TIP3    H135950   5.834   2.234  16.397  0.5825 -0.9548 -0.7862
 4845TIP3    H235951   5.760   2.164  16.509  0.6578 -1.7231 -1.2104
 4846TIP3   OH235952   4.557   2.226   2.813  0.2296 -0.3131  0.0861
 4846TIP3    H135953   4.575   2.294   2.748  0.8733 -0.1929  0.3788
 4846TIP3    H235954   4.582   2.266   2.896 -0.8900 -0.3503  0.4528
 4847TIP3   OH235955   5.083   2.403  14.999  0.0655 -0.3834 -0.4083
 4847TIP3    H135956   5.017   2.440  14.942 -0.1803 -2.2289 -1.4143
 4847TIP3    H235957   5.165   2.413  14.951 -0.0545 -1.4085 -0.8493
 4848TIP3   OH235958   0.345   0.560   2.788 -0.0056  0.0170  0.3047
 4848TIP3    H135959   0.344   0.488   2.851  1.3217  1.0289  1.5582
 4848TIP3    H235960   0.298   0.527   2.712  0.2683 -2.0443  0.9840
 4849TIP3   OH235961   2.911   3.947  14.336 -0.1949 -0.3795  0.1719
 4849TIP3    H135962   2.881   3.937  14.426 -1.4668  0.5801 -0.1257
 4849TIP3    H235963   2.983   3.884  14.328 -0.3633 -0.8070  1.7082
 4850TIP3   OH235964   6.182   1.444  10.770 -0.4692 -0.2143  0.3445
 4850TIP3    H135965   6.143   1.496  10.700  0.2687  0.5916  0.5234
 4850TIP3    H235966   6.139   1.474  10.849  1.2567  1.5114  0.7032
 4851TIP3   OH235967   3.851   4.272   0.864  0.0154 -0.6804 -0.5079
 4851TIP3    H135968   3.814   4.243   0.781 -0.5701 -2.1354  0.2137
 4851TIP3    H235969   3.946   4.259   0.854 -0.1460 -2.0423 -0.5615
 4852TIP3   OH235970   2.757   4.044  16.999  0.1191  0.9666 -0.0780
 4852TIP3    H135971   2.749   4.104  17.072 -0.8351 -0.4808  1.0627
 4852TIP3    H235972   2.836   3.993  17.018  1.4236  2.3329 -1.4703
 4853TIP3   OH235973   4.516   4.540  15.478  0.5308  0.5105 -0.6488
 4853TIP3    H135974   4.496   4.456  15.518 -0.5070  1.4432  0.9296
 4853TIP3    H235975   4.433   4.589  15.481  1.1559  1.6674 -1.2994
 4854TIP3   OH235976   4.442   3.274   3.985 -0.1705  0.4938  0.2117
 4854TIP3    H135977   4.351   3.254   4.009 -0.5894  1.2028 -0.7148
 4854TIP3    H235978   4.436   3.357   3.938  0.9347  0.4248 -0.0657
 4855TIP3   OH235979   3.025   0.666  16.048  0.0733  0.6039 -0.4083
 4855TIP3    H135980   2.966   0.740  16.059  1.3015  1.5964 -0.3573
 4855TIP3    H235981   3.113   0.702  16.059  0.8656 -0.3374 -2.8956
 4856TIP3   OH235982   2.993   2.103   4.269  0.0415  0.2903  0.5126
 4856TIP3    H135983   3.064   2.124   4.331  1.4228 -0.3374 -0.7808
 4856TIP3    H235984   2.943   2.184   4.262  0.8516  0.8708  1.2035
 4857TIP3   OH235985   0.671   3.446  13.590  0.3368 -0.1495 -0.0382
 4857TIP3    H135986   0.611   3.385  13.547  1.5463 -1.4313  0.0375
 4857TIP3    H235987   0.613   3.511  13.630 -1.0873 -1.9299  0.9461
 4858TIP3   OH235988   6.338   3.877  16.624 -0.3305  0.2413 -0.1764
 4858TIP3    H135989   6.311   3.822  16.697  0.2183  0.6215  0.3175
 4858TIP3    H235990   6.261   3.880  16.566 -1.4644  1.5214  1.3155
 4859TIP3   OH235991   5.963   0.566   4.010  0.5053 -0.1930  0.2355
 4859TIP3    H135992   5.882   0.517   4.022  1.1144 -1.8422 -1.8246
 4859TIP3    H235993   5.945   0.624   3.936  1.1248 -0.4084 -0.0911
 4860TIP3   OH235994   1.091   3.150  10.233  0.1420 -0.0173 -0.0658
 4860TIP3    H135995   1.091   3.072  10.289 -0.4591 -0.3975 -0.5793
 4860TIP3    H235996   1.144   3.214  10.281  1.4372 -1.0412 -0.0678
 4861TIP3   OH235997   2.781   1.853  16.180 -0.2319 -0.4007 -0.5552
 4861TIP3    H135998   2.818   1.940  16.166  0.7997  0.2361  4.4649
 4861TIP3    H235999   2.692   1.868  16.211  0.6893 -0.7367  2.6506
 4862TIP3   OH236000   5.404   2.248   5.678 -0.1680 -0.4861  0.2189
 4862TIP3    H136001   5.458   2.322   5.705  0.3330 -0.8183  0.1252
 4862TIP3    H236002   5.465   2.184   5.642 -0.6274 -0.8323  0.0332
 4863TIP3   OH236003   3.175   3.382  13.295  0.1479 -0.1242 -0.2924
 4863TIP3    H136004   3.218   3.409  13.376 -0.3734  1.6275 -0.5598
 4863TIP3    H236005   3.241   3.331  13.248  0.9664  0.1344  0.5591
 4864TIP3   OH236006   4.342   1.764   5.173 -0.8698  0.2121 -0.0934
 4864TIP3    H136007   4.253   1.781   5.142 -1.0122 -2.4411 -1.3604
 4864TIP3    H236008   4.398   1.789   5.099 -0.7063 -0.0193 -0.0474
 4865TIP3   OH236009   3.397   6.497   5.969  0.3744 -0.5327  0.1032
 4865TIP3    H136010   3.338   6.515   6.042 -1.2960  0.8069 -1.4812
 4865TIP3    H236011   3.354   6.426   5.921  0.4823 -0.1096 -0.6213
 4866TIP3   OH236012   6.712   0.915  10.585  0.0244  0.2800 -0.3461
 4866TIP3    H136013   6.636   0.965  10.617  0.2894 -0.0091  0.7778
 4866TIP3    H236014   6.778   0.927  10.653  0.4469 -0.7458 -0.5707
 4867TIP3   OH236015   4.657   5.912   1.832  0.1167  0.5575 -0.0572
 4867TIP3    H136016   4.672   5.871   1.917 -1.3201  0.3824  0.1416
 4867TIP3    H236017   4.745   5.925   1.796  0.7635  0.7707  1.5014
 4868TIP3   OH236018   4.445   1.481   3.672  0.1670 -0.0894  0.0132
 4868TIP3    H136019   4.394   1.406   3.702 -0.4929  0.0836 -0.6257
 4868TIP3    H236020   4.438   1.545   3.743  0.9867 -0.7313  0.6894
 4869TIP3   OH236021   6.320   2.634  12.129 -0.3405 -0.3238  0.3457
 4869TIP3    H136022   6.246   2.575  12.143 -0.1141 -0.4353  1.1417
 4869TIP3    H236023   6.291   2.717  12.168 -0.3949 -0.1069 -0.1570
 4870TIP3   OH236024   1.114   4.748  13.259 -0.0809 -0.0066 -0.3522
 4870TIP3    H136025   1.023   4.742  13.229  0.1359 -0.2902 -0.9647
 4870TIP3    H236026   1.137   4.659  13.283  0.1991 -0.0293 -0.6971
 4871TIP3   OH236027   3.683   2.836   2.060 -0.2657 -0.3971  0.1067
 4871TIP3    H136028   3.630   2.796   1.991 -0.5794 -1.6452  1.0584
 4871TIP3    H236029   3.644   2.806   2.142 -0.7132  2.0979  0.9041
 4872TIP3   OH236030   6.106   6.731  13.989 -0.7539  0.5002 -0.3522
 4872TIP3    H136031   6.115   6.810  13.935 -1.0903  1.4821  0.9528
 4872TIP3    H236032   6.012   6.714  13.992 -0.8087  0.8930  0.4863
 4873TIP3   OH236033   0.103   4.773  10.215  0.4020  0.1687  0.0749
 4873TIP3    H136034   0.029   4.724  10.178  0.3853  1.4007 -1.6847
 4873TIP3    H236035   0.092   4.765  10.310 -2.2937  0.6881 -0.0938
 4874TIP3   OH236036   0.004   4.191   0.742  0.1810  0.7328  0.4532
 4874TIP3    H136037  -0.003   4.160   0.832  3.0129  1.2986  0.9672
 4874TIP3    H236038  -0.055   4.266   0.738 -1.7941 -0.7101  1.0888
 4875TIP3   OH236039   2.860   2.397   3.471 -0.2376  0.3262  0.1099
 4875TIP3    H136040   2.935   2.419   3.526  1.7366  0.2076 -2.3651
 4875TIP3    H236041   2.819   2.482   3.452 -1.0308  0.3535  1.7952
 4876TIP3   OH236042   5.678   5.464   3.850  0.4233  0.0210  0.2560
 4876TIP3    H136043   5.673   5.424   3.937  1.6001 -1.5320 -0.3339
 4876TIP3    H236044   5.744   5.412   3.804  1.0272  1.8322 -1.0451
 4877TIP3   OH236045   4.375   2.025   3.125 -0.2158 -0.1181  0.2941
 4877TIP3    H136046   4.287   1.988   3.117 -0.8324  0.7561  2.4326
 4877TIP3    H236047   4.433   1.955   3.095 -1.5659 -1.1152 -0.0943
 4878TIP3   OH236048   2.094   4.936   3.981  0.4635  0.5707  0.1726
 4878TIP3    H136049   2.028   5.002   4.001 -2.6325 -2.2572  0.1341
 4878TIP3    H236050   2.120   4.901   4.066 -0.3683 -0.2919  0.0950
 4879TIP3   OH236051   4.125   6.447  13.057  0.7913 -0.0419 -0.1545
 4879TIP3    H136052   4.140   6.429  13.150  0.6874  0.9213  0.0580
 4879TIP3    H236053   4.203   6.494  13.029  0.1304  1.0824 -0.1472
 4880TIP3   OH236054   3.249   2.077  11.513 -0.0827  0.6501 -0.3223
 4880TIP3    H136055   3.309   2.127  11.567 -1.3437  2.1649 -0.2529
 4880TIP3    H236056   3.277   1.986  11.524  0.1507  0.9739  2.3100
 4881TIP3   OH236057   4.233   1.312  16.680  0.3403  0.2241 -0.3423
 4881TIP3    H136058   4.174   1.360  16.738  1.6403  0.9196  0.4632
 4881TIP3    H236059   4.260   1.378  16.615  0.5633  0.0303 -0.4451
 4882TIP3   OH236060   5.637   1.808   6.512 -0.2947 -0.2143  0.5207
 4882TIP3    H136061   5.694   1.806   6.589 -1.5156  1.1837  1.5200
 4882TIP3    H236062   5.636   1.899   6.486  0.3895 -0.7249 -1.4391
 4883TIP3   OH236063   4.747   1.148   2.655 -0.3326 -0.1998 -0.1313
 4883TIP3    H136064   4.827   1.096   2.645  0.4504  1.0873 -0.8464
 4883TIP3    H236065   4.717   1.128   2.743  0.5612 -1.0167  0.0107
 4884TIP3   OH236066   3.594   4.383   0.893  0.5547  0.2938 -0.1249
 4884TIP3    H136067   3.594   4.395   0.988 -0.4012 -2.5299  0.3090
 4884TIP3    H236068   3.677   4.341   0.874  0.1295 -0.4844 -0.3069
 4885TIP3   OH236069   0.802   2.296   1.080 -0.3458  0.3338 -0.5817
 4885TIP3    H136070   0.747   2.268   1.153 -1.6577  0.2577 -1.5624
 4885TIP3    H236071   0.805   2.391   1.087  2.2072  0.2180  1.3995
 4886TIP3   OH236072   2.912   4.311  16.164  0.8626 -0.2583  0.0984
 4886TIP3    H136073   2.824   4.293  16.134  0.7416 -0.2113  0.4174
 4886TIP3    H236074   2.966   4.312  16.085  0.2487  1.7332 -0.3610
 4887TIP3   OH236075   3.524   2.829  12.228 -0.2135 -0.7133 -0.3821
 4887TIP3    H136076   3.462   2.776  12.179  0.6465 -2.4523  0.2893
 4887TIP3    H236077   3.583   2.865  12.161 -0.0282 -1.7162 -0.7828
 4888TIP3   OH236078   6.428   2.659  11.671  0.1561 -0.0781  0.1476
 4888TIP3    H136079   6.508   2.633  11.716 -0.0757 -1.3695 -0.1328
 4888TIP3    H236080   6.455   2.728  11.611  1.2098 -0.9722 -0.4353
 4889TIP3   OH236081   0.466   4.222   5.134 -0.0558 -0.0451  0.2609
 4889TIP3    H136082   0.525   4.203   5.207 -0.7501 -0.7492  0.6523
 4889TIP3    H236083   0.474   4.146   5.077  2.0149  1.3508 -1.4868
 4890TIP3   OH236084   1.723   2.050   4.025  0.2886  0.4179  0.0789
 4890TIP3    H136085   1.762   2.082   4.106 -0.0233  0.1581  0.3323
 4890TIP3    H236086   1.719   1.955   4.035  2.6549  0.0926 -1.3127
 4891TIP3   OH236087   5.660   6.779  13.134  0.3331  0.3076 -0.0822
 4891TIP3    H136088   5.709   6.828  13.068 -1.0352  1.7736 -0.0732
 4891TIP3    H236089   5.636   6.697  13.090  1.5231  0.2051 -0.5599
 4892TIP3   OH236090   1.864   1.121   1.939 -0.0897 -0.1842  0.0142
 4892TIP3    H136091   1.871   1.038   1.986  2.2358 -1.7356 -2.7123
 4892TIP3    H236092   1.777   1.119   1.899  0.2538 -1.7794 -0.7109
 4893TIP3   OH236093   5.502   6.469   2.666  0.1786 -0.3883  0.1087
 4893TIP3    H136094   5.413   6.450   2.635 -0.2777  0.1263  1.0434
 4893TIP3    H236095   5.489   6.509   2.752  1.3307 -0.4382  0.3221
 4894TIP3   OH236096   3.948   6.229  15.011  0.3104  0.7243  0.0582
 4894TIP3    H136097   3.910   6.309  15.047 -0.5100  0.4911 -0.2673
 4894TIP3    H236098   4.014   6.203  15.075 -1.7762 -0.2374  1.9525
 4895TIP3   OH236099   6.681   5.103  15.198  0.4740 -0.6382 -0.0361
 4895TIP3    H136100   6.603   5.157  15.212  0.9403  0.2192 -0.6542
 4895TIP3    H236101   6.722   5.098  15.284 -0.8127 -2.0176  0.5485
 4896TIP3   OH236102   6.585   4.105  16.533  0.1094  0.3133 -0.3176
 4896TIP3    H136103   6.562   4.015  16.557  0.0246  0.0791 -1.2274
 4896TIP3    H236104   6.578   4.107  16.438  0.4285  1.2026 -0.3356
 4897TIP3   OH236105   2.043   4.168  13.923 -0.2602  0.2788  0.1380
 4897TIP3    H136106   2.076   4.208  13.843 -0.1101 -1.4471 -0.7117
 4897TIP3    H236107   1.950   4.152  13.906 -0.2338 -0.0787  0.3089
 4898TIP3   OH236108   3.956   5.461   6.343  0.3985 -0.2469  0.8410
 4898TIP3    H136109   3.929   5.547   6.375  1.1109  0.5683 -0.6611
 4898TIP3    H236110   3.915   5.453   6.257  1.5575 -0.7518  0.3188
 4899TIP3   OH236111   2.392   0.972   4.872  0.2739  0.5122 -0.0965
 4899TIP3    H136112   2.422   1.054   4.834 -0.7577  0.3062 -1.3956
 4899TIP3    H236113   2.369   0.994   4.962  0.5636  1.5103 -0.2581
 4900TIP3   OH236114   6.430   0.082  15.136 -0.0961  0.3325  0.2038
 4900TIP3    H136115   6.502   0.139  15.164 -0.8969  1.9238 -0.7955
 4900TIP3    H236116   6.473   0.000  15.110  1.0530  0.3133  1.9852
 4901TIP3   OH236117   3.865   2.519  12.028 -0.0610 -0.1198 -0.4269
 4901TIP3    H136118   3.833   2.491  12.114  0.8465  1.6353  0.5580
 4901TIP3    H236119   3.885   2.438  11.982 -0.3943 -1.1154  1.0912
 4902TIP3   OH236120   3.444   2.453  16.578 -0.2261  0.0732 -0.5597
 4902TIP3    H136121   3.499   2.388  16.621 -1.0899 -0.1851  0.1776
 4902TIP3    H236122   3.390   2.490  16.648 -0.1655  1.1676 -1.0660
 4903TIP3   OH236123   3.164   4.286  11.201 -0.0964 -0.0452  0.5427
 4903TIP3    H136124   3.228   4.230  11.245  0.4123  1.4862  1.8801
 4903TIP3    H236125   3.211   4.369  11.187 -1.0146  0.2806 -0.7675
 4904TIP3   OH236126   6.091   6.109   0.666 -0.1345 -0.1377  0.3494
 4904TIP3    H136127   6.083   6.196   0.625  1.4081 -0.2427 -0.2185
 4904TIP3    H236128   6.140   6.057   0.602 -2.8170 -2.1203 -0.3169
 4905TIP3   OH236129   5.565   0.897   2.242 -0.4084  0.1347 -0.5161
 4905TIP3    H136130   5.601   0.984   2.261  0.3304 -0.2276 -0.2191
 4905TIP3    H236131   5.580   0.885   2.148  1.3871 -0.4983 -0.1896
 4906TIP3   OH236132   0.524   0.518  15.354 -0.1398  0.4271  0.0760
 4906TIP3    H136133   0.468   0.580  15.401  0.0962  0.4301  0.3561
 4906TIP3    H236134   0.607   0.565  15.342 -0.6752  0.9878 -1.6672
 4907TIP3   OH236135   2.292   5.443   4.832 -0.4280  0.2862 -0.5558
 4907TIP3    H136136   2.202   5.414   4.820 -0.3629  0.1635 -0.7633
 4907TIP3    H236137   2.345   5.372   4.794 -0.1463 -0.7173  1.5690
 4908TIP3   OH236138   5.804   1.615   0.842 -0.1432  0.9416 -0.2281
 4908TIP3    H136139   5.762   1.591   0.760 -1.1500  3.2994 -0.5017
 4908TIP3    H236140   5.776   1.549   0.905 -0.8162  0.1157 -1.3762
 4909TIP3   OH236141   3.885   5.165   2.603 -0.1399 -0.4218 -0.0603
 4909TIP3    H136142   3.845   5.158   2.690  1.1799  1.6155  0.8020
 4909TIP3    H236143   3.846   5.245   2.566  1.6611  0.5506  0.0432
 4910TIP3   OH236144   6.261   4.120   3.140  0.0434  0.1603 -0.1101
 4910TIP3    H136145   6.258   4.106   3.235  0.3489  2.1099  0.2236
 4910TIP3    H236146   6.240   4.034   3.103 -0.3000 -0.5957  1.7117
 4911TIP3   OH236147   2.953   5.133  15.719 -0.4295  0.2515 -0.0901
 4911TIP3    H136148   3.019   5.081  15.672 -0.1805  1.1885 -0.7881
 4911TIP3    H236149   2.929   5.202  15.659 -1.3306  0.5085  0.5506
 4912TIP3   OH236150   5.960   4.432  14.977  0.1842  0.2155  0.6461
 4912TIP3    H136151   6.024   4.365  14.999 -0.4913 -0.6037  0.1614
 4912TIP3    H236152   5.901   4.390  14.915  0.6381  1.7130 -0.8976
 4913TIP3   OH236153   0.237   3.972  15.193 -0.0685  0.0271 -0.1113
 4913TIP3    H136154   0.166   3.961  15.256 -0.1460  1.3219  0.0340
 4913TIP3    H236155   0.300   4.030  15.236 -0.9467  2.4286 -1.8381
 4914TIP3   OH236156   2.207   6.709  13.126  0.6414  0.0293 -0.1653
 4914TIP3    H136157   2.234   6.648  13.195 -1.0886  0.2201  0.7294
 4914TIP3    H236158   2.180   6.788  13.173  0.7845  0.6987 -1.1777
 4915TIP3   OH236159   0.811   1.293   5.654 -0.0507 -0.0735  0.3480
 4915TIP3    H136160   0.772   1.377   5.631  0.3259 -0.2474 -0.9946
 4915TIP3    H236161   0.870   1.313   5.727 -1.7897  0.3767  1.6867
 4916TIP3   OH236162   3.389   5.895  13.849 -0.0298  0.2405  0.6189
 4916TIP3    H136163   3.444   5.817  13.833  0.3661  0.7893 -0.8988
 4916TIP3    H236164   3.423   5.932  13.930  0.6116 -0.4798  0.6921
 4917TIP3   OH236165   5.550   0.879  13.037  0.4342  0.1337 -0.0454
 4917TIP3    H136166   5.524   0.849  12.950 -1.1291 -1.0793  0.7674
 4917TIP3    H236167   5.572   0.799  13.084  3.0958  0.9140  0.1835
 4918TIP3   OH236168   2.501   4.519   1.736  0.3271  0.4456  0.2559
 4918TIP3    H136169   2.565   4.530   1.666  1.5208 -0.4390  1.1715
 4918TIP3    H236170   2.466   4.431   1.723 -1.0630  1.0606 -0.4793
 4919TIP3   OH236171   0.946   3.586   2.221 -0.1870  0.4035 -0.0665
 4919TIP3    H136172   0.951   3.660   2.161 -1.4853 -1.3757 -2.5690
 4919TIP3    H236173   1.035   3.551   2.225  0.2776  1.6155  0.5488
 4920TIP3   OH236174   2.048   2.781  14.315  0.0106 -0.2927 -0.1599
 4920TIP3    H136175   2.116   2.848  14.304  0.3509 -0.7600 -0.9789
 4920TIP3    H236176   2.075   2.731  14.392 -0.2365  0.4882  0.4475
 4921TIP3   OH236177   3.528   6.115   1.717  0.1680 -0.1516  0.4324
 4921TIP3    H136178   3.463   6.180   1.690  1.2701  1.0655  0.5986
 4921TIP3    H236179   3.558   6.145   1.803  0.2254 -1.2730  0.8270
 4922TIP3   OH236180   6.638   0.631   2.846  0.3134  0.1050 -0.0186
 4922TIP3    H136181   6.728   0.653   2.820 -0.3119  1.4119 -1.1926
 4922TIP3    H236182   6.622   0.545   2.808  1.3583 -0.5729  0.9989
 4923TIP3   OH236183   5.677   0.345  14.799 -0.4052  0.2813 -0.1618
 4923TIP3    H136184   5.761   0.347  14.753 -0.2834 -0.7198 -0.0133
 4923TIP3    H236185   5.690   0.401  14.875  0.2374 -0.1018  0.0203
 4924TIP3   OH236186   1.837   4.983   0.592 -0.0719 -0.3364 -0.0070
 4924TIP3    H136187   1.746   4.988   0.620 -0.1564  1.3875 -0.4819
 4924TIP3    H236188   1.877   5.064   0.624  0.7895 -0.1314 -1.4885
 4925TIP3   OH236189   2.643   6.351  16.327 -0.0852 -0.5499 -0.6037
 4925TIP3    H136190   2.639   6.427  16.386  2.7991  0.4590 -1.5246
 4925TIP3    H236191   2.598   6.379  16.248  0.4530  0.0056 -0.7181
 4926TIP3   OH236192   0.680   2.593  16.466 -0.0418  0.3172  0.0773
 4926TIP3    H136193   0.680   2.612  16.372  0.1761  0.0834  0.0309
 4926TIP3    H236194   0.590   2.611  16.494 -1.0931 -2.9026 -0.8408
 4927TIP3   OH236195   4.939   5.457  13.984  0.5018 -0.8558 -0.0306
 4927TIP3    H136196   4.991   5.387  13.946 -0.3103 -1.0765 -0.7485
 4927TIP3    H236197   4.857   5.456  13.936 -0.3511 -0.7941  1.3635
 4928TIP3   OH236198   2.811   3.933   4.654  0.3542  0.6607  0.2930
 4928TIP3    H136199   2.879   3.921   4.587  1.1422  0.4645  1.1067
 4928TIP3    H236200   2.789   3.844   4.681 -0.6239  0.6972 -0.3345
 4929TIP3   OH236201   6.115   4.031   2.186  0.7988  0.0284 -0.5221
 4929TIP3    H136202   6.130   4.085   2.263  0.3600  1.0502 -1.1356
 4929TIP3    H236203   6.022   4.010   2.189  0.6534  0.5772 -1.0882
 4930TIP3   OH236204   2.256   2.301   0.664 -0.9292 -0.3214 -0.2262
 4930TIP3    H136205   2.227   2.253   0.587 -1.8517 -0.1334 -0.0104
 4930TIP3    H236206   2.175   2.327   0.708 -0.4236  0.0450  0.5136
 4931TIP3   OH236207   5.603   2.341  15.035  0.0662 -0.5145  0.2283
 4931TIP3    H136208   5.596   2.430  14.999  0.4143  0.0863  1.5632
 4931TIP3    H236209   5.588   2.283  14.961 -0.3294  0.6685 -0.6386
 4932TIP3   OH236210   5.038   4.017  13.797 -0.5129  0.1164 -0.0877
 4932TIP3    H136211   5.065   3.941  13.747 -0.2576  1.1357 -1.5673
 4932TIP3    H236212   4.946   4.031  13.773 -0.4848  0.4255 -0.0275
 4933TIP3   OH236213   5.433   5.157   5.048 -0.0711 -0.1547  0.4106
 4933TIP3    H136214   5.405   5.066   5.054  0.7309 -0.3657  1.2616
 4933TIP3    H236215   5.354   5.208   5.064 -0.4455 -0.7066  0.3368
 4934TIP3   OH236216   6.295   2.256   0.304 -1.4463 -0.1145 -0.1766
 4934TIP3    H136217   6.225   2.261   0.370 -0.8535  2.0482  0.3844
 4934TIP3    H236218   6.301   2.345   0.270 -2.0814 -1.2703 -3.6305
 4935TIP3   OH236219   5.569   4.336   5.512 -0.1000 -0.1274 -0.5474
 4935TIP3    H136220   5.616   4.388   5.577 -1.1748 -0.2340  0.3488
 4935TIP3    H236221   5.584   4.382   5.430  1.6613 -0.2371 -0.3375
 4936TIP3   OH236222   5.773   0.674   0.049  0.1932 -0.0107 -0.2405
 4936TIP3    H136223   5.817   0.681  -0.036 -0.3651  0.3890 -0.5088
 4936TIP3    H236224   5.681   0.660   0.026  0.0161  0.2636  0.2979
 4937TIP3   OH236225   6.669   3.962  10.838 -0.6169 -0.6666 -0.2262
 4937TIP3    H136226   6.667   3.918  10.753 -1.6533  0.4418 -0.7999
 4937TIP3    H236227   6.753   4.008  10.839 -1.0218  0.1238 -1.0918
 4938TIP3   OH236228   5.992   6.134   3.147  0.2985 -0.6639  0.0378
 4938TIP3    H136229   6.087   6.146   3.151  0.4207 -1.0865 -1.2640
 4938TIP3    H236230   5.979   6.064   3.083 -0.8931 -0.6702  0.2614
 4939TIP3   OH236231   0.969   2.321  13.321  0.0069 -0.3806  0.1829
 4939TIP3    H136232   1.018   2.342  13.242 -0.0288  1.5316  0.6088
 4939TIP3    H236233   0.913   2.247  13.296  0.9599 -0.6816 -1.1598
 4940TIP3   OH236234   4.524   3.325  13.246  0.8245  0.0064 -0.2576
 4940TIP3    H136235   4.517   3.272  13.326  0.8503 -0.4456 -0.5476
 4940TIP3    H236236   4.475   3.274  13.181 -1.9481  1.8503  0.2053
 4941TIP3   OH236237   0.194   5.685  12.090 -0.0155  0.1595  0.2170
 4941TIP3    H136238   0.253   5.759  12.107  0.0344  0.1882 -0.0715
 4941TIP3    H236239   0.227   5.647  12.008  0.2383 -0.4613  0.5997
 4942TIP3   OH236240   1.556   6.794  13.276 -0.5256 -0.2748 -0.4213
 4942TIP3    H136241   1.474   6.784  13.227 -0.3115  0.8297 -1.0306
 4942TIP3    H236242   1.625   6.775  13.212 -0.2819 -1.9822  0.2847
 4943TIP3   OH236243   5.182   5.022  13.543  0.0856  0.0562  0.0652
 4943TIP3    H136244   5.222   5.008  13.457 -1.3716  0.0210 -0.6309
 4943TIP3    H236245   5.091   5.045  13.524 -0.1948  0.3218  1.5960
 4944TIP3   OH236246   0.248   3.178  12.845  0.0346 -0.2829  0.2485
 4944TIP3    H136247   0.251   3.149  12.937 -1.0111  0.3281  0.4972
 4944TIP3    H236248   0.169   3.232  12.840  0.7434  0.7078 -0.7247
 4945TIP3   OH236249   0.031   2.308   1.807  0.5849 -0.6360 -0.3361
 4945TIP3    H136250   0.009   2.351   1.889  1.2911 -0.2837 -0.3284
 4945TIP3    H236251   0.021   2.215   1.825 -0.6507 -0.5089 -0.2668
 4946TIP3   OH236252   0.886   4.693  16.940 -0.1937 -0.1964 -0.0798
 4946TIP3    H136253   0.845   4.724  17.021  0.0865  1.7465 -0.6329
 4946TIP3    H236254   0.816   4.698  16.874  0.5513  2.1569 -0.7989
 4947TIP3   OH236255   6.803   0.345   4.913  0.0164 -0.2344  0.6159
 4947TIP3    H136256   6.739   0.415   4.898  0.1232 -0.3215 -0.3363
 4947TIP3    H236257   6.859   0.347   4.835  0.2346 -1.1550  0.7356
 4948TIP3   OH236258   1.777   4.351  10.816  0.2224 -0.1409 -0.2704
 4948TIP3    H136259   1.788   4.436  10.859 -1.5270 -0.4717  0.9054
 4948TIP3    H236260   1.851   4.299  10.847  0.2669  0.3608  0.4929
 4949TIP3   OH236261   4.151   0.068  15.942 -0.2502  0.1241 -0.8076
 4949TIP3    H136262   4.072   0.055  15.996  0.3105  0.0818  0.0253
 4949TIP3    H236263   4.176  -0.021  15.916  0.9814 -0.1443  1.0962
 4950TIP3   OH236264   5.748   3.699   1.081  0.0737  0.1000  0.0126
 4950TIP3    H136265   5.770   3.666   0.995  1.3242  1.9303 -0.4285
 4950TIP3    H236266   5.653   3.713   1.078  0.1336  0.3580 -1.1530
 4951TIP3   OH236267   4.786   0.158   6.393 -0.1683 -0.1533  0.1141
 4951TIP3    H136268   4.844   0.101   6.343 -1.8714 -0.9178 -1.0883
 4951TIP3    H236269   4.814   0.247   6.369  0.0832 -0.5039 -0.9791
 4952TIP3   OH236270   2.255   4.416  11.975  0.2704  0.0869  0.5675
 4952TIP3    H136271   2.288   4.458  12.054  0.9469 -0.2719  0.4808
 4952TIP3    H236272   2.289   4.469  11.903  0.6005 -0.2272  0.4830
 4953TIP3   OH236273   6.572   5.240   3.785  0.2360 -0.6997  0.2810
 4953TIP3    H136274   6.568   5.304   3.714  1.0830 -0.3654  0.5317
 4953TIP3    H236275   6.585   5.292   3.864 -0.7310 -1.0670  0.7075
 4954TIP3   OH236276   1.646   1.240  15.058  0.1966  0.6517 -0.0530
 4954TIP3    H136277   1.578   1.203  15.115  0.5838 -0.0161 -0.0050
 4954TIP3    H236278   1.718   1.176  15.062  1.7205  2.3368  1.5830
 4955TIP3   OH236279   2.968   3.749   4.916 -0.3136  0.0919 -1.0128
 4955TIP3    H136280   2.880   3.711   4.916 -0.3075  0.0648 -1.7128
 4955TIP3    H236281   2.960   3.828   4.970 -1.3908  1.4699 -3.0592
 4956TIP3   OH236282   0.728   4.650   2.531  0.5263  1.0483 -0.7778
 4956TIP3    H136283   0.723   4.741   2.502  2.0078  2.5991  3.1108
 4956TIP3    H236284   0.816   4.622   2.505  0.8568  1.4979 -0.1706
 4957TIP3   OH236285   3.575   4.692   3.383  0.2673  0.2117 -0.5242
 4957TIP3    H136286   3.523   4.747   3.442  0.0287 -1.5165  0.9587
 4957TIP3    H236287   3.534   4.703   3.298 -2.1368 -0.5203  0.4466
 4958TIP3   OH236288   3.249   3.161   5.209  0.2113 -0.4170  0.1379
 4958TIP3    H136289   3.258   3.188   5.117 -1.5165 -0.5769 -0.1279
 4958TIP3    H236290   3.158   3.184   5.231  0.5889 -0.3987  1.8140
 4959TIP3   OH236291   4.186   3.256   2.135 -0.0040  0.4171  0.1630
 4959TIP3    H136292   4.094   3.243   2.109  0.0076 -1.9025  1.0677
 4959TIP3    H236293   4.223   3.309   2.065 -2.0420  1.4523 -0.1981
 4960TIP3   OH236294   2.477   4.732   0.909 -0.0584 -0.7019 -0.7045
 4960TIP3    H136295   2.517   4.747   0.823 -3.8776  1.2436 -2.3831
 4960TIP3    H236296   2.502   4.809   0.960 -0.3015 -0.3292 -1.1448
 4961TIP3   OH236297   5.976   4.393  10.586 -0.6561  0.2903 -0.1344
 4961TIP3    H136298   6.001   4.304  10.563  1.1910  0.7502 -0.0378
 4961TIP3    H236299   6.040   4.448  10.541 -3.8376  1.8544 -3.2790
 4962TIP3   OH236300   3.804   0.248   1.247  0.1802 -0.0961 -0.3571
 4962TIP3    H136301   3.805   0.206   1.334  0.7630  0.4598 -0.0841
 4962TIP3    H236302   3.897   0.257   1.225  0.0339 -0.0793 -0.9652
 4963TIP3   OH236303   5.052   4.698  14.843  0.0460 -0.1065 -0.5186
 4963TIP3    H136304   5.025   4.751  14.767  1.8576  2.3399  0.4056
 4963TIP3    H236305   5.009   4.740  14.917 -2.0639 -2.7380 -0.0956
 4964TIP3   OH236306   3.845   4.218   5.645 -0.3339 -0.1905  0.1674
 4964TIP3    H136307   3.768   4.190   5.595  1.0158 -2.1046 -1.0058
 4964TIP3    H236308   3.837   4.172   5.729  0.5638 -2.3004 -0.7996
 4965TIP3   OH236309   6.329   1.975   3.198 -0.1618 -0.4292  0.2520
 4965TIP3    H136310   6.306   1.883   3.183 -0.3097 -0.2963 -0.3492
 4965TIP3    H236311   6.269   2.003   3.267  0.2687 -0.9445  0.8406
 4966TIP3   OH236312   0.941   2.559   2.647 -0.4307  0.6718  0.4825
 4966TIP3    H136313   0.860   2.586   2.688 -0.1709  2.1873  0.0485
 4966TIP3    H236314   0.978   2.493   2.707 -1.8484  0.1137  0.7772
 4967TIP3   OH236315   3.880   2.981  13.230 -0.6272  0.0475 -0.0885
 4967TIP3    H136316   3.826   2.969  13.152  0.1473 -0.4081 -0.5669
 4967TIP3    H236317   3.964   3.015  13.197  0.3766 -1.8838  0.3022
 4968TIP3   OH236318   5.876   1.178   4.144 -0.2202 -0.0326 -0.0591
 4968TIP3    H136319   5.902   1.205   4.056 -1.4212  1.3635 -0.0362
 4968TIP3    H236320   5.953   1.195   4.198 -0.8004  3.4285 -0.0940
 4969TIP3   OH236321   3.199   2.208  12.980  0.3231 -0.1986 -0.3172
 4969TIP3    H136322   3.289   2.180  12.961  0.3285 -1.7239  1.6875
 4969TIP3    H236323   3.210   2.283  13.038  0.3444 -1.3527  1.2137
 4970TIP3   OH236324   2.539   0.358   5.377  0.6741 -0.2243  0.1680
 4970TIP3    H136325   2.471   0.414   5.415  0.1334 -0.0013 -1.0894
 4970TIP3    H236326   2.492   0.302   5.315  1.6323 -0.0559 -0.7382
 4971TIP3   OH236327   2.035   6.426  15.286  0.1141  0.3282  0.3098
 4971TIP3    H136328   1.960   6.479  15.313 -1.4205 -1.0725 -0.9594
 4971TIP3    H236329   2.076   6.399  15.368 -1.5122  0.1540  1.1231
 4972TIP3   OH236330   5.518   6.526   4.175  0.2596  0.3565 -0.1127
 4972TIP3    H136331   5.455   6.535   4.104  1.1145  0.6124 -0.8518
 4972TIP3    H236332   5.599   6.565   4.141  0.1815  2.2367  1.6499
 4973TIP3   OH236333   4.179   1.558   2.010  0.4653  0.0877  0.3841
 4973TIP3    H136334   4.201   1.637   2.061  0.7942 -0.0183  0.4076
 4973TIP3    H236335   4.147   1.592   1.927  0.2623  0.2555  0.5288
 4974TIP3   OH236336   6.329   5.499   4.931  0.0654 -0.4296  0.0224
 4974TIP3    H136337   6.393   5.511   4.861  0.9943 -0.7145  0.8041
 4974TIP3    H236338   6.307   5.406   4.927  0.1273 -0.4483  0.1207
 4975TIP3   OH236339   0.718   2.589  17.055  0.4965 -0.1330  0.3626
 4975TIP3    H136340   0.739   2.659  17.116  0.3715  1.8171 -1.7187
 4975TIP3    H236341   0.745   2.509  17.100  1.2148  1.2729  2.5755
 4976TIP3   OH236342   3.061   1.965  14.402 -0.5300 -0.3698 -0.3370
 4976TIP3    H136343   3.000   1.920  14.460  0.1161 -1.3879 -0.4377
 4976TIP3    H236344   3.005   2.001  14.333 -1.1525 -0.2178  0.2380
 4977TIP3   OH236345   3.729   1.034   3.797  0.2199 -0.2555 -0.4833
 4977TIP3    H136346   3.727   0.983   3.877 -0.0172 -0.2457 -0.4813
 4977TIP3    H236347   3.742   1.125   3.826  0.7528 -0.3286 -0.4940
 4978TIP3   OH236348   3.678   0.099   3.441  0.0972  0.4305 -0.0362
 4978TIP3    H136349   3.627   0.094   3.360 -0.0578  1.3062  0.0004
 4978TIP3    H236350   3.712   0.011   3.453 -1.1176 -0.0961 -0.2607
 4979TIP3   OH236351   4.618   5.299  15.464 -0.5490  0.5121  0.1409
 4979TIP3    H136352   4.610   5.264  15.375 -1.7060 -0.1167  0.4703
 4979TIP3    H236353   4.530   5.325  15.488 -0.3116  0.3711  1.2276
 4980TIP3   OH236354   4.567   0.261  10.467 -0.0418  0.2421 -0.1040
 4980TIP3    H136355   4.496   0.203  10.442  1.1235 -1.9946  1.4750
 4980TIP3    H236356   4.570   0.327  10.397 -2.3689 -0.7013 -1.1883
 4981TIP3   OH236357   6.074   5.982  15.572  0.1660  0.7110 -0.2179
 4981TIP3    H136358   6.116   5.954  15.654 -0.0701 -0.1862 -0.3872
 4981TIP3    H236359   6.031   6.065  15.595  1.4164  1.2890  0.1347
 4982TIP3   OH236360   6.117   3.326  15.821  0.0683 -0.4145 -0.0897
 4982TIP3    H136361   6.109   3.384  15.745 -0.3086  1.5236  1.3587
 4982TIP3    H236362   6.178   3.258  15.793 -2.1485 -1.4145 -3.0611
 4983TIP3   OH236363   1.072   1.131   2.273  0.4364 -0.2401  0.0849
 4983TIP3    H136364   1.024   1.212   2.292 -1.0424 -1.3618  1.3777
 4983TIP3    H236365   1.032   1.065   2.329  1.9179 -1.7979 -0.5825
 4984TIP3   OH236366   6.269   5.069   1.655  0.4890 -0.2799 -0.4994
 4984TIP3    H136367   6.311   5.136   1.709  1.0054  0.6291 -1.9793
 4984TIP3    H236368   6.237   5.117   1.579 -0.9357 -1.3970 -0.6428
 4985TIP3   OH236369   3.534   3.092  14.390 -0.8922  0.1936 -0.1251
 4985TIP3    H136370   3.481   3.098  14.310  0.8110 -1.1086 -1.4317
 4985TIP3    H236371   3.502   3.014  14.434 -1.0960  0.2914 -0.0965
 4986TIP3   OH236372   3.897   5.916  12.457 -0.3706 -0.1826  0.5730
 4986TIP3    H136373   3.833   5.951  12.396  0.0969  0.2865  0.3428
 4986TIP3    H236374   3.881   5.822  12.457 -3.9826  0.1841  3.7937
 4987TIP3   OH236375   3.414   3.361   5.323 -0.3891  0.2028  0.2520
 4987TIP3    H136376   3.342   3.298   5.326 -2.9789  2.9508  0.4387
 4987TIP3    H236377   3.442   3.360   5.231 -0.7040 -0.8573  0.1521
 4988TIP3   OH236378   2.454   1.919   4.729  0.3764  0.5101 -0.2210
 4988TIP3    H136379   2.497   1.848   4.777  0.3472  1.7902  1.7906
 4988TIP3    H236380   2.388   1.953   4.790 -1.8166  0.2611 -2.2834
 4989TIP3   OH236381   1.965   6.333  12.010 -0.4782 -0.4678 -0.7424
 4989TIP3    H136382   1.910   6.411  12.022  0.7387  0.2823  0.1603
 4989TIP3    H236383   1.998   6.340  11.921  0.1799  0.4406 -0.4429
 4990TIP3   OH236384   1.651   5.704  15.230 -0.2079 -0.3560  0.5919
 4990TIP3    H136385   1.660   5.639  15.160 -0.3773 -0.4076  0.6178
 4990TIP3    H236386   1.729   5.693  15.284  0.0585 -0.1314  0.2560
 4991TIP3   OH236387   6.821   5.138   2.754 -0.2963 -0.7700 -0.0418
 4991TIP3    H136388   6.811   5.102   2.843 -4.1627 -0.6566 -0.2265
 4991TIP3    H236389   6.794   5.230   2.762  0.5456 -0.4066 -1.1377
 4992TIP3   OH236390   6.415   1.478  15.611  0.3729 -0.4769 -0.1738
 4992TIP3    H136391   6.418   1.450  15.519 -0.8382 -0.4839 -0.2166
 4992TIP3    H236392   6.364   1.559  15.610  3.1007  1.3783  0.0611
 4993TIP3   OH236393   0.450   2.498   5.846 -0.0842 -0.2566  0.3298
 4993TIP3    H136394   0.463   2.571   5.785  0.8095 -1.6835 -1.2749
 4993TIP3    H236395   0.371   2.521   5.895 -0.4349  1.2781 -0.8794
 4994TIP3   OH236396   5.245   0.966  13.212  0.1553 -0.4488  0.2527
 4994TIP3    H136397   5.257   1.006  13.126 -0.9783 -1.4708 -0.4202
 4994TIP3    H236398   5.227   1.039  13.271  1.7013  0.3432 -0.2059
 4995TIP3   OH236399   2.272   5.326  13.637  0.1859  0.4284  0.3334
 4995TIP3    H136400   2.273   5.361  13.548 -0.3855 -0.5093 -0.0568
 4995TIP3    H236401   2.319   5.391  13.689 -1.5367  2.1979 -0.1957
 4996TIP3   OH236402   2.053   1.657  11.852 -0.2892  0.1497 -0.4207
 4996TIP3    H136403   2.066   1.729  11.912 -1.8702 -0.6733  0.9919
 4996TIP3    H236404   2.076   1.693  11.766  1.2604  1.5801  0.5311
 4997TIP3   OH236405   1.847   6.727   3.977 -0.0598  0.1688  0.4635
 4997TIP3    H136406   1.860   6.721   4.072 -0.5644 -1.1777  0.4735
 4997TIP3    H236407   1.753   6.741   3.966 -0.1615 -0.6654  0.1600
 4998TIP3   OH236408   0.792   5.419   4.271 -0.5815  0.5816  0.1538
 4998TIP3    H136409   0.749   5.431   4.356 -2.5466 -0.8493 -0.5452
 4998TIP3    H236410   0.877   5.382   4.292 -1.4404 -0.7552  1.5230
 4999TIP3   OH236411   4.827   5.561  12.828 -0.1315  0.6689 -0.3480
 4999TIP3    H136412   4.788   5.571  12.741 -2.7027 -0.6201  0.5406
 4999TIP3    H236413   4.848   5.467  12.834  0.7337  0.8873  0.1593
 5000TIP3   OH236414   4.445   4.497   4.776  0.4250  0.0197  0.4178
 5000TIP3    H136415   4.494   4.575   4.749 -1.5509  1.5336  0.9932
 5000TIP3    H236416   4.447   4.439   4.700 -1.0204  2.1643 -1.3496
 5001TIP3   OH236417   2.306   4.807  11.219 -0.4559 -0.2789  0.7449
 5001TIP3    H136418   2.257   4.772  11.293  2.4543  1.3282  3.7132
 5001TIP3    H236419   2.337   4.729  11.172 -2.6490 -1.3372  0.9288
 5002TIP3   OH236420   1.343   6.275  14.579 -0.3169  0.1456 -0.0932
 5002TIP3    H136421   1.299   6.308  14.501 -0.7615 -1.9536 -0.7996
 5002TIP3    H236422   1.436   6.291  14.563 -0.4822  0.6242 -0.5999
 5003TIP3   OH236423   5.210   2.961   5.189 -0.4910 -0.2402 -0.3540
 5003TIP3    H136424   5.267   3.022   5.142 -0.5666  0.4413  0.4130
 5003TIP3    H236425   5.122   2.991   5.169 -0.5912 -1.0947 -1.2743
 5004TIP3   OH236426   4.283   3.754  16.723  0.2213  0.0563  0.1267
 5004TIP3    H136427   4.291   3.692  16.651  0.2510  0.0575  0.1287
 5004TIP3    H236428   4.364   3.741  16.774  0.1069 -0.0888  0.2733
 5005TIP3   OH236429   2.356   4.609   2.387 -0.1338 -0.0399 -0.2961
 5005TIP3    H136430   2.396   4.696   2.395 -0.0623 -0.1945  1.2673
 5005TIP3    H236431   2.263   4.626   2.374 -0.3133  0.2986  1.1927
 5006TIP3   OH236432   1.096   1.646  12.679 -0.1680  0.2575 -0.5166
 5006TIP3    H136433   1.174   1.661  12.625  0.9437 -2.4601  0.1433
 5006TIP3    H236434   1.036   1.599  12.621  1.0839 -2.7938  0.4577
 5007TIP3   OH236435   2.168   1.514  14.907 -0.0175  0.5618 -0.3384
 5007TIP3    H136436   2.258   1.544  14.896  0.6430 -1.0551  0.3701
 5007TIP3    H236437   2.144   1.477  14.822  0.8044 -1.0252  0.0936
 5008TIP3   OH236438   3.718   1.931  13.996 -0.3035 -0.0437  0.2694
 5008TIP3    H136439   3.798   1.980  13.975 -0.7919  1.2721  1.3056
 5008TIP3    H236440   3.670   1.989  14.055 -0.9162 -1.8185  1.5858
 5009TIP3   OH236441   3.731   4.780  12.605  0.1097  0.2145  0.5095
 5009TIP3    H136442   3.721   4.691  12.570 -1.6866 -0.1980  1.9076
 5009TIP3    H236443   3.695   4.837  12.536 -0.6743 -0.3353  0.4522
 5010TIP3   OH236444   3.949   4.226   5.249  0.1586  0.6307  0.5675
 5010TIP3    H136445   3.925   4.305   5.297 -0.1501  1.1576 -0.4146
 5010TIP3    H236446   4.011   4.256   5.183  1.5632 -0.2949  1.4097
 5011TIP3   OH236447   4.311   6.222   2.645 -0.9252  0.5940 -0.0289
 5011TIP3    H136448   4.335   6.242   2.555  1.0793  0.6910  0.4987
 5011TIP3    H236449   4.381   6.165   2.677 -2.8293 -1.4919  0.7386
 5012TIP3   OH236450   0.968   4.629  14.744  0.6514 -0.0242  0.0086
 5012TIP3    H136451   1.033   4.699  14.743 -0.9998  1.5913 -0.2461
 5012TIP3    H236452   0.900   4.660  14.803  0.1021 -1.6770  0.3155
 5013TIP3   OH236453   2.255   6.654  15.177 -0.1718  0.0840  0.2794
 5013TIP3    H136454   2.346   6.640  15.152 -0.4773 -0.7484 -0.4035
 5013TIP3    H236455   2.256   6.649  15.273  0.1885 -2.0723  0.2223
 5014TIP3   OH236456   5.441   1.580  14.828  0.7591 -0.1266 -0.1360
 5014TIP3    H136457   5.454   1.581  14.923 -0.3117  1.2937  0.0176
 5014TIP3    H236458   5.530   1.582  14.792  1.1781 -0.6090  0.8122
 5015TIP3   OH236459   4.374   4.203  11.648  0.5206 -0.1333  0.7689
 5015TIP3    H136460   4.335   4.153  11.720  2.0942  0.7931  2.3752
 5015TIP3    H236461   4.440   4.144  11.611  0.9489  0.0049  1.2964
 5016TIP3   OH236462   1.835   1.393  10.425 -0.3147 -0.1012 -0.0684
 5016TIP3    H136463   1.743   1.396  10.401 -0.0242 -0.5863 -1.3190
 5016TIP3    H236464   1.843   1.456  10.498 -1.1889  1.6853 -1.4363
 5017TIP3   OH236465   2.541   5.753   0.535  0.2291 -0.6227  0.0611
 5017TIP3    H136466   2.625   5.708   0.528  0.3438 -0.6942  1.5534
 5017TIP3    H236467   2.563   5.846   0.531  0.4276 -0.6355  0.6724
 5018TIP3   OH236468   3.937   5.845   5.297  0.0165  0.6684  0.1391
 5018TIP3    H136469   4.028   5.859   5.272  0.0401 -0.6524 -0.5905
 5018TIP3    H236470   3.886   5.890   5.230  0.1214 -0.0017 -0.3978
 5019TIP3   OH236471   1.712   3.082   1.912 -0.6869 -0.0827 -0.1652
 5019TIP3    H136472   1.733   3.175   1.899 -1.1014 -0.1661 -1.5324
 5019TIP3    H236473   1.659   3.058   1.836 -0.1828 -1.5698 -0.0796
 5020TIP3   OH236474   6.608   4.679  13.959 -0.4513  0.6419 -0.1416
 5020TIP3    H136475   6.527   4.635  13.932 -0.4319  0.6386 -0.1960
 5020TIP3    H236476   6.674   4.610  13.958 -0.5161  0.5710  0.2335
 5021TIP3   OH236477   4.151   0.703  12.912  0.0033 -0.1913 -1.0923
 5021TIP3    H136478   4.118   0.782  12.955 -1.4369 -1.4949  0.3435
 5021TIP3    H236479   4.167   0.642  12.984 -1.5379 -2.1420 -2.3044
 5022TIP3   OH236480   3.268   4.973   6.739  0.2603 -0.5393  0.6798
 5022TIP3    H136481   3.303   5.058   6.767  0.0716 -0.8551  1.8917
 5022TIP3    H236482   3.173   4.983   6.746 -0.1065  0.5070 -3.1180
 5023TIP3   OH236483   1.985   3.473   2.729 -0.4989  0.1332 -0.5307
 5023TIP3    H136484   1.929   3.412   2.682  0.1318  0.0567 -1.2110
 5023TIP3    H236485   1.932   3.504   2.802 -0.7266 -1.4391 -0.0038
 5024TIP3   OH236486   1.891   2.990  11.270 -0.6011 -0.1940 -0.2642
 5024TIP3    H136487   1.861   2.907  11.307 -0.7340  0.4374  1.1043
 5024TIP3    H236488   1.902   2.972  11.176 -0.8783 -1.6716 -0.0362
 5025TIP3   OH236489   0.573   3.289  13.215  0.6164 -0.2529  0.1726
 5025TIP3    H136490   0.580   3.196  13.236  0.8603  0.0050  1.2979
 5025TIP3    H236491   0.510   3.323  13.279  0.1202  0.2596 -0.5707
 5026TIP3   OH236492   2.178   3.550   0.139 -0.7966  0.1148 -0.2501
 5026TIP3    H136493   2.172   3.475   0.198  2.6056  0.2164  0.4280
 5026TIP3    H236494   2.106   3.538   0.076 -1.6215 -2.5321  1.0843
 5027TIP3   OH236495   6.305   4.642   5.272  0.5292 -0.1059 -0.4291
 5027TIP3    H136496   6.247   4.707   5.311 -0.1142 -1.0938  0.3072
 5027TIP3    H236497   6.257   4.610   5.196 -1.0351 -2.5969  1.4601
 5028TIP3   OH236498   2.784   4.268   0.605 -0.1044 -0.5680  0.1432
 5028TIP3    H136499   2.747   4.355   0.594  1.0999 -0.1222 -0.4810
 5028TIP3    H236500   2.749   4.238   0.690  0.2427  0.9096  0.8339
 5029TIP3   OH236501   1.880   0.992  14.584  0.1615  0.0954 -0.3399
 5029TIP3    H136502   1.786   1.002  14.600 -0.3871 -1.4589 -2.2724
 5029TIP3    H236503   1.919   1.073  14.618 -1.9272  0.9811  0.0654
 5030TIP3   OH236504   5.574   1.868   4.577  0.6127 -0.2072 -0.7899
 5030TIP3    H136505   5.513   1.906   4.641  2.1391  0.3867  0.3831
 5030TIP3    H236506   5.557   1.916   4.496  0.3820  0.8488 -0.1346
 5031TIP3   OH236507   4.942   6.545  11.904 -0.2149  0.1865 -0.2116
 5031TIP3    H136508   5.012   6.574  11.962  0.1290  0.0927 -0.5786
 5031TIP3    H236509   4.946   6.605  11.830  0.3475 -0.6504 -0.8681
 5032TIP3   OH236510   3.458   2.350  11.081  0.0519  0.5619  0.3866
 5032TIP3    H136511   3.385   2.289  11.071  1.6600 -1.1578 -1.9133
 5032TIP3    H236512   3.522   2.302  11.133  0.8324  0.7256 -0.3933
 5033TIP3   OH236513   5.168   3.852  13.584 -0.1943 -0.3179 -0.0214
 5033TIP3    H136514   5.242   3.804  13.546 -0.6844 -1.0556 -0.0462
 5033TIP3    H236515   5.124   3.891  13.509  0.6397  0.8374  0.0516
 5034TIP3   OH236516   6.391   3.470  13.856  0.3342  0.1277  0.4052
 5034TIP3    H136517   6.359   3.561  13.861  2.5559  1.1324 -1.7630
 5034TIP3    H236518   6.483   3.478  13.834  0.5640 -2.7064 -0.0411
 5035TIP3   OH236519   4.431   6.739  15.566 -0.0114  0.4204  0.1591
 5035TIP3    H136520   4.470   6.691  15.493 -0.5696  0.1886  0.0013
 5035TIP3    H236521   4.505   6.779  15.612  0.5381 -1.0284  0.6103
 5036TIP3   OH236522   3.382   0.562  15.650  0.2785  0.2349  0.2720
 5036TIP3    H136523   3.364   0.492  15.713 -0.5590  0.3605  0.1862
 5036TIP3    H236524   3.296   0.598  15.629  0.6342  0.8065 -0.2458
 5037TIP3   OH236525   3.567   3.572  11.514  0.2388  0.0521  0.6378
 5037TIP3    H136526   3.540   3.537  11.428  2.1589 -0.0526  0.0342
 5037TIP3    H236527   3.638   3.514  11.542  0.8488  1.1598  1.4501
 5038TIP3   OH236528   6.490   3.978  14.009 -0.1878  0.3678 -0.2908
 5038TIP3    H136529   6.550   3.995  13.936  0.5221 -0.9863 -0.0493
 5038TIP3    H236530   6.403   3.996  13.972  0.1901  0.0835 -1.3782
 5039TIP3   OH236531   3.834   2.111  14.827 -0.3147 -0.0428 -0.4407
 5039TIP3    H136532   3.779   2.041  14.790 -0.8437 -0.0593  0.3508
 5039TIP3    H236533   3.777   2.188  14.828  0.5761  0.6783 -2.2262
 5040TIP3   OH236534   6.658   2.700   4.063  0.2605  0.2205  0.0252
 5040TIP3    H136535   6.717   2.769   4.033  1.0042 -0.0092  0.9563
 5040TIP3    H236536   6.712   2.642   4.115 -0.2665 -1.2932 -1.0343
 5041TIP3   OH236537   4.482   1.167   5.192  0.4026 -0.3045 -0.0470
 5041TIP3    H136538   4.465   1.099   5.258 -0.0937 -2.6626 -2.4350
 5041TIP3    H236539   4.395   1.193   5.163  0.6159 -0.8324 -1.2053
 5042TIP3   OH236540   3.243   3.266   5.540  0.0107  0.0779 -0.4506
 5042TIP3    H136541   3.152   3.292   5.526  0.4797  1.0306 -1.8669
 5042TIP3    H236542   3.293   3.347   5.529  1.1903 -0.7637 -1.4212
 5043TIP3   OH236543   4.447   1.366   0.975 -0.3765 -0.0576 -0.7839
 5043TIP3    H136544   4.524   1.312   0.960 -2.2185 -3.9789  2.0307
 5043TIP3    H236545   4.396   1.359   0.894  0.9018  0.2027 -1.6262
 5044TIP3   OH236546   1.849   1.808   1.194 -0.5857  0.2572  0.2304
 5044TIP3    H136547   1.899   1.832   1.116 -2.2430  0.7212 -0.7525
 5044TIP3    H236548   1.830   1.891   1.238  0.1391  0.0178  1.0101
 5045TIP3   OH236549   5.804   0.475  13.563  0.1456 -0.5544  0.0271
 5045TIP3    H136550   5.729   0.434  13.521 -0.0234 -1.0537  0.7888
 5045TIP3    H236551   5.772   0.502  13.649  0.3353  0.9227 -0.3252
 5046TIP3   OH236552   1.785   5.776  14.560 -0.5557 -0.3472  0.2539
 5046TIP3    H136553   1.775   5.681  14.553 -0.7939 -0.3581  0.6864
 5046TIP3    H236554   1.816   5.790  14.650  3.2023 -0.2844 -0.8894
 5047TIP3   OH236555   2.387   3.936   3.021  0.2074 -0.4550  0.4021
 5047TIP3    H136556   2.420   3.909   3.106  1.4235 -2.1977 -0.5487
 5047TIP3    H236557   2.311   3.879   3.005 -0.8594  0.8010  0.8775
 5048TIP3   OH236558   6.698   4.079   4.244  0.2952 -0.3704 -0.4830
 5048TIP3    H136559   6.650   4.138   4.303  1.1962  0.8075 -0.9091
 5048TIP3    H236560   6.684   3.992   4.282 -0.0162  0.2447  0.8836
 5049TIP3   OH236561   1.110   1.673  14.632 -0.6825 -0.6006  0.0826
 5049TIP3    H136562   1.136   1.716  14.551 -0.4883  0.6072  0.7581
 5049TIP3    H236563   1.189   1.625  14.660 -0.4617 -0.2665  0.0337
 5050TIP3   OH236564   3.822   4.701  13.490 -0.1114  0.6387  0.1101
 5050TIP3    H136565   3.823   4.613  13.454 -0.9591  1.0696 -1.0031
 5050TIP3    H236566   3.732   4.731  13.480 -0.2794  0.9712  2.1531
 5051TIP3   OH236567   4.849   3.147   3.114  0.7916 -0.0595  0.1663
 5051TIP3    H136568   4.860   3.063   3.158  0.8122 -0.0509  0.1776
 5051TIP3    H236569   4.863   3.129   3.022  1.5093  0.0683  0.2464
 5052TIP3   OH236570   2.268   6.640   4.763  0.0698 -0.0140  0.0331
 5052TIP3    H136571   2.268   6.565   4.822 -1.1826 -0.5675 -0.6445
 5052TIP3    H236572   2.259   6.716   4.821  0.2170 -0.4520  0.6450
 5053TIP3   OH236573   0.440   2.434  13.463  0.0519  0.4255  0.1389
 5053TIP3    H136574   0.370   2.411  13.524  0.0237 -0.6930 -0.2804
 5053TIP3    H236575   0.518   2.393  13.500 -0.2531 -1.7002 -1.3352
 5054TIP3   OH236576   5.439   4.111  17.051  0.4868 -0.7112 -0.8421
 5054TIP3    H136577   5.460   4.190  17.102  1.4970 -1.4929 -0.0104
 5054TIP3    H236578   5.386   4.057  17.110 -0.5056 -0.5235 -1.5342
 5055TIP3   OH236579   4.547   2.484   0.688  0.9036  0.0518  0.1126
 5055TIP3    H136580   4.559   2.440   0.773 -0.3234 -1.4686 -0.4441
 5055TIP3    H236581   4.554   2.577   0.708  3.4020 -0.3401  1.3891
 5056TIP3   OH236582   2.581   0.492  12.631  0.5656 -0.0117  0.4115
 5056TIP3    H136583   2.675   0.476  12.622  0.4783 -0.9368  0.9760
 5056TIP3    H236584   2.542   0.405  12.633 -0.5055  0.3560 -1.5492
 5057TIP3   OH236585   1.994   1.098  15.236 -0.0614  0.0871  0.3187
 5057TIP3    H136586   1.971   1.178  15.188  1.6352 -1.0462 -2.5722
 5057TIP3    H236587   2.050   1.129  15.308  0.5237  1.5131 -0.7061
 5058TIP3   OH236588   2.561   6.196   5.212 -0.1728  0.0630  0.0732
 5058TIP3    H136589   2.477   6.163   5.181 -0.7100  1.8685 -0.5200
 5058TIP3    H236590   2.542   6.284   5.244  1.1464 -0.2188  1.8213
 5059TIP3   OH236591   1.885   6.657  11.862 -0.0635  0.3529 -0.0569
 5059TIP3    H136592   1.831   6.673  11.939  1.3378  2.6440  0.5556
 5059TIP3    H236593   1.833   6.689  11.788  0.0194  1.6575  0.4203
 5060TIP3   OH236594   3.234   4.693   5.067  0.1495 -0.2094  0.1744
 5060TIP3    H136595   3.146   4.727   5.083 -0.1914 -1.4529  1.1416
 5060TIP3    H236596   3.285   4.769   5.040 -0.9589  0.7369  0.6670
 5061TIP3   OH236597   0.397   1.373   1.095 -0.2741  0.3665  0.2814
 5061TIP3    H136598   0.460   1.361   1.023 -0.3329  1.6607 -0.0050
 5061TIP3    H236599   0.384   1.285   1.129  0.5174 -0.1423 -0.6547
 5062TIP3   OH236600   0.049   1.923   5.346 -0.5737  0.0938  0.5859
 5062TIP3    H136601   0.127   1.875   5.318  1.0632  1.9646  1.6606
 5062TIP3    H236602  -0.001   1.936   5.266  0.6677 -0.4003 -0.3122
 5063TIP3   OH236603   2.158   6.656  15.745  0.2211 -0.6043  0.1953
 5063TIP3    H136604   2.125   6.646  15.834 -1.2548  0.0590 -0.2455
 5063TIP3    H236605   2.080   6.655  15.690  1.0404 -0.2159 -1.0287
 5064TIP3   OH236606   2.759   4.608   2.321 -0.3039 -0.3052  0.2695
 5064TIP3    H136607   2.834   4.616   2.380 -0.7463 -1.8127  1.1020
 5064TIP3    H236608   2.794   4.569   2.241 -0.2351 -1.3999  0.8113
 5065TIP3   OH236609   3.130   1.388  16.623  0.1300  0.4336 -0.1640
 5065TIP3    H136610   3.142   1.303  16.664  1.4720  0.5684 -0.2470
 5065TIP3    H236611   3.131   1.369  16.529  1.5648  0.6470 -0.2171
 5066TIP3   OH236612   3.095   3.729  10.695 -0.5288 -0.4288 -0.4497
 5066TIP3    H136613   3.136   3.682  10.622  0.3597  1.7066 -1.3996
 5066TIP3    H236614   3.164   3.737  10.760 -1.3654 -2.4703  0.7904
 5067TIP3   OH236615   1.992   2.733  15.370  0.4141 -0.0188  0.1848
 5067TIP3    H136616   1.965   2.798  15.435 -0.4004 -0.8951  0.7454
 5067TIP3    H236617   1.964   2.649  15.406  1.6750 -0.7310 -0.4081
 5068TIP3   OH236618   0.858   3.809  12.372 -0.0301  0.2427  0.5493
 5068TIP3    H136619   0.871   3.878  12.307  0.6479  0.8929  1.3465
 5068TIP3    H236620   0.900   3.732  12.335  3.2665  1.3991  1.5427
 5069TIP3   OH236621   3.132   5.469  13.715  0.3596  0.3882  0.0668
 5069TIP3    H136622   3.158   5.560  13.725 -0.2912  0.6797 -0.7249
 5069TIP3    H236623   3.215   5.421  13.704  0.6622  1.0334 -0.5451
 5070TIP3   OH236624   5.610   0.747   4.511 -0.2608  0.3967 -0.0046
 5070TIP3    H136625   5.676   0.720   4.448 -2.0838  0.5963 -2.1181
 5070TIP3    H236626   5.640   0.831   4.544  1.1995 -0.1570  0.1650
 5071TIP3   OH236627   3.230   2.894  14.465  0.1295 -0.0158 -0.5787
 5071TIP3    H136628   3.233   2.989  14.471 -0.7730  0.1234 -1.8415
 5071TIP3    H236629   3.136   2.873  14.460  0.3472 -0.8066 -2.1245
 5072TIP3   OH236630   5.725   5.702   4.210 -0.1741  0.2755 -0.2944
 5072TIP3    H136631   5.693   5.622   4.252  0.5246 -0.4057 -1.0323
 5072TIP3    H236632   5.723   5.768   4.279 -1.9340 -0.0586  0.0148
 5073TIP3   OH236633   4.089   0.820  16.126  0.0086  0.7794 -0.2773
 5073TIP3    H136634   4.149   0.760  16.169  0.3808  0.0453 -1.7525
 5073TIP3    H236635   4.124   0.830  16.037 -1.0799  1.7211 -0.6357
 5074TIP3   OH236636   6.123   6.267   5.389  0.6730  0.1600 -0.5954
 5074TIP3    H136637   6.126   6.363   5.390 -1.5006  0.2844 -1.1220
 5074TIP3    H236638   6.121   6.244   5.297 -0.5941 -0.2673 -0.4828
 5075TIP3   OH236639   6.029   3.210  17.035 -0.4369  0.8719 -0.4880
 5075TIP3    H136640   6.088   3.139  17.061  0.3442  2.1576  1.4533
 5075TIP3    H236641   6.083   3.264  16.977 -0.5536  0.6985 -0.7618
 5076TIP3   OH236642   2.766   6.163   3.129 -0.2529 -0.0499  0.4769
 5076TIP3    H136643   2.735   6.254   3.123  0.4585  0.0933 -1.5947
 5076TIP3    H236644   2.836   6.157   3.065  0.9546 -1.6109  1.8472
 5077TIP3   OH236645   6.468   3.061   5.997 -0.0078 -0.2247  0.0854
 5077TIP3    H136646   6.535   2.993   5.995 -0.5372 -0.7486 -1.0077
 5077TIP3    H236647   6.448   3.072   6.090  2.5085  0.9102  0.5887
 5078TIP3   OH236648   6.567   4.546   3.899 -0.4122  0.1063 -0.1569
 5078TIP3    H136649   6.476   4.538   3.870 -1.4176 -0.1528  2.7323
 5078TIP3    H236650   6.569   4.628   3.948  1.1297  0.4780 -0.8033
 5079TIP3   OH236651   5.767   0.457   2.305  0.2672 -0.3111  0.2973
 5079TIP3    H136652   5.690   0.447   2.249  1.0414  1.2353 -1.1453
 5079TIP3    H236653   5.747   0.406   2.383 -1.5990 -1.1270 -0.6502
 5080TIP3   OH236654   0.091   0.867  16.387  0.6005 -0.0227  0.6712
 5080TIP3    H136655   0.019   0.857  16.324  1.8441  1.3942 -1.0769
 5080TIP3    H236656   0.165   0.823  16.345  2.3277  3.6213 -0.5331
 5081TIP3   OH236657   3.765   2.830  17.037  0.4658  0.0566 -0.0495
 5081TIP3    H136658   3.843   2.777  17.050 -0.8193 -1.9277 -0.0004
 5081TIP3    H236659   3.754   2.835  16.942  0.7929  0.5657 -0.0634
 5082TIP3   OH236660   0.587   0.655   1.161 -0.2850  0.1832 -0.1571
 5082TIP3    H136661   0.646   0.606   1.105  0.6165 -0.4656  1.3098
 5082TIP3    H236662   0.585   0.743   1.124  0.1667 -0.2691 -1.2723
 5083TIP3   OH236663   5.091   2.185  15.349  0.1293 -0.1561  0.2830
 5083TIP3    H136664   5.025   2.117  15.335 -2.0269  1.5562  1.4599
 5083TIP3    H236665   5.151   2.148  15.414  0.8867 -2.0692 -1.4238
 5084TIP3   OH236666   5.636   4.003  13.768 -0.0794  0.8447 -0.9757
 5084TIP3    H136667   5.666   4.087  13.733  2.6017  0.0156 -0.8767
 5084TIP3    H236668   5.603   4.024  13.855  0.4474  1.7976 -0.9951
 5085TIP3   OH236669   3.240   2.191   4.710  0.4303  0.1508 -0.2595
 5085TIP3    H136670   3.291   2.175   4.789  0.8320 -1.3713 -0.7969
 5085TIP3    H236671   3.273   2.275   4.677  1.2435  0.1127  0.4197
 5086TIP3   OH236672   0.578   2.650   5.303 -0.4438 -0.0809 -0.2317
 5086TIP3    H136673   0.642   2.646   5.232 -0.9006 -1.5156 -0.6050
 5086TIP3    H236674   0.496   2.621   5.262 -0.7748 -0.6681  0.8116
 5087TIP3   OH236675   6.772   4.838   5.539 -0.3003 -0.0154 -1.0021
 5087TIP3    H136676   6.786   4.932   5.545  0.9061 -0.1286 -1.6842
 5087TIP3    H236677   6.757   4.810   5.629 -3.2987  1.1531 -1.0063
 5088TIP3   OH236678   4.365   2.686  12.762  1.1015  0.0021 -0.2642
 5088TIP3    H136679   4.361   2.755  12.697  0.2335  0.1623 -0.0518
 5088TIP3    H236680   4.332   2.726  12.843  0.6874 -0.6245 -0.1115
 5089TIP3   OH236681   1.190   3.471   3.608 -0.2565 -0.1160 -0.6201
 5089TIP3    H136682   1.175   3.405   3.540  0.2440  1.1091 -1.9807
 5089TIP3    H236683   1.254   3.531   3.569 -1.1682  1.5272  0.3123
 5090TIP3   OH236684   6.533   5.618  10.497  0.7054 -0.3673 -0.0385
 5090TIP3    H136685   6.617   5.663  10.505  0.5903 -0.0767 -0.4042
 5090TIP3    H236686   6.479   5.656  10.566  0.6369  0.0044 -0.2887
 5091TIP3   OH236687   4.129   3.352  10.761  0.4976  0.7176 -0.2360
 5091TIP3    H136688   4.165   3.440  10.753  1.2060  0.5573  0.9063
 5091TIP3    H236689   4.206   3.296  10.771  0.0021  0.1623  0.5697
 5092TIP3   OH236690   5.923   3.266  12.940 -0.4110 -0.0298 -0.0446
 5092TIP3    H136691   5.828   3.272  12.944 -0.7352 -1.6839 -2.7184
 5092TIP3    H236692   5.945   3.194  13.000 -0.7832  0.5510  0.8069
 5093TIP3   OH236693   4.908   2.813  11.984 -0.0482 -0.2160  0.1754
 5093TIP3    H136694   4.967   2.738  11.990  1.1752  0.6712 -0.3926
 5093TIP3    H236695   4.966   2.889  11.976 -1.2415  0.8382  1.0320
 5094TIP3   OH236696   6.352   5.385  12.340 -0.5521  0.1993  0.0487
 5094TIP3    H136697   6.432   5.389  12.392 -1.8670 -0.4378  2.2503
 5094TIP3    H236698   6.382   5.396  12.250  2.3338 -2.5901  0.4752
 5095TIP3   OH236699   3.611   5.857  16.881  0.7892  0.2146  0.8316
 5095TIP3    H136700   3.577   5.770  16.861  1.5362  0.2798 -0.9082
 5095TIP3    H236701   3.697   5.841  16.921  1.4829  0.1403 -0.6332
 5096TIP3   OH236702   0.594   0.949   3.099 -0.3568  0.7858  0.0947
 5096TIP3    H136703   0.537   0.976   3.172 -0.5054  0.1333  0.2320
 5096TIP3    H236704   0.559   0.864   3.072  1.0357 -0.0250  0.7210
 5097TIP3   OH236705   3.696   0.798  15.970  0.1790 -0.1398  0.4105
 5097TIP3    H136706   3.617   0.775  15.921  1.6543 -1.3362 -1.5594
 5097TIP3    H236707   3.716   0.888  15.944  0.1182 -0.2455 -0.0036
 5098TIP3   OH236708   4.312   2.427  12.314  0.0216  0.3107  0.2494
 5098TIP3    H136709   4.249   2.358  12.332  1.4018 -1.0827 -0.0392
 5098TIP3    H236710   4.265   2.489  12.259 -0.5261 -1.6870 -1.6407
 5099TIP3   OH236711   6.259   6.378  16.822  0.4204  0.2046 -0.6004
 5099TIP3    H136712   6.286   6.401  16.733  0.6742  1.6539 -0.1793
 5099TIP3    H236713   6.213   6.456  16.854 -0.6115 -0.6877  0.1757
 5100TIP3   OH236714   3.222   5.169  15.965 -0.3171  0.0384 -0.0915
 5100TIP3    H136715   3.266   5.232  15.910  0.3584 -0.6628 -0.3717
 5100TIP3    H236716   3.259   5.183  16.052 -0.0628 -0.0683 -0.1822
 5101TIP3   OH236717   2.109   2.531   0.084 -0.0293  0.2341  0.2857
 5101TIP3    H136718   2.089   2.438   0.084 -0.2984  0.2911  0.4183
 5101TIP3    H236719   2.025   2.574   0.067  0.0847  0.4535  0.2691
 5102TIP3   OH236720   4.506   4.676  12.943  0.2719 -0.4492 -0.3626
 5102TIP3    H136721   4.460   4.655  12.861  0.3184 -1.0276 -0.2456
 5102TIP3    H236722   4.456   4.631  13.011  2.0272 -2.6913 -0.4279
 5103TIP3   OH236723   1.064   1.423   0.636  0.2197 -0.0461 -0.1918
 5103TIP3    H136724   1.016   1.424   0.718 -2.1134 -1.1627 -1.4338
 5103TIP3    H236725   1.067   1.330   0.611  0.2344  0.3208 -1.6816
 5104TIP3   OH236726   0.280   2.210  16.604 -0.0909  0.2084  0.1985
 5104TIP3    H136727   0.217   2.238  16.671 -0.2854  0.5975 -0.1403
 5104TIP3    H236728   0.365   2.232  16.641 -0.1328 -0.5963  0.7881
 5105TIP3   OH236729   1.774   5.771  12.367  0.1685 -0.1818  0.1944
 5105TIP3    H136730   1.684   5.801  12.355  0.1470 -0.1526  0.4311
 5105TIP3    H236731   1.817   5.794  12.284 -0.3609 -1.3758 -0.4321
 5106TIP3   OH236732   0.875   6.725  15.414 -0.4351 -0.6005  0.5599
 5106TIP3    H136733   0.886   6.730  15.509  0.5156 -1.5741  0.5227
 5106TIP3    H236734   0.945   6.781  15.379 -0.0122 -1.2083  0.4218
 5107TIP3   OH236735   2.102   0.435  14.749 -0.4372  0.4354  0.3237
 5107TIP3    H136736   2.009   0.411  14.756  0.0333 -1.1332  1.7847
 5107TIP3    H236737   2.138   0.417  14.836  1.1851  1.3018 -0.1334
 5108TIP3   OH236738   5.397   1.215  16.463 -0.0819 -0.3954  1.0295
 5108TIP3    H136739   5.323   1.195  16.405  0.5082  3.4732 -1.4488
 5108TIP3    H236740   5.470   1.165  16.427 -0.2948  0.0522 -0.0767
 5109TIP3   OH236741   6.393   6.680  15.333 -0.1955 -0.1002  0.2128
 5109TIP3    H136742   6.352   6.755  15.291 -1.3570 -0.3583  0.8239
 5109TIP3    H236743   6.338   6.606  15.309 -1.1674 -0.1994  2.4447
 5110TIP3   OH236744   1.244   6.645   1.735 -0.2515  0.0258 -0.5164
 5110TIP3    H136745   1.324   6.619   1.781 -0.3502  0.1261 -0.2856
 5110TIP3    H236746   1.275   6.681   1.652 -0.1715 -1.8801 -1.3628
 5111TIP3   OH236747   3.087   0.734  15.294 -0.4640 -0.1329 -0.5051
 5111TIP3    H136748   3.151   0.745  15.223 -0.5648  1.4023 -0.3995
 5111TIP3    H236749   3.004   0.723  15.248 -0.4776  0.4970 -0.6447
 5112TIP3   OH236750   2.494   2.828  15.999  0.3574 -0.0132  0.2739
 5112TIP3    H136751   2.421   2.889  15.996  1.1822  1.2026  2.4183
 5112TIP3    H236752   2.572   2.884  15.995  1.1414 -0.9285  1.7597
 5113TIP3   OH236753   1.526   5.478   1.809  0.0781  0.3156 -0.3470
 5113TIP3    H136754   1.469   5.461   1.884 -0.4553  3.1916  0.0236
 5113TIP3    H236755   1.481   5.436   1.735  0.3175 -2.0604  0.7611
 5114TIP3   OH236756   0.923   4.989  15.037  0.1726  0.0187 -0.7411
 5114TIP3    H136757   0.971   4.950  14.964  0.3639  0.0883 -0.6515
 5114TIP3    H236758   0.906   5.079  15.009  0.6508  0.1838 -0.5066
 5115TIP3   OH236759   3.942   4.778  11.679 -0.4716  0.4461 -0.1099
 5115TIP3    H136760   3.901   4.789  11.764 -2.9966 -2.6694 -0.7226
 5115TIP3    H236761   3.878   4.813  11.616 -0.4580 -0.8028 -0.8688
 5116TIP3   OH236762   3.892   6.700  12.652  0.1773 -0.0796 -0.4118
 5116TIP3    H136763   3.905   6.647  12.731 -2.0438  2.8586  2.1537
 5116TIP3    H236764   3.947   6.657  12.586  1.7426 -3.0535  2.4923
 5117TIP3   OH236765   3.406   3.798   5.951  0.0015  0.0223 -0.5472
 5117TIP3    H136766   3.431   3.890   5.956 -0.4414  0.1813 -1.2097
 5117TIP3    H236767   3.404   3.769   6.042 -0.4071  0.8133 -0.2960
 5118TIP3   OH236768   5.397   0.421   5.723  0.3990 -0.0252 -0.5851
 5118TIP3    H136769   5.358   0.491   5.775  1.2133  0.2347 -0.3176
 5118TIP3    H236770   5.411   0.349   5.785 -0.6249 -0.5189 -0.8985
 5119TIP3   OH236771   5.247   1.997   3.431  0.6296 -0.1820  0.0731
 5119TIP3    H136772   5.299   2.018   3.354  1.0711  0.2761  0.4993
 5119TIP3    H236773   5.246   1.901   3.433 -0.3677 -0.2296 -1.1615
 5120TIP3   OH236774   0.687   3.497  15.709  0.3220 -0.0548 -0.0541
 5120TIP3    H136775   0.615   3.519  15.769 -1.0379 -2.8626 -0.4827
 5120TIP3    H236776   0.760   3.474  15.766  0.3576  1.1699  0.4173
 5121TIP3   OH236777   0.543   5.644  12.609  0.1218  0.6221  0.0942
 5121TIP3    H136778   0.510   5.640  12.699  0.2747  1.1979  0.1852
 5121TIP3    H236779   0.539   5.737  12.587  1.1169  0.6336 -0.0956
 5122TIP3   OH236780   1.602   2.751  11.612  0.4881 -0.3237 -0.1534
 5122TIP3    H136781   1.562   2.750  11.699 -1.6324 -1.8482 -1.0758
 5122TIP3    H236782   1.677   2.692  11.620  0.1648 -0.6538  0.5698
 5123TIP3   OH236783   5.246   6.108  14.001 -0.2534 -0.3325 -0.1117
 5123TIP3    H136784   5.325   6.139  13.958  0.3600 -0.1155  1.1177
 5123TIP3    H236785   5.228   6.023  13.960  0.5993 -0.3669 -0.4243
 5124TIP3   OH236786   0.099   3.187   4.323  0.2643 -0.0677 -0.3187
 5124TIP3    H136787   0.061   3.120   4.381 -0.8869  0.1716 -0.7672
 5124TIP3    H236788   0.028   3.250   4.310  1.2376  1.0926 -0.1467
 5125TIP3   OH236789   0.445   5.976  14.663  0.2298 -0.5963 -0.1427
 5125TIP3    H136790   0.527   5.942  14.629  0.7925 -0.6043  1.1698
 5125TIP3    H236791   0.471   6.038  14.732 -0.8475 -0.3715  0.0819
 5126TIP3   OH236792   4.220   0.031   5.437  0.2812  0.2578  0.3588
 5126TIP3    H136793   4.273   0.008   5.513  3.6455  3.7850 -0.6055
 5126TIP3    H236794   4.168   0.106   5.466  0.7679  0.9255 -0.4635
 5127TIP3   OH236795   1.745   0.388   5.920 -1.1043  0.1084  0.4357
 5127TIP3    H136796   1.659   0.357   5.889 -0.8010 -0.5191  0.1950
 5127TIP3    H236797   1.800   0.386   5.843 -1.0928  1.3709  0.4021
 5128TIP3   OH236798   0.853   5.507  11.868  0.0321  0.4520  0.4532
 5128TIP3    H136799   0.910   5.553  11.929 -1.6396  0.2008  2.3250
 5128TIP3    H236800   0.897   5.423  11.852 -0.0978 -0.0316  2.4173
 5129TIP3   OH236801   6.442   3.782   1.945  0.0635 -0.2431  0.0622
 5129TIP3    H136802   6.423   3.871   1.915  1.4236  0.6646  1.7332
 5129TIP3    H236803   6.378   3.766   2.014 -1.5211 -1.4237 -1.5775
 5130TIP3   OH236804   4.841   1.149  12.387 -0.1278 -0.5621  0.4395
 5130TIP3    H136805   4.858   1.193  12.304  0.0874 -0.4119  0.5615
 5130TIP3    H236806   4.927   1.137  12.426 -0.3092  0.5836  1.2502
 5131TIP3   OH236807   2.216   4.355  16.551 -0.0668 -0.1652  0.1687
 5131TIP3    H136808   2.125   4.342  16.522  0.0027 -0.9585  0.3020
 5131TIP3    H236809   2.207   4.398  16.637 -0.3005  0.4223 -0.1424
 5132TIP3   OH236810   4.947   6.466   4.952  0.1392 -0.4412 -0.4449
 5132TIP3    H136811   4.945   6.550   4.997 -1.0353 -1.4368  1.5096
 5132TIP3    H236812   4.977   6.486   4.864 -1.3675  2.2179 -0.4327
 5133TIP3   OH236813   3.639   0.625   6.239 -0.3189 -0.5610  0.3770
 5133TIP3    H136814   3.666   0.543   6.280  1.2634 -0.1732  0.1809
 5133TIP3    H236815   3.679   0.693   6.293 -0.8945  0.0559  0.0390
 5134TIP3   OH236816   3.849   3.304   5.323 -0.4859 -0.1819  0.7881
 5134TIP3    H136817   3.820   3.389   5.291 -1.5582 -0.7847  0.0870
 5134TIP3    H236818   3.861   3.317   5.417  0.7200  1.0824  0.4968
 5135TIP3   OH236819   6.169   5.752  14.724 -0.2215 -0.0440 -0.0267
 5135TIP3    H136820   6.207   5.720  14.805  0.7777  0.2321 -0.3717
 5135TIP3    H236821   6.151   5.844  14.740  0.5846  0.1745 -0.3145
 5136TIP3   OH236822   1.674   4.004  15.535 -0.0947 -0.2919 -0.4231
 5136TIP3    H136823   1.760   4.027  15.568 -0.7193 -0.6455  1.5889
 5136TIP3    H236824   1.638   3.944  15.601 -2.1644  0.4617 -0.7815
 5137TIP3   OH236825   4.373   2.635   2.005  0.1935 -0.3533  0.4338
 5137TIP3    H136826   4.301   2.581   2.038 -0.8069 -0.3052 -1.5116
 5137TIP3    H236827   4.450   2.579   2.012 -0.7217 -1.8857 -1.0431
 5138TIP3   OH236828   1.081   2.527  11.729 -0.6419  0.4796  0.3663
 5138TIP3    H136829   1.147   2.514  11.797 -0.7896 -0.9591  0.2694
 5138TIP3    H236830   1.076   2.622  11.718 -0.7180  0.7777  2.4669
 5139TIP3   OH236831   5.241   4.492   4.939  0.0596 -0.3698  0.4560
 5139TIP3    H136832   5.215   4.523   5.026  1.9153 -0.9453  1.2770
 5139TIP3    H236833   5.266   4.401   4.953  0.4876 -0.4346 -0.6601
 5140TIP3   OH236834   4.952   2.968  14.859 -0.1555  0.3776 -0.1477
 5140TIP3    H136835   4.984   3.043  14.809 -0.2456  0.3486 -0.2480
 5140TIP3    H236836   4.878   2.935  14.809 -0.0814  0.1870 -0.1323
 5141TIP3   OH236837   6.382   4.513   2.925 -0.7255 -0.1025 -0.0025
 5141TIP3    H136838   6.338   4.514   3.010 -0.2297 -1.1763  0.2682
 5141TIP3    H236839   6.315   4.481   2.865 -0.5007 -1.1709  0.3091
 5142TIP3   OH236840   3.700   0.572   5.700  0.7293  0.1394  0.0707
 5142TIP3    H136841   3.672   0.515   5.771 -0.4785 -0.9081 -1.1828
 5142TIP3    H236842   3.670   0.659   5.726 -0.7764 -0.4224  0.3103
 5143TIP3   OH236843   3.251   5.166   1.110  0.1150  0.5923  0.1241
 5143TIP3    H136844   3.254   5.097   1.176  0.9151  0.7078  0.2128
 5143TIP3    H236845   3.306   5.134   1.039  2.3364  2.0485  1.0728
 5144TIP3   OH236846   2.102   4.394   0.589 -0.2383 -0.5232 -0.1959
 5144TIP3    H136847   2.113   4.487   0.609 -0.2086 -0.4358 -0.6022
 5144TIP3    H236848   2.185   4.368   0.548 -1.1272 -0.0949 -2.4216
 5145TIP3   OH236849   1.546   2.070   1.136  0.0749  0.2980 -0.5415
 5145TIP3    H136850   1.486   2.138   1.169  0.8758  0.3931  0.8050
 5145TIP3    H236851   1.490   2.010   1.087 -0.7528  1.5809 -1.2128
 5146TIP3   OH236852   0.715   2.632   0.426  0.2415 -0.1505  0.6331
 5146TIP3    H136853   0.644   2.626   0.362 -0.8308 -0.1827  1.8055
 5146TIP3    H236854   0.732   2.542   0.452  1.4655 -0.2479 -0.4251
 5147TIP3   OH236855   3.828   1.865  12.562  0.0222  0.1548 -0.3493
 5147TIP3    H136856   3.848   1.796  12.626  0.9667  0.3426 -0.4268
 5147TIP3    H236857   3.894   1.854  12.494 -0.9471 -0.0091 -1.2829
 5148TIP3   OH236858   6.521   5.923   2.121  0.4467 -0.4370  0.2017
 5148TIP3    H136859   6.497   5.832   2.101  3.3887 -1.4108  0.5330
 5148TIP3    H236860   6.451   5.976   2.083 -0.9108 -2.7932 -0.7798
 5149TIP3   OH236861   6.664   4.354   1.505  0.4231  0.0732  0.0576
 5149TIP3    H136862   6.580   4.315   1.529  0.5414 -0.4232 -0.3162
 5149TIP3    H236863   6.729   4.288   1.531  0.7005  0.4597  0.3602
 5150TIP3   OH236864   2.947   6.348   4.871  0.0120 -0.7240 -0.3906
 5150TIP3    H136865   2.934   6.288   4.945  2.7493  0.0242  0.7949
 5150TIP3    H236866   2.901   6.428   4.897 -0.2220 -0.9372 -0.1395
 5151TIP3   OH236867   1.971   1.697   0.163 -0.2306  0.4408  0.6473
 5151TIP3    H136868   2.058   1.710   0.123 -0.1601 -2.4647 -0.3903
 5151TIP3    H236869   1.914   1.676   0.089 -1.4072  0.4958  1.5218
 5152TIP3   OH236870   4.341   1.318  14.794  0.5249  0.4209 -0.9936
 5152TIP3    H136871   4.270   1.361  14.747  0.3351  0.7979 -0.3733
 5152TIP3    H236872   4.304   1.298  14.880  1.4209  1.3897 -0.3594
 5153TIP3   OH236873   6.171   2.043   2.719  0.5340  0.1438 -0.3511
 5153TIP3    H136874   6.187   1.949   2.717  0.0445  0.0604 -0.3177
 5153TIP3    H236875   6.242   2.078   2.773  0.6279 -0.2215 -0.2382
 5154TIP3   OH236876   3.327   5.207  13.491  0.3108 -0.3052  0.3830
 5154TIP3    H136877   3.307   5.189  13.583  0.3617 -1.2983  0.2146
 5154TIP3    H236878   3.241   5.212  13.448  0.2546  0.9742  0.6134
 5155TIP3   OH236879   3.715   2.993   5.196 -0.2663  0.1865  0.9053
 5155TIP3    H136880   3.716   2.917   5.254 -0.8514 -0.5009  0.0280
 5155TIP3    H236881   3.633   2.986   5.148  0.5360  0.3440 -0.5376
 5156TIP3   OH236882   4.179   3.235   4.024 -0.2713  0.0310 -0.4208
 5156TIP3    H136883   4.113   3.304   4.023  0.9613  1.2582 -2.1233
 5156TIP3    H236884   4.154   3.176   3.954  0.4219  0.5127 -1.0872
 5157TIP3   OH236885   1.453   5.412  16.892  0.3891  0.3431 -0.3230
 5157TIP3    H136886   1.427   5.326  16.859  1.0690 -0.8305  1.9860
 5157TIP3    H236887   1.445   5.470  16.816  0.7052 -1.8907 -2.1731
 5158TIP3   OH236888   5.666   5.431   5.705  0.3482  0.2270 -0.1431
 5158TIP3    H136889   5.696   5.505   5.758 -0.0189 -0.9111  1.7554
 5158TIP3    H236890   5.730   5.362   5.722 -0.7033 -0.7022  0.1847
 5159TIP3   OH236891   2.928   4.172   3.927 -0.2982 -0.6680  0.4401
 5159TIP3    H136892   2.948   4.113   4.000 -2.2871 -0.5100  1.1721
 5159TIP3    H236893   2.869   4.237   3.964 -0.9131 -0.2501 -1.1813
 5160TIP3   OH236894   2.303   3.491  14.933  0.8445  0.1234  0.8056
 5160TIP3    H136895   2.336   3.505  14.844 -0.5500  1.4538  0.4475
 5160TIP3    H236896   2.208   3.506  14.925  0.6641  0.0182  2.4783
 5161TIP3   OH236897   0.688   1.142  14.009  0.7050 -0.4740 -0.2326
 5161TIP3    H136898   0.606   1.122  13.964  0.3115 -0.8750  0.6402
 5161TIP3    H236899   0.673   1.226  14.052  0.7289 -0.5673 -0.0369
 5162TIP3   OH236900   0.795   6.067   1.283 -0.6024  0.5266 -0.6966
 5162TIP3    H136901   0.753   5.992   1.240  0.0282 -1.2655  1.6190
 5162TIP3    H236902   0.883   6.070   1.244 -0.5469 -0.1193 -0.6346
 5163TIP3   OH236903   0.148   2.287  16.263 -0.3469 -0.0164  0.1440
 5163TIP3    H136904   0.179   2.201  16.236 -0.6536 -0.1418  0.1891
 5163TIP3    H236905   0.119   2.330  16.183 -1.5982 -0.5252  0.2980
 5164TIP3   OH236906   4.847   4.417  12.968  0.1385  0.4744  0.1837
 5164TIP3    H136907   4.848   4.503  12.928 -0.8439  1.6827  2.5629
 5164TIP3    H236908   4.756   4.402  12.993  0.7138 -0.0324  2.1923
 5165TIP3   OH236909   3.409   6.073  15.401  0.2686  0.4977 -1.1651
 5165TIP3    H136910   3.504   6.083  15.408  0.3690 -0.8812 -0.1136
 5165TIP3    H236911   3.387   6.109  15.315  1.7801  0.6122 -1.5280
 5166TIP3   OH236912   4.422   6.525  14.645 -0.1068  0.0478 -1.1932
 5166TIP3    H136913   4.376   6.581  14.707  0.1507 -0.8208 -0.1899
 5166TIP3    H236914   4.501   6.499  14.692 -0.0625 -0.8766 -1.7733
 5167TIP3   OH236915   4.574   5.808   3.330  0.2541 -0.3094  0.3576
 5167TIP3    H136916   4.479   5.811   3.344  0.5017  1.2657  2.0436
 5167TIP3    H236917   4.609   5.771   3.411  1.1751  0.5487  0.3643
 5168TIP3   OH236918   1.285   1.858  17.037  0.2716  0.1578  0.1249
 5168TIP3    H136919   1.222   1.790  17.061 -0.2977  1.0700  1.2945
 5168TIP3    H236920   1.367   1.811  17.024 -1.0879 -1.5284 -4.1815
 5169TIP3   OH236921   5.597   1.047   4.946 -0.0716 -0.3352  0.3139
 5169TIP3    H136922   5.668   1.096   4.988 -0.3515 -1.9069  2.8557
 5169TIP3    H236923   5.522   1.058   5.005 -0.8661 -1.6592 -0.3937
 5170TIP3   OH236924   2.053   0.806  14.474 -0.3692  0.4140  0.3637
 5170TIP3    H136925   2.097   0.748  14.536  0.2109  0.5189  0.0459
 5170TIP3    H236926   1.981   0.844  14.525 -1.6110 -1.5877  0.2326
 5171TIP3   OH236927   0.769   5.217  13.110  0.1889 -0.6000 -0.0618
 5171TIP3    H136928   0.772   5.184  13.020  1.3114  2.2963 -1.1868
 5171TIP3    H236929   0.855   5.194  13.146  0.6290  0.2680 -0.5383
 5172TIP3   OH236930   2.473   4.068  13.460 -0.4315 -0.6865  0.3305
 5172TIP3    H136931   2.469   4.126  13.383 -0.4015 -0.6829  0.3315
 5172TIP3    H236932   2.395   4.090  13.511  0.3807  0.4765  1.1295
 5173TIP3   OH236933   2.216   3.588  12.202  0.4073  0.0149  1.0052
 5173TIP3    H136934   2.149   3.553  12.261  0.1540 -0.3773  0.4949
 5173TIP3    H236935   2.289   3.527  12.209 -0.1433 -0.7982 -0.0992
 5174TIP3   OH236936   0.476   5.315  13.042 -0.3360 -0.1617 -0.1597
 5174TIP3    H136937   0.505   5.322  13.132  1.6542  0.4744 -0.7985
 5174TIP3    H236938   0.428   5.232  13.038 -0.5251 -0.1540  1.4662
 5175TIP3   OH236939   1.502   1.602   0.337 -0.1721 -0.2402  0.4044
 5175TIP3    H136940   1.442   1.641   0.400  0.6119 -0.7078  1.4641
 5175TIP3    H236941   1.585   1.596   0.383  0.9168  1.0608 -1.2625
 5176TIP3   OH236942   2.492   6.417  16.108 -0.5811  0.2075  0.3247
 5176TIP3    H136943   2.451   6.503  16.103  0.3638  0.6230 -0.5116
 5176TIP3    H236944   2.563   6.420  16.044  0.6805 -0.5177  1.6293
 5177TIP3   OH236945   1.113   6.664  12.522  0.1891  0.5544  0.6892
 5177TIP3    H136946   1.077   6.576  12.515 -0.8181  0.8033  2.3116
 5177TIP3    H236947   1.207   6.651  12.532  0.0135 -0.3527  1.2083
 5178TIP3   OH236948   6.388   1.613   1.601 -0.0551 -0.6553 -0.1993
 5178TIP3    H136949   6.417   1.534   1.647  0.6706 -0.3052 -0.0416
 5178TIP3    H236950   6.396   1.591   1.508  4.0830  0.5156 -0.3020
 5179TIP3   OH236951   3.550   4.264  13.482  0.0683  0.6322  0.1266
 5179TIP3    H136952   3.634   4.219  13.471 -0.3956  0.2214 -2.4113
 5179TIP3    H236953   3.485   4.199  13.455 -1.0654  1.0898  1.6320
 5180TIP3   OH236954   1.079   4.984  13.652  0.2882 -0.0943 -0.1404
 5180TIP3    H136955   1.114   4.982  13.741 -2.3057 -1.7867  0.9548
 5180TIP3    H236956   1.141   4.931  13.602  1.4828  0.4089  0.7184
 5181TIP3   OH236957   4.701   4.326  15.988  0.1195  0.0157 -0.1795
 5181TIP3    H136958   4.744   4.409  15.969 -0.5332  0.2575 -0.6555
 5181TIP3    H236959   4.716   4.311  16.081  0.8837  0.2843 -0.2555
 5182TIP3   OH236960   2.266   2.332   4.442  0.0798 -0.2283  0.3752
 5182TIP3    H136961   2.252   2.406   4.384  0.1806  0.4098  1.1451
 5182TIP3    H236962   2.338   2.360   4.499 -0.2433 -0.7064  1.0262
 5183TIP3   OH236963   6.711   0.476  13.182 -0.2215  1.2689  0.1547
 5183TIP3    H136964   6.714   0.546  13.116  1.9970  1.8996  0.8161
 5183TIP3    H236965   6.789   0.491  13.235  0.5000 -1.8693  0.1638
 5184TIP3   OH236966   4.646   0.431  15.045 -0.1134  0.1069 -0.3998
 5184TIP3    H136967   4.615   0.352  15.001 -0.7479 -0.3453  0.8367
 5184TIP3    H236968   4.741   0.432  15.028  0.0517 -1.3926  0.2639
 5185TIP3   OH236969   0.894   4.192   4.164  0.5661  0.1145 -0.3828
 5185TIP3    H136970   0.957   4.234   4.222 -0.8200  0.9759  0.5516
 5185TIP3    H236971   0.817   4.176   4.218 -0.1606 -0.6010 -1.5685
 5186TIP3   OH236972   6.013   6.336   2.237 -0.6547 -0.1309 -0.2834
 5186TIP3    H136973   5.934   6.352   2.185 -1.4601 -0.1861  0.8960
 5186TIP3    H236974   6.028   6.418   2.285 -0.8801 -0.6107  0.6328
 5187TIP3   OH236975   4.740   4.177   0.652  0.4311 -0.1627 -1.0780
 5187TIP3    H136976   4.657   4.155   0.609 -1.3280  0.9716  1.4966
 5187TIP3    H236977   4.730   4.143   0.741  1.7327  2.0947  0.0076
 5188TIP3   OH236978   3.440   4.936  13.969  0.2509 -0.4734 -0.2292
 5188TIP3    H136979   3.396   4.972  14.046  0.0270  0.2271 -0.6741
 5188TIP3    H236980   3.429   4.841  13.977 -2.5848 -0.2960 -1.0183
 5189TIP3   OH236981   1.136   5.628  14.711 -0.5042 -0.7406  0.4069
 5189TIP3    H136982   1.134   5.631  14.807  1.2831 -1.3328  0.4882
 5189TIP3    H236983   1.125   5.719  14.684  0.0278 -0.4314  1.2113
 5190TIP3   OH236984   2.341   3.495   1.422  0.3090 -0.0258 -0.0411
 5190TIP3    H136985   2.325   3.530   1.334  0.0025 -0.8989 -0.3381
 5190TIP3    H236986   2.381   3.568   1.469  0.3103  0.5125 -0.8498
 5191TIP3   OH236987   3.235   5.137   3.784  0.4777  0.4239 -0.5188
 5191TIP3    H136988   3.271   5.188   3.712  0.6482  1.3532  0.2117
 5191TIP3    H236989   3.301   5.144   3.854  0.3928 -0.5901 -0.3196
 5192TIP3   OH236990   0.232   3.566  14.359 -0.0288 -0.3646 -0.6803
 5192TIP3    H136991   0.278   3.562  14.443 -1.7732  0.3393  0.3576
 5192TIP3    H236992   0.261   3.649  14.319  0.8679 -0.7433 -0.8367
 5193TIP3   OH236993   1.985   5.596  15.632  0.7216  0.1236  0.2615
 5193TIP3    H136994   1.988   5.683  15.671  0.6835  0.8618 -1.3017
 5193TIP3    H236995   1.976   5.536  15.706 -2.6931  1.6143  1.2482
 5194TIP3   OH236996   2.362   5.011  14.518  0.1069  0.2420  0.2371
 5194TIP3    H136997   2.429   5.079  14.511  0.5179 -0.0330  1.2626
 5194TIP3    H236998   2.316   5.031  14.599 -1.5330  0.8266 -0.7949
 5195TIP3   OH236999   4.679   1.418  13.651 -0.1455  0.0524 -0.7064
 5195TIP3    H137000   4.732   1.382  13.580 -1.5259  1.7852 -2.7517
 5195TIP3    H237001   4.594   1.373  13.642 -0.2204  0.0119  0.1155
 5196TIP3   OH237002   4.937   0.383   5.746 -0.3539 -0.5618 -0.2455
 5196TIP3    H137003   4.913   0.325   5.818  2.3012 -2.0819 -0.4259
 5196TIP3    H237004   4.858   0.434   5.727 -1.7438 -1.6437  2.2750
 5197TIP3   OH237005   3.060   1.335  15.184  0.5940  0.0252  0.0968
 5197TIP3    H137006   3.131   1.386  15.145 -0.3424  0.3350 -1.2717
 5197TIP3    H237007   3.031   1.388  15.259  0.9393  0.5202 -0.1147
 5198TIP3   OH237008   0.329   6.053  11.245  0.2260  0.3646  0.4647
 5198TIP3    H137009   0.267   5.997  11.198 -0.9529  0.9297  1.3027
 5198TIP3    H237010   0.384   5.992  11.294 -0.4062 -0.1136  0.5934
 5199TIP3   OH237011   0.371   6.733  13.281  0.6107  0.4376  0.6796
 5199TIP3    H137012   0.329   6.800  13.227  1.1169 -0.4934 -0.9458
 5199TIP3    H237013   0.310   6.718  13.353 -0.1750  1.5940  0.2847
 5200TIP3   OH237014   1.094   1.171  11.759 -0.6237  0.7024  0.3380
 5200TIP3    H137015   1.027   1.104  11.774 -1.1820  1.4517  1.3170
 5200TIP3    H237016   1.048   1.254  11.774  0.4123  1.2465  0.5900
 5201TIP3   OH237017   4.198   5.564  15.587  0.1745  0.5267 -0.2695
 5201TIP3    H137018   4.123   5.511  15.560 -0.4440  1.4416 -0.3940
 5201TIP3    H237019   4.205   5.631  15.519  1.3010  0.2721 -0.4235
 5202TIP3   OH237020   0.267   3.301  13.688  0.1548 -0.3833  0.6771
 5202TIP3    H137021   0.182   3.317  13.646  0.4632 -1.4136 -0.3761
 5202TIP3    H237022   0.297   3.388  13.715 -0.4176  0.2090 -0.5248
 5203TIP3   OH237023   5.203   3.935   4.242  0.2170 -0.1200 -0.2856
 5203TIP3    H137024   5.144   3.951   4.169  0.3068  1.0291 -0.1215
 5203TIP3    H237025   5.281   3.897   4.202  0.1038  0.1167 -0.7374
 5204TIP3   OH237026   0.413   3.198   3.189 -0.1236  0.1297 -0.0056
 5204TIP3    H137027   0.410   3.292   3.171  0.8849  0.0802 -0.4968
 5204TIP3    H237028   0.506   3.179   3.204 -0.5409 -0.3834  2.3603
 5205TIP3   OH237029   2.574   2.792   1.784  0.1590  0.8977 -0.0358
 5205TIP3    H137030   2.583   2.753   1.871 -0.6581 -0.8053 -0.6816
 5205TIP3    H237031   2.661   2.828   1.766  0.6261  0.3747  1.0638
 5206TIP3   OH237032   6.689   2.126   5.417  0.0855  0.0894 -1.1784
 5206TIP3    H137033   6.690   2.209   5.369  0.0645  0.4765 -0.5206
 5206TIP3    H237034   6.780   2.113   5.445 -0.3965  1.5499  1.4737
 5207TIP3   OH237035   1.471   0.926  16.985  0.1612  0.0589 -0.5632
 5207TIP3    H137036   1.476   0.888  17.073  0.2609 -0.8618 -0.9502
 5207TIP3    H237037   1.377   0.928  16.966  0.1867 -0.5492 -0.7680
 5208TIP3   OH237038   6.567   1.183   3.994 -0.1460  0.7419 -0.2164
 5208TIP3    H137039   6.483   1.161   4.034 -0.8913  3.3954 -0.1600
 5208TIP3    H237040   6.616   1.100   3.995 -0.9228  0.0903  4.1336
 5209TIP3   OH237041   0.788   5.872   4.130  0.4987  0.0476  0.0911
 5209TIP3    H137042   0.857   5.878   4.196 -0.7448 -2.0069  1.6640
 5209TIP3    H237043   0.712   5.914   4.170  0.1731  0.2315 -0.7023
 5210TIP3   OH237044   2.314   6.440  13.818  0.2831  0.1415  0.1869
 5210TIP3    H137045   2.265   6.434  13.900  0.7745  3.0733  0.8048
 5210TIP3    H237046   2.277   6.516  13.774  2.2675  0.6403 -0.7150
 5211TIP3   OH237047   0.292   3.500  16.109 -0.4686 -0.1594  0.6315
 5211TIP3    H137048   0.277   3.407  16.123  0.6818 -0.4179  0.2636
 5211TIP3    H237049   0.207   3.535  16.081 -0.8717 -1.1132  0.6513
 5212TIP3   OH237050   2.443   4.250   1.058  0.2257 -0.2929  0.1870
 5212TIP3    H137051   2.441   4.212   1.146  0.7787 -1.6978 -0.3837
 5212TIP3    H237052   2.505   4.323   1.066  1.9523 -1.7215  0.4928
 5213TIP3   OH237053   3.124   3.800   1.536  0.0344  0.3614 -0.6287
 5213TIP3    H137054   3.156   3.758   1.456  0.0285  1.6031 -1.3096
 5213TIP3    H237055   3.029   3.789   1.532  0.0516  0.2269 -0.6785
 5214TIP3   OH237056   5.958   5.208  13.876 -0.0306 -0.4747 -0.2936
 5214TIP3    H137057   5.928   5.282  13.929  0.2775  0.3566 -1.2449
 5214TIP3    H237058   5.983   5.141  13.940 -1.8504 -0.3907  0.5483
 5215TIP3   OH237059   5.628   6.395   6.435 -0.1861  0.3105 -0.3764
 5215TIP3    H137060   5.673   6.328   6.487 -1.4133  0.1431  0.5382
 5215TIP3    H237061   5.697   6.456   6.411  0.8231 -0.8294 -0.5140
 5216TIP3   OH237062   3.638   5.472  11.086  0.5754 -0.1141 -0.1795
 5216TIP3    H137063   3.705   5.513  11.139 -0.4727  0.6710  0.5857
 5216TIP3    H237064   3.685   5.409  11.032  2.0087  0.9274 -0.1973
 5217TIP3   OH237065   3.820   5.469  16.786 -0.1199  0.1827  0.1441
 5217TIP3    H137066   3.880   5.426  16.725 -0.3749 -0.8785  0.6237
 5217TIP3    H237067   3.874   5.488  16.863 -0.2713 -0.3553  0.3919
 5218TIP3   OH237068   0.521   1.808  13.845  0.8993  0.1324  0.0981
 5218TIP3    H137069   0.603   1.766  13.870  0.9110  0.0943 -0.0068
 5218TIP3    H237070   0.513   1.883  13.905 -0.7651 -1.8479  2.5718
 5219TIP3   OH237071   6.095   4.762  15.917  0.7500  0.3439  0.4404
 5219TIP3    H137072   6.108   4.750  16.011 -1.0080  2.7418  1.0878
 5219TIP3    H237073   6.002   4.780  15.907  0.9831  0.7025 -1.7045
 5220TIP3   OH237074   1.737   5.916   5.944  0.3763 -0.6825 -0.3714
 5220TIP3    H137075   1.704   5.978   6.009 -0.3639 -0.5399 -0.8752
 5220TIP3    H237076   1.716   5.956   5.860  1.3292 -0.8621 -0.7097
 5221TIP3   OH237077   3.497   5.064   2.152 -0.2367 -0.7849  0.1188
 5221TIP3    H137078   3.437   5.131   2.119 -1.1418  0.0220  3.1197
 5221TIP3    H237079   3.584   5.102   2.141 -0.5325 -0.3316 -0.7754
 5222TIP3   OH237080   0.804   4.295  15.579 -0.2390 -0.4576 -0.4033
 5222TIP3    H137081   0.875   4.321  15.637 -0.5477 -1.9571  0.6900
 5222TIP3    H237082   0.742   4.249  15.635 -0.6614 -1.7623 -1.8762
 5223TIP3   OH237083   0.449   5.252  13.997 -0.7779  0.1318 -0.0871
 5223TIP3    H137084   0.422   5.269  14.087 -1.2247 -1.1808  0.0508
 5223TIP3    H237085   0.368   5.252  13.946 -0.8805 -1.8786  0.0031
 5224TIP3   OH237086   4.011   3.943   5.607 -0.0394  0.0457  0.5827
 5224TIP3    H137087   3.968   4.024   5.635 -0.4875 -0.6939  2.1041
 5224TIP3    H237088   4.021   3.954   5.512 -0.5319  1.6646  0.6823
 5225TIP3   OH237089   6.647   4.412  16.282  0.3734  0.0153 -0.5790
 5225TIP3    H137090   6.635   4.451  16.369  0.0330  0.4553 -0.8219
 5225TIP3    H237091   6.739   4.428  16.262  0.4867 -0.2049 -0.2432
 5226TIP3   OH237092   5.487   0.955   1.341 -0.0243  0.2078  0.5777
 5226TIP3    H137093   5.399   0.978   1.311  0.5952  0.6146 -1.0364
 5226TIP3    H237094   5.534   1.039   1.344  1.5825 -0.3837 -3.0698
 5227TIP3   OH237095   2.375   2.482   2.785  0.0400 -0.0755  0.1324
 5227TIP3    H137096   2.357   2.388   2.790 -0.6618 -0.0428 -1.3237
 5227TIP3    H237097   2.469   2.489   2.803  0.7177 -1.3709 -2.3849
 5228TIP3   OH237098   2.906   6.032  14.585 -0.4202 -0.2353  0.4788
 5228TIP3    H137099   2.953   6.054  14.666 -1.0121 -1.2723  1.1184
 5228TIP3    H237100   2.956   5.960  14.547 -0.3747 -0.0211  0.1274
 5229TIP3   OH237101   0.220   1.955  11.059 -0.1297 -0.0253  0.0492
 5229TIP3    H137102   0.179   1.953  11.146 -0.4388 -0.7068 -0.1024
 5229TIP3    H237103   0.268   2.038  11.057 -0.1473  0.0166  0.8573
 5230TIP3   OH237104   0.054   3.989  16.910 -0.3860  0.0317 -0.8785
 5230TIP3    H137105  -0.022   3.994  16.968  0.3082  0.9512 -0.0118
 5230TIP3    H237106   0.118   3.938  16.959 -0.0764  0.1422 -1.1640
 5231TIP3   OH237107   4.713   0.112   0.712 -0.2354 -0.3752 -0.0702
 5231TIP3    H137108   4.794   0.155   0.740 -1.0519  1.2783 -0.0959
 5231TIP3    H237109   4.694   0.049   0.782  0.0705  0.5958  0.9207
 5232TIP3   OH237110   1.957   0.565   0.226 -0.1027  0.0333 -0.0919
 5232TIP3    H137111   1.900   0.631   0.265 -0.3155 -0.4972  0.5134
 5232TIP3    H237112   2.003   0.611   0.155 -0.0062  0.9061  0.5282
 5233TIP3   OH237113   1.154   2.747  10.991  0.1924  0.0228  0.2545
 5233TIP3    H137114   1.096   2.678  11.022 -1.4155  0.6606 -1.1760
 5233TIP3    H237115   1.151   2.814  11.060 -2.2716  0.8471 -0.5727
 5234TIP3   OH237116   0.483   6.619   3.244 -0.0588  0.3018  0.0409
 5234TIP3    H137117   0.557   6.607   3.304  1.4939  0.9359 -1.6525
 5234TIP3    H237118   0.521   6.662   3.168 -2.6227  2.8205  0.0065
 5235TIP3   OH237119   6.637   1.729  11.290 -0.1524  0.2876 -0.2887
 5235TIP3    H137120   6.682   1.645  11.296 -1.0626 -0.1688  0.3763
 5235TIP3    H237121   6.612   1.749  11.381 -2.1304  0.0302 -0.7184
 5236TIP3   OH237122   5.048   3.710  13.823  0.6258  0.3714  0.2909
 5236TIP3    H137123   5.055   3.783  13.885 -0.9215  1.3658 -0.6433
 5236TIP3    H237124   5.066   3.748  13.738  0.3186 -0.4455 -0.1526
 5237TIP3   OH237125   3.023   5.812  16.454 -0.0745  0.1953 -0.2678
 5237TIP3    H137126   3.030   5.865  16.533  1.0541 -1.7405  0.9963
 5237TIP3    H237127   2.956   5.856  16.401 -0.8837  1.5246  1.7656
 5238TIP3   OH237128   2.725   6.193  13.400  0.1373 -0.1614  0.2545
 5238TIP3    H137129   2.809   6.233  13.376 -0.2405  0.1414 -0.5859
 5238TIP3    H237130   2.663   6.226  13.335 -0.7643  0.0846  1.2169
 5239TIP3   OH237131   3.535   5.868  14.754 -0.5596  0.1451  0.0373
 5239TIP3    H137132   3.580   5.943  14.794  2.8757 -1.6525 -0.0836
 5239TIP3    H237133   3.540   5.884  14.660 -1.8648  0.7670  0.0488
 5240TIP3   OH237134   3.589   5.583  15.606  0.6666  0.6350 -0.5728
 5240TIP3    H137135   3.586   5.587  15.702  1.1329  1.7418 -0.5891
 5240TIP3    H237136   3.526   5.650  15.577  2.4033  2.1726 -0.9970
 5241TIP3   OH237137   3.669   1.888  14.853 -0.1266 -0.1786 -0.0760
 5241TIP3    H137138   3.689   1.806  14.809 -0.4627 -0.5428  0.4384
 5241TIP3    H237139   3.573   1.893  14.852 -0.0958  0.9645 -1.4743
 5242TIP3   OH237140   4.238   4.943  14.867  0.1193  0.3506  0.1105
 5242TIP3    H137141   4.184   5.019  14.889 -0.4754 -0.0091 -0.0979
 5242TIP3    H237142   4.327   4.971  14.888  0.0465  1.4998 -1.0062
 5243TIP3   OH237143   0.533   6.292   5.337 -0.4030  0.1522 -0.2525
 5243TIP3    H137144   0.459   6.231   5.334 -0.6995  0.5436 -1.2463
 5243TIP3    H237145   0.599   6.251   5.281 -0.0143  0.0009  0.3108
 5244TIP3   OH237146   2.404   1.248   0.200 -0.1780 -0.0403 -0.1734
 5244TIP3    H137147   2.328   1.299   0.171 -0.1231 -0.7437 -1.6904
 5244TIP3    H237148   2.464   1.313   0.235 -0.5726  0.8114 -1.0171
 5245TIP3   OH237149   3.299   1.932  14.277 -0.5522 -0.6026  0.4325
 5245TIP3    H137150   3.217   1.939  14.326  0.1952  0.5523  1.5996
 5245TIP3    H237151   3.327   2.023  14.266  0.3640 -0.9628 -0.3207
 5246TIP3   OH237152   5.115   3.245   2.201  0.1992  0.6491 -0.3945
 5246TIP3    H137153   5.061   3.323   2.207  0.4407  0.7014  1.9367
 5246TIP3    H237154   5.073   3.191   2.134 -2.8893  0.6294  1.3990
 5247TIP3   OH237155   1.839   2.560   3.005  0.6130 -0.3156 -0.3334
 5247TIP3    H137156   1.856   2.473   2.969  1.8534  0.8415 -2.8268
 5247TIP3    H237157   1.873   2.556   3.094  0.4255 -2.4258 -0.3148
 5248TIP3   OH237158   0.289   0.141  12.923 -0.3981 -0.0336 -0.2974
 5248TIP3    H137159   0.226   0.130  12.851 -0.5747 -0.4408 -0.0827
 5248TIP3    H237160   0.274   0.066  12.980  0.3586 -0.1905 -0.2978
 5249TIP3   OH237161   0.541   4.911  16.122 -0.1645 -0.0934 -0.2626
 5249TIP3    H137162   0.532   4.934  16.029  0.6067  0.5894 -0.1809
 5249TIP3    H237163   0.547   4.995  16.167 -1.3719 -0.3916  0.5182
 5250TIP3   OH237164   0.035   5.974  10.426  0.0451  0.0408 -0.0198
 5250TIP3    H137165  -0.000   5.886  10.438 -1.0687  0.6722  1.6337
 5250TIP3    H237166  -0.042   6.031  10.422  0.7839  1.1030  0.3765
 5251TIP3   OH237167   0.173   4.111   3.420 -0.4315  0.0264  0.2650
 5251TIP3    H137168   0.081   4.127   3.398 -0.2873 -1.7182 -2.0358
 5251TIP3    H237169   0.222   4.158   3.353  0.2502 -1.3133 -0.2000
 5252TIP3   OH237170   3.051   1.111  10.537  0.1310 -0.0322 -0.1203
 5252TIP3    H137171   2.986   1.042  10.552 -0.1205  0.1784 -0.2199
 5252TIP3    H237172   3.114   1.100  10.607 -0.7528  0.6097  0.8121
 5253TIP3   OH237173   5.819   1.497   0.315  0.1241  0.6958  0.0391
 5253TIP3    H137174   5.842   1.541   0.397  1.1544 -0.0044  0.1513
 5253TIP3    H237175   5.774   1.417   0.343  0.3702  0.5152 -0.0770
 5254TIP3   OH237176   5.271   0.463  11.357 -0.3105  0.0768 -0.0060
 5254TIP3    H137177   5.342   0.441  11.296 -0.5321  1.6200 -0.8721
 5254TIP3    H237178   5.191   0.442  11.309 -0.5180  2.2519 -0.7254
 5255TIP3   OH237179   4.189   1.294  15.346  0.8112  0.3288 -0.0669
 5255TIP3    H137180   4.159   1.323  15.431  2.1065 -0.0755  0.5595
 5255TIP3    H237181   4.122   1.233  15.315 -0.7241  2.0775 -0.3253
 5256TIP3   OH237182   1.958   3.086   5.305  0.0105 -0.0526 -0.2317
 5256TIP3    H137183   1.980   3.019   5.370 -0.7341 -0.1464 -0.0668
 5256TIP3    H237184   1.862   3.083   5.299  0.1009 -0.5719 -1.8910
 5257TIP3   OH237185   0.114   2.357  11.754 -0.0432  0.7921 -0.3678
 5257TIP3    H137186   0.194   2.318  11.719 -0.6527 -0.4542 -0.4393
 5257TIP3    H237187   0.136   2.449  11.768  1.6241  0.3385  0.2817
 5258TIP3   OH237188   1.591   5.384   6.130 -0.2918 -0.1753 -0.0778
 5258TIP3    H137189   1.565   5.476   6.121  1.8892  0.6226  1.0492
 5258TIP3    H237190   1.533   5.348   6.197 -0.6343  0.6056  0.0519
 5259TIP3   OH237191   0.641   1.439   6.172  0.2345 -0.0187 -0.2026
 5259TIP3    H137192   0.693   1.477   6.101  0.2561 -0.3497 -0.3650
 5259TIP3    H237193   0.705   1.391   6.225  0.8762  2.9077  1.9907
 5260TIP3   OH237194   1.163   5.588  17.006  0.2839  0.0799 -0.4979
 5260TIP3    H137195   1.137   5.522  16.941 -0.0771 -0.5860  0.3067
 5260TIP3    H237196   1.080   5.628  17.032  0.3380 -0.1888  0.1052
 5261TIP3   OH237197   1.948   5.523   4.401 -0.6426 -0.6930 -0.6106
 5261TIP3    H137198   2.003   5.525   4.479 -0.4118 -0.1842 -0.7886
 5261TIP3    H237199   1.921   5.431   4.393  2.2082 -1.5261 -1.9420
 5262TIP3   OH237200   1.948   6.081  14.029  0.2247 -0.0946 -0.4958
 5262TIP3    H137201   1.888   6.108  14.098  1.4478 -0.7110  0.8548
 5262TIP3    H237202   1.938   6.147  13.961 -0.1627  1.1995  0.7721
 5263TIP3   OH237203   4.195   3.492   2.626  0.0666 -0.4442 -0.0684
 5263TIP3    H137204   4.125   3.484   2.691  1.3617 -1.9553  1.2289
 5263TIP3    H237205   4.174   3.426   2.560 -0.1070 -0.3677 -0.0929
 5264TIP3   OH237206   0.182   4.695   1.764  0.1176 -0.6255 -0.4170
 5264TIP3    H137207   0.133   4.719   1.843  2.0251 -2.1473  1.3428
 5264TIP3    H237208   0.272   4.721   1.783  0.4138  0.3523 -2.7751
 5265TIP3   OH237209   0.895   5.230  14.941  0.3764  0.1736 -0.0060
 5265TIP3    H137210   0.809   5.239  14.902 -0.7784  2.2114  2.6573
 5265TIP3    H237211   0.947   5.301  14.903  0.9066 -0.9361 -1.4637
 5266TIP3   OH237212   5.208   1.732   5.257 -0.1320  0.4067 -0.3978
 5266TIP3    H137213   5.236   1.744   5.347 -0.6798  1.0271 -0.2977
 5266TIP3    H237214   5.122   1.774   5.253 -0.6298 -0.6228 -0.9217
 5267TIP3   OH237215   1.171   4.623  16.047 -0.6672 -0.5174 -0.2606
 5267TIP3    H137216   1.084   4.585  16.051 -1.5532  0.8343 -3.1899
 5267TIP3    H237217   1.191   4.650  16.136 -2.6568 -2.0579  0.7098
 5268TIP3   OH237218   0.161   1.266   3.087  0.1112 -0.0120 -0.1520
 5268TIP3    H137219   0.237   1.321   3.068  0.0366  0.0990 -0.1282
 5268TIP3    H237220   0.085   1.323   3.072  0.0155 -0.2520 -0.6128
 5269TIP3   OH237221   4.258   1.757  14.997  0.1269 -0.1043  0.0508
 5269TIP3    H137222   4.331   1.791  14.945 -0.7958  0.0934 -1.1610
 5269TIP3    H237223   4.214   1.835  15.030  0.3791 -0.2206  0.6654
 5270TIP3   OH237224   0.175   1.325  13.670  0.0132 -0.3875 -0.3619
 5270TIP3    H137225   0.101   1.383  13.654  1.0380  1.3474  0.7999
 5270TIP3    H237226   0.220   1.319  13.586  0.5099  1.4913 -0.2829
 5271TIP3   OH237227   2.973   0.348  16.938  0.0824 -0.2758  0.0055
 5271TIP3    H137228   2.976   0.382  16.849  0.9217 -1.5347 -0.4731
 5271TIP3    H237229   3.065   0.339  16.963 -0.1338 -1.1949  0.4939
 5272TIP3   OH237230   5.669   3.215  14.840  0.0038 -0.1157 -0.1684
 5272TIP3    H137231   5.734   3.273  14.878 -1.1035  0.8078  0.4001
 5272TIP3    H237232   5.610   3.194  14.913 -0.8548 -0.1573 -0.8518
 5273TIP3   OH237233   2.402   2.450  11.720  0.1984  0.1216  0.0810
 5273TIP3    H137234   2.439   2.458  11.632  2.4216  0.8454  1.0095
 5273TIP3    H237235   2.372   2.538  11.742 -0.4179 -0.0729  0.0259
 5274TIP3   OH237236   5.784   1.847   1.730  0.4708  0.4576  0.7408
 5274TIP3    H137237   5.759   1.825   1.640 -0.3471  1.8257  0.5997
 5274TIP3    H237238   5.701   1.845   1.778  1.0535 -1.4640  1.7748
 5275TIP3   OH237239   5.771   3.057  11.548  0.4273  0.0519 -0.6219
 5275TIP3    H137240   5.689   3.101  11.525 -0.0378 -0.3608  0.2072
 5275TIP3    H237241   5.745   2.991  11.612  1.2702 -0.7231 -1.0613
 5276TIP3   OH237242   1.404   4.184   4.892  0.2613 -0.3543 -0.2476
 5276TIP3    H137243   1.371   4.248   4.955  0.6505 -0.9794  0.6268
 5276TIP3    H237244   1.494   4.212   4.874  0.3207 -0.4636 -0.1234
 5277TIP3   OH237245   2.733   1.907  11.188  0.2043 -0.9987  0.3568
 5277TIP3    H137246   2.640   1.920  11.202  0.4245  1.4505 -0.1374
 5277TIP3    H237247   2.740   1.876  11.097 -0.1495 -2.1049  0.6875
 5278TIP3   OH237248   1.678   2.610   5.164 -0.7634  0.1244  0.0704
 5278TIP3    H137249   1.642   2.590   5.250 -0.1075  1.1029  0.5929
 5278TIP3    H237250   1.728   2.691   5.177 -0.5819  0.2412 -1.2087
 5279TIP3   OH237251   2.225   2.336  11.045  0.0495 -0.2097 -0.0424
 5279TIP3    H137252   2.202   2.386  10.967  0.2271  0.6748  0.4572
 5279TIP3    H237253   2.193   2.389  11.118  1.6867 -0.0123  0.5746
 5280TIP3   OH237254   1.248   3.251   5.670  0.4737  0.5277  0.0840
 5280TIP3    H137255   1.340   3.229   5.659  0.2876 -0.7507  0.8040
 5280TIP3    H237256   1.242   3.284   5.760  0.0718 -0.4274  0.4233
 5281TIP3   OH237257   4.929   6.552  14.938  0.1456  0.0143 -0.9445
 5281TIP3    H137258   4.934   6.619  15.007 -0.9423 -1.0102  0.1727
 5281TIP3    H237259   4.959   6.472  14.980  0.3871 -0.4380 -1.9523
 5282TIP3   OH237260   1.500   5.883  16.679  0.3253  0.8612 -0.1482
 5282TIP3    H137261   1.404   5.882  16.680  0.3018  1.2730 -1.3610
 5282TIP3    H237262   1.524   5.954  16.739 -0.0986  0.4138  0.5761
 5283TIP3   OH237263   1.216   3.721  16.759  0.1652 -0.6206  0.2093
 5283TIP3    H137264   1.268   3.751  16.684  1.0274 -0.3034  0.9229
 5283TIP3    H237265   1.126   3.747  16.737  0.0694 -2.1964 -1.5736
 5284TIP3   OH237266   6.172   1.217   3.155  0.1039  0.0743 -0.1192
 5284TIP3    H137267   6.106   1.189   3.091  0.4191  0.7124 -0.7308
 5284TIP3    H237268   6.251   1.170   3.130  0.7313  1.6916 -1.3627
 5285TIP3   OH237269   6.390   4.514   1.042  0.1747 -0.0698  0.2423
 5285TIP3    H137270   6.370   4.445   0.979 -0.5225  0.0442  0.3247
 5285TIP3    H237271   6.472   4.552   1.011 -0.7321  0.7575 -1.2727
 5286TIP3   OH237272   2.960   2.879  16.713  0.4207 -0.0195  0.2277
 5286TIP3    H137273   2.864   2.875  16.709  0.3697 -0.9955  1.7698
 5286TIP3    H237274   2.984   2.945  16.648 -1.4438  1.8857  1.3489
 5287TIP3   OH237275   0.298   4.748   0.633  0.3088 -0.1096 -0.1854
 5287TIP3    H137276   0.303   4.839   0.605 -0.9648  0.2644  0.7238
 5287TIP3    H237277   0.306   4.752   0.728 -0.9959 -0.8245 -0.0318
 5288TIP3   OH237278   3.213   3.417   0.747  0.0951 -0.2255 -0.2233
 5288TIP3    H137279   3.175   3.397   0.661  1.2942  1.1279 -1.1253
 5288TIP3    H237280   3.299   3.377   0.744 -0.0135 -0.5138  0.5180
 5289TIP3   OH237281   6.748   4.257  14.388 -0.4630  0.1741  0.0642
 5289TIP3    H137282   6.735   4.210  14.470 -2.1644  0.4463 -0.0303
 5289TIP3    H237283   6.780   4.190  14.327  0.1663 -0.1694  0.7531
 5290TIP3   OH237284   2.508   2.576  16.752 -0.2559  0.2303  0.6185
 5290TIP3    H137285   2.450   2.588  16.827  2.2132 -0.4400  2.7513
 5290TIP3    H237286   2.481   2.493  16.714 -2.5623  1.3098 -0.3175
 5291TIP3   OH237287   3.889   1.967  11.045 -0.1800  0.7836  0.4019
 5291TIP3    H137288   3.984   1.977  11.054  0.1108 -1.1448 -0.1135
 5291TIP3    H237289   3.860   1.930  11.128 -0.2738  0.2305  0.1311
 5292TIP3   OH237290   4.921   1.457  17.031 -0.2723  0.1995 -0.1273
 5292TIP3    H137291   4.968   1.473  16.949 -4.6695 -0.6076 -3.1694
 5292TIP3    H237292   4.919   1.542  17.075  1.6927  0.8149 -1.1253
 5293TIP3   OH237293   4.066   3.133   3.796  0.2728 -0.0528  0.0426
 5293TIP3    H137294   4.092   3.218   3.759 -1.3015  1.8663  2.8963
 5293TIP3    H237295   4.016   3.091   3.727 -2.5101  3.2775 -0.2707
 5294TIP3   OH237296   5.526   5.436  14.403  0.2836 -0.8742 -0.0224
 5294TIP3    H137297   5.492   5.409  14.317  2.0229 -4.7068  0.3024
 5294TIP3    H237298   5.447   5.454  14.455 -0.9521 -2.0190 -1.4074
 5295TIP3   OH237299   5.106   4.005  14.073 -0.4941 -0.2842 -0.5073
 5295TIP3    H137300   5.089   3.996  13.980 -2.6877  1.7943 -0.4085
 5295TIP3    H237301   5.020   3.999  14.114  0.3542 -0.5383  1.3336
 5296TIP3   OH237302   4.384   6.059   0.712  0.3424  0.3080 -0.2073
 5296TIP3    H137303   4.405   6.024   0.625 -0.3584 -0.1714 -0.1926
 5296TIP3    H237304   4.411   6.151   0.707 -1.1681  0.7473 -1.5113
 5297TIP3   OH237305   5.192   0.238  14.604 -0.1294 -0.3211 -0.6225
 5297TIP3    H137306   5.260   0.282  14.654 -0.5463  0.6659 -0.9051
 5297TIP3    H237307   5.218   0.249  14.512 -0.0229 -1.0330 -0.6862
 5298TIP3   OH237308   6.640   1.988  16.284 -0.1754  0.5354 -0.6868
 5298TIP3    H137309   6.554   2.030  16.283 -0.4232  0.0826 -2.4504
 5298TIP3    H237310   6.697   2.050  16.239  0.9890  1.7778  2.2442
 5299TIP3   OH237311   1.182   6.745   0.662  0.8048  0.1721  0.5394
 5299TIP3    H137312   1.231   6.707   0.735  0.7694  1.7553  1.4313
 5299TIP3    H237313   1.203   6.839   0.665 -0.3117  0.4922 -0.6178
 5300TIP3   OH237314   3.732   5.338  14.653 -0.2253  0.2020  0.8524
 5300TIP3    H137315   3.771   5.392  14.722 -0.6262 -1.0411  2.1072
 5300TIP3    H237316   3.765   5.250  14.670 -0.9324 -0.2638 -0.0966
 5301TIP3   OH237317   5.891   3.961   1.033  0.7625  0.2937 -0.1650
 5301TIP3    H137318   5.970   3.943   0.982  1.5064  0.7720  0.8064
 5301TIP3    H237319   5.865   3.875   1.068  1.4818  0.3156  0.4204
 5302TIP3   OH237320   4.050   2.878   1.079  0.0898 -0.1592 -0.6629
 5302TIP3    H137321   3.965   2.836   1.093  0.1449 -0.1048 -0.1568
 5302TIP3    H237322   4.039   2.928   0.998 -0.9047  1.2336  0.2911
 5303TIP3   OH237323   6.062   3.373  10.480 -0.1069 -0.6400 -0.2431
 5303TIP3    H137324   6.122   3.446  10.464 -0.5753  0.4664  2.5171
 5303TIP3    H237325   5.980   3.398  10.438 -0.4605  0.7973  1.2202
 5304TIP3   OH237326   1.309   1.475  14.676 -0.3273 -0.0665 -0.3891
 5304TIP3    H137327   1.305   1.499  14.769 -1.1643 -0.9770 -0.1720
 5304TIP3    H237328   1.400   1.489  14.651 -0.5569  2.4477 -0.0671
 5305TIP3   OH237329   6.676   5.647  12.510  0.2179  0.1596  0.2727
 5305TIP3    H137330   6.767   5.671  12.490  1.1821 -1.6900  2.1057
 5305TIP3    H237331   6.677   5.552  12.516 -1.7385  0.1317  0.8970
 5306TIP3   OH237332   1.282   3.032   3.654  0.4491 -0.6075  0.1722
 5306TIP3    H137333   1.298   3.008   3.562 -2.1952  0.0435 -0.5211
 5306TIP3    H237334   1.227   2.962   3.688 -1.7509  0.9934  0.0860
 5307TIP3   OH237335   0.088   0.873  14.614  0.7511 -0.2438  0.7759
 5307TIP3    H137336   0.136   0.923  14.680  0.6714 -0.9376  1.3770
 5307TIP3    H237337   0.054   0.939  14.554 -1.6834  0.7621  3.0500
 5308TIP3   OH237338   6.056   0.620   2.598  0.0478  0.4416  0.0275
 5308TIP3    H137339   6.041   0.657   2.511 -1.0485  1.1656  0.4917
 5308TIP3    H237340   6.011   0.536   2.597  2.2813 -0.8068 -0.9321
 5309TIP3   OH237341   4.964   5.289  17.067  0.0494 -0.1904  0.3292
 5309TIP3    H137342   5.058   5.292  17.083  0.0594 -0.0232  0.2396
 5309TIP3    H237343   4.951   5.341  16.988  0.0356 -1.2842 -0.4135
 5310TIP3   OH237344   4.786   4.670  12.197 -0.4443  0.6762  0.2207
 5310TIP3    H137345   4.859   4.631  12.246 -0.4350  0.5940  0.1427
 5310TIP3    H237346   4.775   4.757  12.234 -1.0640  0.2704  1.0408
 5311TIP3   OH237347   2.759   5.367  15.907 -0.1366 -0.7653 -0.2942
 5311TIP3    H137348   2.756   5.382  16.001  1.7259  0.5674 -0.3727
 5311TIP3    H237349   2.681   5.316  15.887 -1.7200  0.7525  1.6415
 5312TIP3   OH237350   1.028   3.612  12.247  0.1486 -0.6586 -0.1517
 5312TIP3    H137351   0.949   3.637  12.200  0.7533  0.0980 -0.7888
 5312TIP3    H237352   1.098   3.613  12.181  0.5503 -2.1730  0.2164
 5313TIP3   OH237353   2.941   5.988  13.363  0.0655 -0.2086 -0.1709
 5313TIP3    H137354   2.956   6.036  13.445  0.6762  0.0045 -0.4002
 5313TIP3    H237355   2.915   5.900  13.392  0.8864 -0.3210  0.2628
 5314TIP3   OH237356   5.096   4.306   0.953 -0.3062  0.4761 -0.1397
 5314TIP3    H137357   5.159   4.330   1.021  0.9244  0.4404 -1.2231
 5314TIP3    H237358   5.075   4.388   0.910 -1.1216  0.5059  0.3051
 5315TIP3   OH237359   6.271   4.666   1.951  0.6403 -0.8634  0.2513
 5315TIP3    H137360   6.207   4.600   1.977 -0.4164  0.3145  0.7992
 5315TIP3    H237361   6.227   4.716   1.882  0.9112  0.0325  0.7042
 5316TIP3   OH237362   6.665   5.947   1.637  0.0241 -0.0343  0.6356
 5316TIP3    H137363   6.689   6.025   1.687  0.7737 -1.9812  3.5316
 5316TIP3    H237364   6.579   5.922   1.671  0.7503 -1.6612  1.3713
 5317TIP3   OH237365   0.995   0.411   1.271 -0.5863  0.0568  0.2194
 5317TIP3    H137366   1.033   0.340   1.322 -1.1879 -1.1111 -0.8897
 5317TIP3    H237367   1.064   0.437   1.210  0.3534  1.8849  1.9690
 5318TIP3   OH237368   0.532   3.801   5.078  0.1409  0.2495  0.0985
 5318TIP3    H137369   0.523   3.705   5.078  0.0376  0.1811 -2.2358
 5318TIP3    H237370   0.545   3.823   4.985  1.2461  2.4195  0.7027
 5319TIP3   OH237371   1.863   0.142  14.314  0.1842 -0.5113 -0.4449
 5319TIP3    H137372   1.943   0.134  14.261  0.7706 -0.3075  0.3976
 5319TIP3    H237373   1.876   0.082  14.387 -0.5892 -0.7204 -0.4629
 5320TIP3   OH237374   0.941   0.369  10.784  0.3735 -0.3960 -0.2598
 5320TIP3    H137375   1.029   0.366  10.823 -0.0321  1.8200  0.9747
 5320TIP3    H237376   0.949   0.318  10.704  2.3404 -1.6645  0.6546
 5321TIP3   OH237377   4.533   0.356  15.298 -0.0602 -0.1827 -0.7928
 5321TIP3    H137378   4.578   0.300  15.362 -0.9062 -1.4462 -1.2740
 5321TIP3    H237379   4.593   0.359  15.224 -0.0942 -0.6192 -0.8415
 5322TIP3   OH237380   6.099   0.270  16.157 -0.1014  0.4780 -0.4721
 5322TIP3    H137381   6.187   0.250  16.189 -0.3161  1.7297  0.9404
 5322TIP3    H237382   6.079   0.196  16.098  1.5570 -0.2332 -0.2124
 5323TIP3   OH237383   1.807   4.308   5.843 -0.0276 -0.3625  0.0351
 5323TIP3    H137384   1.822   4.397   5.811 -0.4748 -0.1217  0.4887
 5323TIP3    H237385   1.738   4.273   5.786 -0.6533 -0.0181  0.5678
 5324TIP3   OH237386   1.953   1.095   2.285 -0.0535  0.0548 -0.0264
 5324TIP3    H137387   1.914   1.009   2.300  2.5295 -0.9470  1.4644
 5324TIP3    H237388   2.013   1.082   2.212 -0.7887  1.0170 -0.8299
 5325TIP3   OH237389   6.662   0.153  10.673 -0.3203  0.2081  0.1989
 5325TIP3    H137390   6.710   0.226  10.634 -0.9197  0.4522 -0.1113
 5325TIP3    H237391   6.716   0.124  10.746  0.2117  0.5776 -0.0454
 5326TIP3   OH237392   1.518   3.630   5.530  0.3478  0.4420 -0.6281
 5326TIP3    H137393   1.591   3.664   5.479  0.6440  1.4894  0.4363
 5326TIP3    H237394   1.514   3.537   5.508  2.4188  0.2155 -0.2572
 5327TIP3   OH237395   5.880   3.347  11.886 -0.2359  0.0332  0.1748
 5327TIP3    H137396   5.798   3.353  11.836 -0.7371 -0.0161  0.9636
 5327TIP3    H237397   5.944   3.315  11.823 -0.4153  1.6776 -0.9044
 5328TIP3   OH237398   1.469   6.527  16.828 -0.0611  0.0769  0.4889
 5328TIP3    H137399   1.377   6.549  16.815  0.0897 -0.0399 -1.0197
 5328TIP3    H237400   1.487   6.460  16.762  1.1770  0.3176  0.5594
 5329TIP3   OH237401   4.312   0.815   4.613 -0.2732  0.1230  0.2682
 5329TIP3    H137402   4.244   0.853   4.669  0.4038  0.7552  0.6872
 5329TIP3    H237403   4.393   0.854   4.645  0.7041 -2.8222  1.7358
 5330TIP3   OH237404   0.297   5.679   5.790  0.2195  0.7582 -0.2731
 5330TIP3    H137405   0.235   5.750   5.811  0.5385  0.8904  0.2461
 5330TIP3    H237406   0.334   5.655   5.875  1.1657  0.9430 -0.6287
 5331TIP3   OH237407   4.083   1.058  16.252 -0.1043 -0.6768  0.6142
 5331TIP3    H137408   4.066   0.985  16.192 -0.1661  0.4743 -0.8110
 5331TIP3    H237409   4.172   1.041  16.284  0.0364 -1.1727 -0.0093
 5332TIP3   OH237410   1.540   3.986  11.108 -0.0869 -0.1696  0.0366
 5332TIP3    H137411   1.587   3.940  11.177  1.1983  1.0516  0.0323
 5332TIP3    H237412   1.605   4.046  11.070 -1.4871  1.1949 -0.3410
 5333TIP3   OH237413   1.656   6.293   3.008  0.1979  0.7926  0.3188
 5333TIP3    H137414   1.698   6.331   2.931  0.5561  1.0753  0.6514
 5333TIP3    H237415   1.725   6.241   3.050 -0.2472 -0.1313 -0.0592
 5334TIP3   OH237416   6.429   1.063   5.662  0.0401 -0.6885 -0.7872
 5334TIP3    H137417   6.514   1.050   5.703  0.0373 -1.2564 -0.9548
 5334TIP3    H237418   6.440   1.141   5.607 -0.1923  0.5911  0.9032
 5335TIP3   OH237419   4.321   6.359   0.547  0.0096  0.1399 -0.4974
 5335TIP3    H137420   4.400   6.377   0.497  1.8743 -0.9863  1.8745
 5335TIP3    H237421   4.347   6.367   0.639 -2.5989 -0.3959  0.3796
 5336TIP3   OH237422   0.131   1.108  16.279 -0.0523  0.4176 -0.1706
 5336TIP3    H137423   0.211   1.128  16.329 -0.5368 -0.1279  0.8642
 5336TIP3    H237424   0.113   1.016  16.299 -1.2088  0.6696 -0.0033
 5337TIP3   OH237425   5.291   1.163   2.997 -0.1949 -0.3700  0.0559
 5337TIP3    H137426   5.209   1.209   3.016 -0.3683 -0.2864 -0.8449
 5337TIP3    H237427   5.262   1.075   2.971  0.0066 -0.3602 -0.1961
 5338TIP3   OH237428   6.270   2.474   4.316  0.2773 -0.5823 -0.3697
 5338TIP3    H137429   6.358   2.512   4.304  1.0823 -1.4813  2.0091
 5338TIP3    H237430   6.215   2.549   4.341  1.2687 -0.4781  1.7627
 5339TIP3   OH237431   3.834   1.128  10.625  0.2024  0.0346 -0.1866
 5339TIP3    H137432   3.769   1.199  10.615 -0.0930  0.0283  1.4519
 5339TIP3    H237433   3.918   1.172  10.612 -0.0641  0.0157 -2.4962
 5340TIP3   OH237434   0.681   1.287  12.908 -0.2262  0.0520 -0.0010
 5340TIP3    H137435   0.694   1.381  12.904  1.3636 -0.1688 -1.2350
 5340TIP3    H237436   0.682   1.258  12.816 -1.5782 -1.0755  0.3021
 5341TIP3   OH237437   4.872   0.192  16.413 -0.7588  0.4204 -0.3562
 5341TIP3    H137438   4.879   0.210  16.507  1.6492  0.2992 -0.4500
 5341TIP3    H237439   4.892   0.276  16.371  0.5539 -0.0479 -0.7292
 5342TIP3   OH237440   5.367   2.331   1.912  0.1871 -0.2900  0.4780
 5342TIP3    H137441   5.299   2.266   1.930  0.3514 -0.3724  0.8112
 5342TIP3    H237442   5.381   2.375   1.996 -0.5885  0.8293  0.0573
 5343TIP3   OH237443   0.786   6.065  13.454 -1.1365  0.0790  0.2896
 5343TIP3    H137444   0.867   6.014  13.461 -1.2054 -0.1666 -0.6096
 5343TIP3    H237445   0.807   6.137  13.395 -0.8753  1.4641  1.9969
 5344TIP3   OH237446   0.418   3.226   3.670 -0.3457 -0.3311 -0.3937
 5344TIP3    H137447   0.445   3.135   3.657 -2.0126 -0.8918 -0.1458
 5344TIP3    H237448   0.431   3.242   3.764  3.5563  0.9828 -0.9706
 5345TIP3   OH237449   6.544   2.015  11.925  0.2128 -0.3774 -0.3734
 5345TIP3    H137450   6.616   2.049  11.872 -0.7821 -0.5056 -1.8610
 5345TIP3    H237451   6.489   2.092  11.943 -0.4088 -0.6501 -1.0893
 5346TIP3   OH237452   2.250   5.146  16.125 -0.0231 -0.1511  0.5519
 5346TIP3    H137453   2.169   5.118  16.082  0.9756 -0.4609 -1.2143
 5346TIP3    H237454   2.263   5.081  16.195 -0.9171 -0.4962  0.4118
 5347TIP3   OH237455   0.487   4.430   2.255  0.3408 -0.1117 -0.3501
 5347TIP3    H137456   0.484   4.437   2.350  0.7163 -0.3598 -0.3159
 5347TIP3    H237457   0.571   4.470   2.231 -0.8448  2.3012 -0.8168
 5348TIP3   OH237458   0.217   3.534   2.990  0.0946 -0.3036  0.2496
 5348TIP3    H137459   0.274   3.526   3.067  0.3556  2.5635  0.4558
 5348TIP3    H237460   0.274   3.570   2.922 -0.9762  0.7863 -0.1109
 5349TIP3   OH237461   1.383   3.459  11.559 -0.8674 -0.3688  0.2881
 5349TIP3    H137462   1.475   3.486  11.559 -0.5208 -1.5016 -0.6186
 5349TIP3    H237463   1.337   3.536  11.525 -0.2102  0.0360  0.2819
 5350TIP3   OH237464   3.338   0.835  14.601 -0.2756  0.2803  0.3922
 5350TIP3    H137465   3.251   0.867  14.623 -0.7742 -1.5558  1.2080
 5350TIP3    H237466   3.324   0.779  14.525  0.4791  1.2757 -0.5259
 5351TIP3   OH237467   0.742   4.682   0.706  0.3529 -0.2515  0.0333
 5351TIP3    H137468   0.705   4.594   0.705  0.5683 -0.3517  0.4947
 5351TIP3    H237469   0.767   4.697   0.797 -1.9538  1.2625  0.4938
 5352TIP3   OH237470   5.192   0.966   5.337 -0.2289  0.3592 -0.4156
 5352TIP3    H137471   5.140   0.892   5.371 -0.8233  1.6754  1.7552
 5352TIP3    H237472   5.206   0.945   5.245  0.1974 -2.7901  0.2370
 5353TIP3   OH237473   5.823   3.318   3.467 -0.1117 -0.5047 -0.4030
 5353TIP3    H137474   5.747   3.260   3.480  0.0408 -0.5696  0.2234
 5353TIP3    H237475   5.807   3.359   3.382 -1.2527  0.0691  0.0576
 5354TIP3   OH237476   4.853   0.183   5.366  0.5310 -0.3242  0.5030
 5354TIP3    H137477   4.823   0.102   5.325  0.5016  0.6210 -1.4729
 5354TIP3    H237478   4.793   0.250   5.333  0.9894  0.6308  1.5326
 5355TIP3   OH237479   1.349   4.215  15.174 -0.0530  0.4721 -0.5297
 5355TIP3    H137480   1.419   4.229  15.238 -0.2152 -1.0167  0.0164
 5355TIP3    H237481   1.381   4.257  15.094  1.6167 -0.4096 -0.3745
 5356TIP3   OH237482   2.817   1.422  16.972  0.0588  0.2684 -0.1908
 5356TIP3    H137483   2.759   1.401  17.046 -0.2615  0.4256 -0.3931
 5356TIP3    H237484   2.904   1.396  17.002 -0.1916 -0.4830 -0.0903
 5357TIP3   OH237485   2.274   2.521  16.899 -0.1554  0.2398  0.4640
 5357TIP3    H137486   2.232   2.563  16.824  0.3422 -1.2490 -0.7085
 5357TIP3    H237487   2.203   2.504  16.960 -0.5681  1.5096  0.3802
 5358TIP3   OH237488   6.512   4.216  13.032  0.2705 -0.4921 -0.0769
 5358TIP3    H137489   6.587   4.167  13.064  0.2063 -1.2106 -0.9613
 5358TIP3    H237490   6.436   4.168  13.066  0.2134 -0.7748 -0.5792
 5359TIP3   OH237491   5.768   2.077   3.132 -0.0979  0.1660  0.2640
 5359TIP3    H137492   5.715   2.009   3.174  0.6074 -0.4447  0.2087
 5359TIP3    H237493   5.856   2.039   3.129  0.8388  1.9741  2.2968
 5360TIP3   OH237494   6.405   0.342  12.822 -0.1290  0.4249  0.0745
 5360TIP3    H137495   6.376   0.391  12.900  0.1997  2.4386 -0.9858
 5360TIP3    H237496   6.490   0.306  12.847 -0.7394 -0.3047  1.1630
 5361TIP3   OH237497   0.942   0.226  15.125  0.2425  0.2478 -0.3641
 5361TIP3    H137498   0.993   0.163  15.175 -0.6751 -1.1335 -1.0703
 5361TIP3    H237499   1.002   0.298  15.107  1.6637 -0.8987 -0.3957
 5362TIP3   OH237500   3.241   5.101   2.428 -0.5034  0.1022  0.3251
 5362TIP3    H137501   3.236   5.012   2.464 -5.2284  0.1902  0.4598
 5362TIP3    H237502   3.213   5.092   2.336  0.4664  1.2972 -0.1227
 5363TIP3   OH237503   6.154   5.832   3.936 -0.3499  0.6272  0.0645
 5363TIP3    H137504   6.071   5.785   3.934 -1.1988  2.0651 -0.7748
 5363TIP3    H237505   6.206   5.787   4.002 -1.9552 -0.0484  0.9249
 5364TIP3   OH237506   2.637   4.206   2.019  0.4724 -0.1736 -1.0464
 5364TIP3    H137507   2.730   4.201   2.044  0.0811 -1.5314  0.2809
 5364TIP3    H237508   2.612   4.295   2.044  0.2389 -1.2226  3.4702
 5365TIP3   OH237509   6.740   2.710  10.902  0.3813  0.2591  0.2889
 5365TIP3    H137510   6.780   2.778  10.847  1.8247  0.1714  1.1578
 5365TIP3    H237511   6.814   2.673  10.951 -0.8363  0.3597  2.3163
 5366TIP3   OH237512   0.697   5.491   0.115 -0.1368 -0.3118 -0.2925
 5366TIP3    H137513   0.715   5.407   0.158  0.8428  0.2406  0.4422
 5366TIP3    H237514   0.695   5.554   0.187 -1.0912  0.2708 -0.8151
 5367TIP3   OH237515   2.793   3.235   1.332 -0.3078 -0.1452  0.5022
 5367TIP3    H137516   2.862   3.182   1.292 -0.9164 -0.9815  0.5253
 5367TIP3    H237517   2.785   3.201   1.421 -1.8928 -1.2305 -0.0140
 5368TIP3   OH237518   4.039   2.634  14.190 -0.2758 -0.4822 -0.1037
 5368TIP3    H137519   4.012   2.666  14.276  0.1030 -1.3440  0.3457
 5368TIP3    H237520   4.135   2.632  14.194 -0.2037  0.4528 -0.9137
 5369TIP3   OH237521   2.064   4.390   1.101 -0.0975  0.1095 -0.4654
 5369TIP3    H137522   2.049   4.421   1.012  1.4727 -1.0805 -1.1905
 5369TIP3    H237523   2.041   4.297   1.098 -3.2053  0.6839  1.2623
 5370TIP3   OH237524   3.526   6.586  12.771  0.1377  0.5844  0.3454
 5370TIP3    H137525   3.508   6.650  12.702 -0.1232  0.0052 -0.1344
 5370TIP3    H237526   3.558   6.638  12.845 -0.0544  1.2614 -0.0438
 5371TIP3   OH237527   1.531   3.798  12.096  0.2635 -0.7423 -0.5149
 5371TIP3    H137528   1.508   3.733  12.162  3.2217 -0.7655  0.6245
 5371TIP3    H237529   1.512   3.882  12.137 -0.6429 -0.7840 -0.8137
 5372TIP3   OH237530   2.988   3.901   4.455  0.3440 -0.1797 -0.0166
 5372TIP3    H137531   2.919   3.867   4.398  1.7630 -1.5840 -1.0104
 5372TIP3    H237532   3.023   3.823   4.499 -0.1189  0.7700  2.1361
 5373TIP3   OH237533   1.539   3.803   2.494  0.2472  0.3356 -0.2894
 5373TIP3    H137534   1.504   3.811   2.583  3.0288  0.4117  0.8905
 5373TIP3    H237535   1.562   3.711   2.486 -1.7546 -0.1070 -1.7356
 5374TIP3   OH237536   6.713   1.238  11.908 -0.6493  0.1066 -0.3197
 5374TIP3    H137537   6.718   1.196  11.994  0.2663 -1.1969 -0.9723
 5374TIP3    H237538   6.793   1.289  11.900 -1.4647  1.5155  0.2109
 5375TIP3   OH237539   1.430   3.975   3.335  0.2942 -0.2127  0.1041
 5375TIP3    H137540   1.441   4.040   3.404  2.0872  1.0295 -1.2545
 5375TIP3    H237541   1.363   4.011   3.277  2.0511  1.0668 -1.2406
 5376TIP3   OH237542   2.890   2.847  11.178  0.3400  0.4870 -0.4815
 5376TIP3    H137543   2.960   2.817  11.121  0.3770  2.3110 -1.4883
 5376TIP3    H237544   2.814   2.856  11.120 -0.4407 -0.3814  0.3636
 5377TIP3   OH237545   2.336   5.759   6.121  0.2919  0.0948 -0.0587
 5377TIP3    H137546   2.409   5.697   6.125 -0.3998 -1.0404 -2.7565
 5377TIP3    H237547   2.260   5.710   6.152  0.1994  0.4376  0.2690
 5378TIP3   OH237548   5.065   4.887  17.032 -0.0320 -0.2974 -0.0675
 5378TIP3    H137549   5.053   4.944  16.956  1.2295  0.4139  0.2368
 5378TIP3    H237550   5.018   4.932  17.102  1.6004  0.8347  0.3629
 5379TIP3   OH237551   2.592   4.116   0.453  0.1849 -0.2454  0.7254
 5379TIP3    H137552   2.667   4.151   0.501  0.0879  0.3553  0.4433
 5379TIP3    H237553   2.631   4.067   0.380  0.3361 -1.2896  1.4869
 5380TIP3   OH237554   2.889   1.259   2.511 -0.0320 -0.0080  0.5995
 5380TIP3    H137555   2.875   1.256   2.416  1.9059  0.2342  0.2759
 5380TIP3    H237556   2.896   1.352   2.531 -0.1680 -0.0693  0.9404
 5381TIP3   OH237557   2.719   6.403  14.847 -0.4977 -0.3954  0.6849
 5381TIP3    H137558   2.781   6.475  14.859  0.5611 -0.9405 -1.0833
 5381TIP3    H237559   2.711   6.363  14.933 -0.9497  1.6932  1.6620
 5382TIP3   OH237560   0.844   1.730   1.701 -0.1436 -0.5451  0.5762
 5382TIP3    H137561   0.880   1.658   1.752  1.9996  0.0513 -0.0246
 5382TIP3    H237562   0.826   1.798   1.765  1.5571 -0.1821  0.6918
 5383TIP3   OH237563   1.117   5.870   1.320  1.2388 -0.2891 -0.4706
 5383TIP3    H137564   1.081   5.817   1.391  2.9920  0.8524  1.3828
 5383TIP3    H237565   1.114   5.813   1.244  2.2713 -2.7996  1.2234
 5384TIP3   OH237566   5.432   0.416   0.226  0.2800  0.7040 -0.2638
 5384TIP3    H137567   5.497   0.474   0.267 -1.1093  0.6658  2.1469
 5384TIP3    H237568   5.426   0.341   0.286 -0.7450 -0.1194 -1.3592
 5385TIP3   OH237569   5.236   4.587   6.053 -0.3277 -0.4507 -0.7587
 5385TIP3    H137570   5.160   4.624   6.099 -0.9039 -0.6903 -1.4816
 5385TIP3    H237571   5.214   4.597   5.960  0.8446  0.1114 -0.9945
 5386TIP3   OH237572   5.445   4.742   1.182  0.0779 -0.3744  0.0700
 5386TIP3    H137573   5.458   4.674   1.117  0.2316 -0.7184  0.4612
 5386TIP3    H237574   5.436   4.696   1.265  0.1005  0.0733  0.3286
 5387TIP3   OH237575   6.339   5.668  15.893 -0.4576  0.4828 -0.0727
 5387TIP3    H137576   6.253   5.668  15.934  0.5216  0.2703  2.1234
 5387TIP3    H237577   6.374   5.580  15.911 -0.7203 -0.3549 -3.1575
 5388TIP3   OH237578   5.526   4.946   0.428  0.2036 -0.3919 -0.1193
 5388TIP3    H137579   5.436   4.934   0.398  0.4473 -0.2725 -0.9036
 5388TIP3    H237580   5.520   5.015   0.495 -0.0766  0.7536 -1.2879
 5389TIP3   OH237581   6.653   5.810  11.488 -0.7954 -0.3967 -0.5516
 5389TIP3    H137582   6.732   5.857  11.462 -0.9281  0.0482 -0.1786
 5389TIP3    H237583   6.597   5.878  11.527 -0.0272 -1.2227  2.2005
 5390TIP3   OH237584   4.487   4.504   5.752  0.0439 -0.1218  0.3518
 5390TIP3    H137585   4.503   4.422   5.798 -0.3609  0.4014  1.4671
 5390TIP3    H237586   4.394   4.500   5.729 -0.2079  0.3878  1.2111
 5391TIP3   OH237587   4.234   4.950  10.807  0.2350  0.1805 -0.1092
 5391TIP3    H137588   4.325   4.945  10.777 -0.0891  0.2233 -1.1413
 5391TIP3    H237589   4.184   4.906  10.739 -0.6148  0.9109  0.0307
 5392TIP3   OH237590   2.701   2.880  16.639  0.3820 -0.1829  0.3664
 5392TIP3    H137591   2.689   2.810  16.703 -1.2232  0.2792  0.6355
 5392TIP3    H237592   2.639   2.948  16.667  1.9437  1.3770  0.1575
 5393TIP3   OH237593   2.138   0.087   4.167  0.2084  0.4798  0.7509
 5393TIP3    H137594   2.050   0.108   4.197 -0.3224  1.6321 -1.4545
 5393TIP3    H237595   2.126   0.053   4.078  1.9046 -0.3168  0.7903
 5394TIP3   OH237596   6.679   4.054   3.200 -0.1986  0.3520  0.8888
 5394TIP3    H137597   6.633   4.135   3.222  0.1240  0.6486  0.4861
 5394TIP3    H237598   6.675   4.048   3.105 -1.7308 -1.0156  0.9950
 5395TIP3   OH237599   6.058   6.327  13.425  0.3146  0.4908 -0.8984
 5395TIP3    H137600   6.061   6.235  13.451  0.9568  0.3163 -1.5596
 5395TIP3    H237601   6.063   6.325  13.329  1.7562  1.2655 -0.8623
 5396TIP3   OH237602   3.695   3.896  13.027 -1.0213 -0.0532 -0.0493
 5396TIP3    H137603   3.749   3.972  13.005 -0.6447  0.2183  1.6317
 5396TIP3    H237604   3.673   3.909  13.119 -1.7029 -1.5360  0.0166
 5397TIP3   OH237605   1.879   0.481  14.196  0.6868  0.2565  0.1103
 5397TIP3    H137606   1.905   0.563  14.238 -0.6754  1.0587 -0.5579
 5397TIP3    H237607   1.929   0.414  14.242  0.9854  1.3424  1.4373
 5398TIP3   OH237608   0.356   4.984   0.496  0.1336 -0.5130 -0.2389
 5398TIP3    H137609   0.446   4.952   0.486  1.3720  2.1122  1.4527
 5398TIP3    H237610   0.355   5.069   0.453 -1.4228 -0.2997  0.1528
 5399TIP3   OH237611   3.236   5.220  15.313  0.0166  0.0976  0.1336
 5399TIP3    H137612   3.206   5.142  15.359 -0.4126  0.1317 -0.0806
 5399TIP3    H237613   3.208   5.206  15.222  1.0697 -0.0880 -0.1820
 5400TIP3   OH237614   5.500   6.651  17.026 -0.8810  0.1158  0.4124
 5400TIP3    H137615   5.497   6.600  17.107 -3.3245  0.3577  0.5675
 5400TIP3    H237616   5.446   6.601  16.965 -1.1833  1.1965 -0.2378
 5401TIP3   OH237617   0.948   5.156   1.834  0.7256  0.5962 -0.1485
 5401TIP3    H137618   0.897   5.185   1.910  0.8023 -0.9667  0.5574
 5401TIP3    H237619   0.883   5.147   1.764  0.1872 -0.2614  0.4261
 5402TIP3   OH237620   6.609   1.981  13.132 -0.2729 -0.4503  1.1062
 5402TIP3    H137621   6.523   2.023  13.132 -0.2725 -0.4185 -0.4345
 5402TIP3    H237622   6.619   1.947  13.221 -1.2113  0.8807  1.7493
 5403TIP3   OH237623   1.372   4.936  11.265  0.0730  0.5559 -0.1372
 5403TIP3    H137624   1.404   4.851  11.234  1.2654  0.7382  0.5272
 5403TIP3    H237625   1.356   4.986  11.185  0.0130 -0.0586 -0.5181
 5404TIP3   OH237626   6.113   3.764   2.470 -0.0241  0.6219 -0.3882
 5404TIP3    H137627   6.022   3.734   2.463 -0.2736  0.9773  1.0726
 5404TIP3    H237628   6.106   3.858   2.488  0.6492  0.6792 -0.3981
 5405TIP3   OH237629   5.606   1.283   1.541 -0.0865  0.0654 -0.3402
 5405TIP3    H137630   5.696   1.315   1.534  0.0868 -0.4246 -0.4034
 5405TIP3    H237631   5.560   1.352   1.590  0.3919  0.1848 -0.0492
 5406TIP3   OH237632   6.072   3.641  14.432  0.0619 -0.4291 -0.1645
 5406TIP3    H137633   6.157   3.682  14.447 -0.5340  0.4231  1.0499
 5406TIP3    H237634   6.061   3.643  14.337 -0.1302  2.7885 -0.2001
 5407TIP3   OH237635   4.738   5.823   2.398 -0.1160 -0.0817  0.3012
 5407TIP3    H137636   4.772   5.750   2.450  0.7732 -0.8342 -1.2465
 5407TIP3    H237637   4.789   5.820   2.316 -1.1259  1.3325 -0.4300
 5408TIP3   OH237638   6.530   1.182   0.341 -0.2599 -0.5628  0.0725
 5408TIP3    H137639   6.553   1.105   0.290  1.6821  0.7076 -1.1149
 5408TIP3    H237640   6.445   1.161   0.380 -1.3262 -2.0567 -2.8005
 5409TIP3   OH237641   4.221   1.604  10.833  0.5368 -0.6707 -0.1783
 5409TIP3    H137642   4.156   1.611  10.763 -0.0517  1.2161  0.5059
 5409TIP3    H237643   4.276   1.681  10.823  0.6331 -0.5274  1.2470
 5410TIP3   OH237644   3.251   3.547   3.609 -0.4590 -0.3084  0.7203
 5410TIP3    H137645   3.193   3.584   3.676  0.9747  1.8015  0.8879
 5410TIP3    H237646   3.200   3.552   3.528 -0.4334  2.0105  0.7600
 5411TIP3   OH237647   4.762   0.056   3.836 -0.1472  0.4875 -0.1258
 5411TIP3    H137648   4.696   0.039   3.770 -0.0800  0.1230 -0.1022
 5411TIP3    H237649   4.818   0.123   3.798  1.8612 -1.9835 -1.8639
 5412TIP3   OH237650   5.470   2.114   1.540 -0.3195  0.2611 -0.7616
 5412TIP3    H137651   5.388   2.102   1.492 -1.7239  0.6814  1.4150
 5412TIP3    H237652   5.475   2.209   1.554 -0.3732  0.0731  0.6113
 5413TIP3   OH237653   3.433   2.744  11.080 -0.1554  0.2255  0.3699
 5413TIP3    H137654   3.481   2.812  11.033 -0.0570  0.6102  1.0203
 5413TIP3    H237655   3.419   2.675  11.015 -0.5853  1.0200 -0.4024
 5414TIP3   OH237656   5.686   5.057  15.790 -0.5840  0.0020 -0.5164
 5414TIP3    H137657   5.664   5.006  15.711 -0.3077  1.3058 -1.4714
 5414TIP3    H237658   5.669   5.148  15.765  0.6754  0.5563  0.5357
 5415TIP3   OH237659   2.065   1.624   0.455  0.5411 -0.0235  0.1403
 5415TIP3    H137660   2.015   1.629   0.374 -0.3133 -1.6633  0.5288
 5415TIP3    H237661   2.156   1.616   0.426  0.3852  0.7760 -0.6174
 5416TIP3   OH237662   6.735   1.666  13.161 -0.0994 -0.2848  0.0569
 5416TIP3    H137663   6.765   1.669  13.071  0.1277  0.9460  0.1604
 5416TIP3    H237664   6.683   1.585  13.167 -0.5152 -0.1260 -1.2806
 5417TIP3   OH237665   0.472   2.122  14.879  0.3059 -0.2620  0.0082
 5417TIP3    H137666   0.401   2.148  14.820  0.3820 -1.4227 -0.6311
 5417TIP3    H237667   0.487   2.030  14.858 -0.6289 -1.1450  2.8472
 5418TIP3   OH237668   6.101   3.819  12.017 -0.0186 -0.5233  0.1985
 5418TIP3    H137669   6.033   3.853  12.075  0.0391 -0.7928  0.4283
 5418TIP3    H237670   6.079   3.727  12.006 -0.4064 -0.3373 -0.7503
 5419TIP3   OH237671   4.228   2.893   1.663 -0.0710  0.6615 -0.9514
 5419TIP3    H137672   4.137   2.915   1.683 -0.3563 -0.0179 -1.4571
 5419TIP3    H237673   4.250   2.947   1.588 -0.3082  0.2708 -1.3047
 5420TIP3   OH237674   3.972   0.421  15.973 -0.0397  0.3275  0.3311
 5420TIP3    H137675   4.033   0.383  16.036  1.5145  1.2634 -0.5566
 5420TIP3    H237676   3.923   0.486  16.023  1.7350  1.6463  0.4655
 5421TIP3   OH237677   0.578   5.727   5.170 -1.1157  0.4618  0.2355
 5421TIP3    H137678   0.659   5.745   5.217 -0.4509 -1.0805 -0.2392
 5421TIP3    H237679   0.518   5.795   5.198  0.5511  2.0971  0.0659
 5422TIP3   OH237680   2.433   1.816  14.995 -0.4243  0.0616  0.1097
 5422TIP3    H137681   2.500   1.806  15.062  0.1321 -1.0062 -0.5744
 5422TIP3    H237682   2.402   1.906  15.005  1.6842  0.8634 -0.1133
 5423TIP3   OH237683   2.448   6.537  11.439 -0.3763  0.5198 -0.1740
 5423TIP3    H137684   2.473   6.629  11.429 -1.5043  0.7551 -1.1938
 5423TIP3    H237685   2.373   6.539  11.498  1.3394 -0.0800  2.1440
 5424TIP3   OH237686   1.742   3.259  14.048 -0.0582 -0.7244  0.5966
 5424TIP3    H137687   1.699   3.340  14.077  0.1953 -0.5098  0.3734
 5424TIP3    H237688   1.785   3.282  13.966 -0.4638 -1.2381  0.2342
 5425TIP3   OH237689   1.179   5.968  10.685 -0.5442  0.0692 -0.7456
 5425TIP3    H137690   1.217   5.888  10.723  0.4300  0.4294 -0.9419
 5425TIP3    H237691   1.172   5.949  10.592 -2.2427 -0.5356 -0.5317
 5426TIP3   OH237692   1.938   4.147  10.898 -0.1236 -0.2037 -0.1195
 5426TIP3    H137693   2.026   4.144  10.935  0.0226 -1.9611 -0.5032
 5426TIP3    H237694   1.894   4.071  10.936 -2.0362  1.5242  1.3281
 5427TIP3   OH237695   2.168   2.167   0.988 -0.3002 -0.3976  0.3663
 5427TIP3    H137696   2.098   2.187   0.926 -0.5392 -0.4995  0.6013
 5427TIP3    H237697   2.241   2.138   0.933  0.3207  1.7711 -0.0473
 5428TIP3   OH237698   4.017   4.641   1.785  0.0676  0.2890  0.1518
 5428TIP3    H137699   4.049   4.569   1.840  0.7354  0.2191 -0.3133
 5428TIP3    H237700   4.043   4.616   1.696 -1.2643  0.2469 -0.2522
 5429TIP3   OH237701   0.027   2.861   3.973  0.4035 -0.0191  0.6383
 5429TIP3    H137702   0.107   2.808   3.971 -0.0001 -0.7509  2.4952
 5429TIP3    H237703   0.057   2.948   4.002  0.6360 -0.0440  0.4784
 5430TIP3   OH237704   0.237   5.865  10.737  0.7788  0.2467 -0.0185
 5430TIP3    H137705   0.240   5.929  10.666 -0.0875 -0.1649 -0.4425
 5430TIP3    H237706   0.220   5.781  10.693  0.2030 -0.0059  0.6634
 5431TIP3   OH237707   4.895   5.388   5.985  0.1229 -0.7659 -0.0904
 5431TIP3    H137708   4.878   5.423   5.898 -0.7515 -0.6837  0.1023
 5431TIP3    H237709   4.985   5.357   5.982  1.1430  1.9071 -0.1384
 5432TIP3   OH237710   6.485   0.486  14.503 -0.3893  0.2386 -0.0714
 5432TIP3    H137711   6.567   0.440  14.521 -0.1738  0.5787 -0.1797
 5432TIP3    H237712   6.512   0.570  14.467 -0.6049  2.2856  3.9985
 5433TIP3   OH237713   2.976   6.683  13.160 -0.0982 -0.0249 -0.1190
 5433TIP3    H137714   2.980   6.704  13.253 -0.6243  0.9516 -0.3088
 5433TIP3    H237715   3.065   6.654  13.138  0.3217  0.8233  0.4358
 5434TIP3   OH237716   1.222   3.074   4.565 -0.3472 -0.0453 -0.2304
 5434TIP3    H137717   1.287   3.144   4.557  0.7108 -0.7607  1.4859
 5434TIP3    H237718   1.253   3.006   4.506  1.1426 -0.8138  1.3342
 5435TIP3   OH237719   1.322   5.650  13.859 -0.3559 -0.0327  0.1455
 5435TIP3    H137720   1.261   5.618  13.793  2.0436  0.9386 -2.7708
 5435TIP3    H237721   1.322   5.745  13.847  1.0931  0.0508  0.6621
 5436TIP3   OH237722   0.367   6.492   5.215  0.4165 -0.8582  0.4111
 5436TIP3    H137723   0.439   6.442   5.252  0.8356 -0.6752 -0.1393
 5436TIP3    H237724   0.366   6.468   5.122 -1.2386 -2.0639  0.6807
 5437TIP3   OH237725   2.655   0.520  15.237 -0.0713  0.0033  0.0088
 5437TIP3    H137726   2.660   0.443  15.293 -2.5473  0.1278  0.5146
 5437TIP3    H237727   2.663   0.594  15.297 -1.5432  0.1260  0.0900
 5438TIP3   OH237728   5.962   5.411   5.878  0.3275 -0.0543  0.0464
 5438TIP3    H137729   5.914   5.476   5.928  0.0581  0.2939 -0.6631
 5438TIP3    H237730   5.965   5.334   5.936 -0.1533  0.2703  0.5101
 5439TIP3   OH237731   6.357   4.596  15.307 -0.3498  0.5909  0.4745
 5439TIP3    H137732   6.293   4.662  15.335 -2.1878 -0.3163 -1.3574
 5439TIP3    H237733   6.420   4.645  15.255 -3.0375  0.7605 -3.0033
 5440TIP3   OH237734   2.369   3.213  14.992  0.0087 -0.1806 -0.3042
 5440TIP3    H137735   2.383   3.134  14.939  0.0106  0.0227 -0.6036
 5440TIP3    H237736   2.314   3.269  14.938  0.3755  0.2162 -0.2732
 5441TIP3   OH237737   0.541   1.865  12.503  0.3981 -0.1631 -0.5825
 5441TIP3    H137738   0.628   1.903  12.515  0.9105 -1.0035 -1.4628
 5441TIP3    H237739   0.491   1.894  12.579  1.1801  1.0715 -0.5188
 5442TIP3   OH237740   1.751   4.775   3.290 -0.3602  0.6714  0.0644
 5442TIP3    H137741   1.832   4.725   3.284 -0.0541  1.1566  0.1225
 5442TIP3    H237742   1.742   4.816   3.204 -0.2984  0.9922  0.2100
 5443TIP3   OH237743   2.935   1.940  14.701 -0.2393 -0.0245  0.2584
 5443TIP3    H137744   2.928   2.036  14.705  1.9360  0.2157 -0.5403
 5443TIP3    H237745   2.875   1.915  14.630  0.3996  0.9286 -0.6416
 5444TIP3   OH237746   1.770   4.180   1.089  0.1856  0.8906 -0.0841
 5444TIP3    H137747   1.726   4.108   1.044  1.5039 -0.9492  1.3989
 5444TIP3    H237748   1.863   4.155   1.089  0.2108  0.3211  4.1955
 5445TIP3   OH237749   2.157   3.960  15.957 -0.0921 -0.1444  0.5212
 5445TIP3    H137750   2.122   4.001  15.877  2.8209 -0.0208 -0.8234
 5445TIP3    H237751   2.168   4.033  16.018 -1.4668 -0.0890  0.7312
 5446TIP3   OH237752   3.779   5.302   1.370 -0.1925  0.0556 -0.0892
 5446TIP3    H137753   3.861   5.345   1.395  0.0103 -0.3803  0.0024
 5446TIP3    H237754   3.717   5.328   1.438  0.3896 -1.2269  0.9848
 5447TIP3   OH237755   5.457   3.315  13.128  0.0218 -0.5053  0.2598
 5447TIP3    H137756   5.444   3.339  13.219  1.4930  0.3729  0.2719
 5447TIP3    H237757   5.427   3.390  13.077  0.4573 -0.4414  0.0895
 5448TIP3   OH237758   3.536   4.914  14.739 -0.0703 -0.4973  0.2624
 5448TIP3    H137759   3.505   4.984  14.796  0.2159 -0.3489  0.2378
 5448TIP3    H237760   3.626   4.899  14.767 -0.3720 -1.4043  0.8057
 5449TIP3   OH237761   2.842   4.327  12.252 -0.1782  0.1413 -0.5001
 5449TIP3    H137762   2.838   4.268  12.327  1.1540  0.2141 -0.3453
 5449TIP3    H237763   2.934   4.328  12.227 -0.6654 -0.2655 -2.4596
 5450TIP3   OH237764   2.351   1.867   2.340 -0.0302 -0.1222 -0.2244
 5450TIP3    H137765   2.284   1.918   2.296  0.3642 -0.0199 -0.7167
 5450TIP3    H237766   2.329   1.776   2.320 -0.6353 -0.1444  0.5137
 5451TIP3   OH237767   3.748   1.601  12.647  0.3244  0.1383 -0.0437
 5451TIP3    H137768   3.776   1.565  12.731 -0.0934 -0.7690 -0.2721
 5451TIP3    H237769   3.762   1.529  12.585  0.0775  0.5997 -0.6463
 5452TIP3   OH237770   1.444   2.302  16.472 -0.5537  0.1043 -0.1047
 5452TIP3    H137771   1.369   2.249  16.499 -0.5748  0.1694 -0.0337
 5452TIP3    H237772   1.521   2.255  16.504 -0.5032 -0.5070 -1.0996
 5453TIP3   OH237773   2.833   2.408  12.852  0.0057 -0.6368 -0.2278
 5453TIP3    H137774   2.755   2.355  12.833  0.1593 -0.5292 -1.1854
 5453TIP3    H237775   2.903   2.367  12.800  0.0985  0.5829 -1.0989
 5454TIP3   OH237776   4.318   4.211  13.894 -0.3864  0.3989 -0.0551
 5454TIP3    H137777   4.244   4.155  13.868 -0.6056  1.3466 -1.6329
 5454TIP3    H237778   4.315   4.212  13.990 -3.3405  1.5104 -0.0358
 5455TIP3   OH237779   0.549   3.608  16.806 -0.0272  0.2869  0.2886
 5455TIP3    H137780   0.635   3.628  16.844 -0.6559 -0.1437  2.0517
 5455TIP3    H237781   0.569   3.568  16.721  1.5461 -0.1798  0.8413
 5456TIP3   OH237782   3.011   6.338   3.123 -0.2215  0.0267  0.3640
 5456TIP3    H137783   2.960   6.419   3.121 -0.9329 -0.4027  0.8513
 5456TIP3    H237784   3.100   6.366   3.145 -0.2850  0.7618 -0.3079
 5457TIP3   OH237785   2.912   1.598   5.497 -0.3771 -0.4633  0.0822
 5457TIP3    H137786   2.992   1.649   5.486  0.3530 -1.2866  1.3549
 5457TIP3    H237787   2.940   1.507   5.499 -0.6830 -0.6842  4.6441
 5458TIP3   OH237788   5.898   3.007   5.389  0.3347  0.3817  0.3047
 5458TIP3    H137789   5.954   3.051   5.453 -0.6247 -0.2606  1.6106
 5458TIP3    H237790   5.809   3.019   5.421 -0.1366 -0.3731 -0.6538
 5459TIP3   OH237791   0.010   4.751   4.818 -0.8272 -0.4050  0.1868
 5459TIP3    H137792   0.101   4.723   4.824 -0.8800 -0.8137 -0.7946
 5459TIP3    H237793  -0.007   4.796   4.902 -0.4616 -2.4336  1.4161
 5460TIP3   OH237794   3.726   2.392   5.013 -0.7071 -0.5589  0.1123
 5460TIP3    H137795   3.794   2.459   5.010 -1.0568 -0.1769 -3.1108
 5460TIP3    H237796   3.672   2.415   5.089  0.4176  1.5549  0.3288
 5461TIP3   OH237797   4.957   0.374  12.317 -0.3717 -0.0233  0.3227
 5461TIP3    H137798   4.974   0.347  12.407 -1.0521  1.5013  0.9498
 5461TIP3    H237799   5.042   0.371  12.274 -0.3700 -2.8960  0.3630
 5462TIP3   OH237800   6.797   2.608  15.787 -0.0479 -0.2533  0.0058
 5462TIP3    H137801   6.802   2.562  15.703 -1.1819 -3.4634  1.5111
 5462TIP3    H237802   6.801   2.538  15.853 -0.9095  1.9418  2.5822
 5463TIP3   OH237803   1.883   3.730  10.268 -0.1762 -0.3745  0.3488
 5463TIP3    H137804   1.878   3.824  10.287  0.6961 -0.4753  1.1287
 5463TIP3    H237805   1.837   3.720  10.185  0.1399  0.8267  0.0131
 5464TIP3   OH237806   4.318   0.368   5.265 -0.1077 -0.1503 -0.5440
 5464TIP3    H137807   4.295   0.457   5.240  0.6915  0.0006 -0.7716
 5464TIP3    H237808   4.364   0.377   5.349  0.7095 -0.2551 -0.9716
 5465TIP3   OH237809   2.934   5.474  15.333  0.5673 -0.6427 -0.0754
 5465TIP3    H137810   2.912   5.405  15.270  1.4987 -1.1178  0.1089
 5465TIP3    H237811   3.019   5.507  15.305  0.4845 -0.1045  0.2963
 5466TIP3   OH237812   3.128   4.203   2.447 -0.2458  0.4765 -0.4445
 5466TIP3    H137813   3.200   4.149   2.477  1.4639  3.6438  1.7476
 5466TIP3    H237814   3.157   4.239   2.363 -0.6219 -0.5271 -1.0219
 5467TIP3   OH237815   1.899   1.566   4.977 -0.1669  0.4129 -0.5384
 5467TIP3    H137816   1.842   1.637   5.006  0.5400  0.4004  1.0078
 5467TIP3    H237817   1.948   1.541   5.056  0.1871 -1.2394 -1.2280
 5468TIP3   OH237818   1.033   5.307   4.209  0.3749 -0.0624  0.2262
 5468TIP3    H137819   1.109   5.361   4.233  0.5114 -0.3567  0.4500
 5468TIP3    H237820   1.007   5.340   4.123  0.4553  0.3685  0.3648
 5469TIP3   OH237821   6.232   1.006   5.860 -0.0347  0.0318  0.4945
 5469TIP3    H137822   6.291   1.032   5.789 -0.5433 -0.6504 -0.1941
 5469TIP3    H237823   6.193   0.924   5.830  0.5888 -0.9001  2.0508
 5470TIP3   OH237824   0.013   6.570  16.024 -0.4258  0.0589 -0.6338
 5470TIP3    H137825   0.054   6.646  16.066  0.1777 -0.3824 -0.4023
 5470TIP3    H237826  -0.035   6.526  16.095  1.6865 -1.4354 -0.0320
 5471TIP3   OH237827   6.164   2.020  14.701  0.1433 -0.0240 -0.6778
 5471TIP3    H137828   6.197   2.056  14.784 -2.3324  1.2105 -0.1438
 5471TIP3    H237829   6.180   1.925  14.708  1.5241  0.2557  0.4267
 5472TIP3   OH237830   2.751   4.155   3.523 -0.1674  0.5982  0.2883
 5472TIP3    H137831   2.665   4.127   3.553  0.3028  0.1356  1.2303
 5472TIP3    H237832   2.802   4.168   3.603  0.9064  0.0042 -0.2747
 5473TIP3   OH237833   6.302   5.490  10.286 -0.6360  0.0371  0.4288
 5473TIP3    H137834   6.335   5.543  10.213  0.7620 -1.0187  0.2627
 5473TIP3    H237835   6.213   5.522  10.300 -0.9127  0.3296 -1.6854
 5474TIP3   OH237836   3.204   4.648  17.050  0.4677  0.3822  0.5596
 5474TIP3    H137837   3.276   4.635  17.111  0.8347  0.9866  0.2639
 5474TIP3    H237838   3.232   4.606  16.969  0.4823  0.5973  0.4514
 5475TIP3   OH237839   4.264   2.561   1.084  0.3860  0.8179 -0.3826
 5475TIP3    H137840   4.261   2.523   1.172 -2.2883  2.4561  0.3354
 5475TIP3    H237841   4.241   2.488   1.026 -1.1803  0.4504  0.6398
 5476TIP3   OH237842   4.673   3.687  12.806  0.7598  0.1444  0.4317
 5476TIP3    H137843   4.711   3.603  12.779  1.3627  0.5404  0.0288
 5476TIP3    H237844   4.607   3.705  12.739  1.5112  0.6018 -0.2002
 5477TIP3   OH237845   6.712   2.859   0.306 -0.2312 -0.3158 -0.2588
 5477TIP3    H137846   6.792   2.810   0.327  1.5708  1.4130 -2.5110
 5477TIP3    H237847   6.693   2.908   0.386  1.9225  0.3833 -0.0941
 5478TIP3   OH237848   5.151   6.527   3.159  0.3176  0.2116  0.7142
 5478TIP3    H137849   5.128   6.578   3.082 -0.8689  0.4977  1.2339
 5478TIP3    H237850   5.111   6.442   3.145 -0.0963  0.3354  1.0994
 5479TIP3   OH237851   5.813   4.460  10.351 -0.9008  0.7889 -0.4784
 5479TIP3    H137852   5.813   4.398  10.424 -1.0206  0.2202 -0.9533
 5479TIP3    H237853   5.829   4.406  10.273  0.2838  1.5073 -0.7705
 5480TIP3   OH237854   3.292   1.671   3.476 -0.1745 -0.2379  0.6031
 5480TIP3    H137855   3.359   1.715   3.528  0.5184  1.5340 -1.6593
 5480TIP3    H237856   3.327   1.670   3.387 -2.9397  0.3701 -0.5855
 5481TIP3   OH237857   5.698   4.807   1.311 -0.1597 -0.2520  0.2222
 5481TIP3    H137858   5.734   4.787   1.224 -0.2165  1.2570 -0.1782
 5481TIP3    H237859   5.607   4.780   1.306 -0.6891  1.5166 -0.8745
 5482TIP3   OH237860   0.695   4.016   5.144 -0.1299 -0.1991 -0.1159
 5482TIP3    H137861   0.741   4.020   5.060 -1.2592  1.5839 -0.6982
 5482TIP3    H237862   0.641   3.938   5.138  1.3291 -1.2433 -0.1861
 5483TIP3   OH237863   5.983   3.580   4.657  0.8997 -0.1488  0.1302
 5483TIP3    H137864   5.953   3.619   4.575  1.2078  3.0759  1.3858
 5483TIP3    H237865   5.906   3.533   4.690  0.6682 -1.2050 -1.7745
 5484TIP3   OH237866   1.864   1.575   1.336  1.1438 -0.7931  0.2644
 5484TIP3    H137867   1.858   1.578   1.432 -4.7810 -1.7919  0.3210
 5484TIP3    H237868   1.863   1.666   1.309 -0.8149 -0.4286  1.3247
 5485TIP3   OH237869   5.999   2.977  15.786  0.5517 -0.6082  0.1020
 5485TIP3    H137870   5.937   3.019  15.726  1.9384 -1.2697 -1.9050
 5485TIP3    H237871   6.005   3.037  15.860 -3.1711 -0.9615  0.9074
 5486TIP3   OH237872   0.286   5.308   2.073 -0.1408  0.1102  0.3604
 5486TIP3    H137873   0.308   5.401   2.065  2.6561 -0.5929 -1.2235
 5486TIP3    H237874   0.331   5.280   2.153  1.2434 -0.3958 -0.5628
 5487TIP3   OH237875   0.053   0.318  16.273 -0.1859 -0.3552  0.0393
 5487TIP3    H137876   0.129   0.376  16.273 -0.2403 -0.2731  0.6899
 5487TIP3    H237877   0.066   0.262  16.350 -0.1577 -1.1814 -0.5584
 5488TIP3   OH237878   4.017   5.049  11.878 -0.0108 -0.0631 -0.3117
 5488TIP3    H137879   3.963   4.979  11.915 -1.0486 -0.4822 -2.4212
 5488TIP3    H237880   4.094   5.003  11.843  0.4315  0.1794  0.3287
 5489TIP3   OH237881   4.562   0.322  15.672 -0.1710  0.0173  0.1591
 5489TIP3    H137882   4.611   0.383  15.727 -1.5690  2.3569 -1.0257
 5489TIP3    H237883   4.470   0.348  15.684 -0.5621  0.4115 -2.9724
 5490TIP3   OH237884   0.887   6.681  14.077 -0.1759 -0.4651  0.8570
 5490TIP3    H137885   0.961   6.704  14.134  1.4704 -0.1865 -1.2484
 5490TIP3    H237886   0.916   6.602  14.032 -1.6828 -1.0100  0.8210
 5491TIP3   OH237887   2.164   3.694  14.053  0.0357  0.0062 -0.3049
 5491TIP3    H137888   2.241   3.648  14.087  0.4905  0.4528 -0.7092
 5491TIP3    H237889   2.100   3.624  14.037 -0.2758 -0.1987  1.6116
 5492TIP3   OH237890   4.017   4.723  15.433  0.4661  0.0442  0.3603
 5492TIP3    H137891   3.957   4.792  15.461  1.1210 -0.2374  2.6568
 5492TIP3    H237892   3.976   4.642  15.462  0.9692 -0.3120  0.0929
 5493TIP3   OH237893   5.764   0.689  10.532  0.7044 -0.0236 -0.2772
 5493TIP3    H137894   5.837   0.651  10.581  0.2993  0.1734  0.4997
 5493TIP3    H237895   5.786   0.782  10.526 -0.3984  0.4422  1.7391
 5494TIP3   OH237896   0.162   1.751   3.008 -0.2955 -0.4715  0.2481
 5494TIP3    H137897   0.105   1.776   2.936 -0.5839  1.4427  1.0810
 5494TIP3    H237898   0.115   1.779   3.087  1.2585  0.1082  1.0200
 5495TIP3   OH237899   6.664   4.224  15.222 -0.9633  0.0909 -0.8657
 5495TIP3    H137900   6.582   4.189  15.258 -1.4694 -0.2181 -2.2382
 5495TIP3    H237901   6.698   4.281  15.291 -1.5703 -0.9213  0.3109
 5496TIP3   OH237902   6.345   6.676   5.537 -0.4524  0.5996 -0.5369
 5496TIP3    H137903   6.372   6.586   5.521 -1.8713  0.3349 -1.6186
 5496TIP3    H237904   6.260   6.668   5.580 -0.5412  1.4201 -0.5432
 5497TIP3   OH237905   3.323   5.300   2.595  0.0085 -0.3366 -0.1931
 5497TIP3    H137906   3.256   5.360   2.562  1.3330  0.8656 -0.7707
 5497TIP3    H237907   3.318   5.224   2.537 -0.5597 -0.0799 -0.4883
 5498TIP3   OH237908   4.477   2.040   4.381 -0.2228  0.0486  0.4103
 5498TIP3    H137909   4.540   1.968   4.380 -0.8472 -0.5583 -2.2015
 5498TIP3    H237910   4.397   2.001   4.417  0.4676  0.5158  2.6110
 5499TIP3   OH237911   0.405   6.295  11.673 -0.1803 -0.6009  0.2305
 5499TIP3    H137912   0.394   6.223  11.734  0.0629  0.9861  2.2515
 5499TIP3    H237913   0.491   6.332  11.693 -0.3675  0.3627 -0.6185
 5500TIP3   OH237914   6.515   4.731   2.855 -0.0803 -0.2737 -0.4099
 5500TIP3    H137915   6.461   4.654   2.870 -0.2113 -0.3554 -1.2532
 5500TIP3    H237916   6.587   4.723   2.917  0.4790 -1.6160 -1.2175
 5501TIP3   OH237917   5.398   2.972  14.118  0.2828  0.4257 -0.4242
 5501TIP3    H137918   5.424   2.918  14.192  1.9530  1.1963 -0.4200
 5501TIP3    H237919   5.304   2.986  14.132  0.3506 -0.2892  0.9841
 5502TIP3   OH237920   4.511   0.005  12.487  0.1215  0.3408  0.3095
 5502TIP3    H137921   4.585   0.046  12.441 -2.6051  2.0793 -2.9433
 5502TIP3    H237922   4.533  -0.089  12.488  1.8482  0.6403 -1.6246
 5503TIP3   OH237923   2.622   6.238   2.843 -0.6582  0.3092  0.5585
 5503TIP3    H137924   2.699   6.203   2.888 -0.7064 -0.0910  0.3258
 5503TIP3    H237925   2.634   6.333   2.847  0.8528  0.2570 -1.1965
 5504TIP3   OH237926   6.821   4.770  10.456  0.3348 -0.8689  0.0965
 5504TIP3    H137927   6.778   4.694  10.495 -0.6874 -0.5886 -0.4493
 5504TIP3    H237928   6.857   4.818  10.530  1.1668 -1.9804  0.4354
 5505TIP3   OH237929   6.122   4.111   4.256 -0.3108 -0.3281  0.4931
 5505TIP3    H137930   6.041   4.152   4.285  0.1575  1.6097 -0.7603
 5505TIP3    H237931   6.098   4.062   4.177 -0.4180 -0.5022  0.6329
 5506TIP3   OH237932   3.784   1.174   1.269  0.5214 -0.3760 -0.3724
 5506TIP3    H137933   3.856   1.128   1.225  0.3090  0.0386 -1.1739
 5506TIP3    H237934   3.827   1.236   1.327  0.8783  1.2796 -2.3015
 5507TIP3   OH237935   1.054   1.173   3.064  0.4301 -0.1922  0.5182
 5507TIP3    H137936   1.031   1.117   3.138  0.2349  0.6019  1.0714
 5507TIP3    H237937   0.999   1.251   3.075 -0.6926 -0.6560 -1.2647
 5508TIP3   OH237938   1.259   6.648  16.311 -0.1834 -0.3124  0.3351
 5508TIP3    H137939   1.324   6.643  16.241 -0.5273  0.3209 -0.0342
 5508TIP3    H237940   1.292   6.589  16.379  0.4913 -0.4208 -0.0823
 5509TIP3   OH237941   3.032   2.684  15.548 -0.0580  0.4597  0.1218
 5509TIP3    H137942   3.066   2.651  15.631 -0.0405  0.3810  0.0827
 5509TIP3    H237943   2.955   2.631  15.530  1.0989 -0.9346 -0.9555
 5510TIP3   OH237944   6.335   5.787  14.961  0.1226 -0.3772  0.5751
 5510TIP3    H137945   6.430   5.781  14.971  0.2829 -0.2982 -0.7273
 5510TIP3    H237946   6.301   5.718  15.018  1.0684 -1.7741 -0.4719
 5511TIP3   OH237947   2.244   5.310  15.128  0.4699  0.6992 -0.7251
 5511TIP3    H137948   2.251   5.283  15.219  0.3419 -0.5503 -1.0589
 5511TIP3    H237949   2.333   5.307  15.095  0.3637 -0.1342 -0.9660
 5512TIP3   OH237950   4.704   6.634  11.073  0.2149 -0.1201 -0.2338
 5512TIP3    H137951   4.755   6.570  11.024  1.1551  0.6661 -0.3007
 5512TIP3    H237952   4.632   6.657  11.013  0.8799  0.2121 -0.9213
 5513TIP3   OH237953   0.533   0.570   3.410  0.4120  0.4260 -0.5136
 5513TIP3    H137954   0.526   0.656   3.369  2.6744  0.9657  0.0511
 5513TIP3    H237955   0.506   0.508   3.343 -0.3650  1.5350 -1.2408
 5514TIP3   OH237956   1.700   5.327   2.164 -0.5686  0.3422 -0.0336
 5514TIP3    H137957   1.620   5.314   2.113 -1.6106 -0.1519  1.6263
 5514TIP3    H237958   1.748   5.245   2.157  0.7474  1.2261 -2.4891
 5515TIP3   OH237959   5.527   6.019  11.681  0.5237  0.0269 -0.5572
 5515TIP3    H137960   5.450   6.068  11.654  0.6179  1.7469  2.0282
 5515TIP3    H237961   5.493   5.932  11.705 -0.5629  0.6543  0.2340
 5516TIP3   OH237962   3.129   5.084  17.064 -0.5119  0.6825 -0.0501
 5516TIP3    H137963   3.093   5.170  17.084 -1.1073  0.6675 -0.9809
 5516TIP3    H237964   3.212   5.103  17.019 -0.0532  0.7376  0.7941
 5517TIP3   OH237965   3.558   5.312   3.348 -0.0743 -0.7884 -0.1912
 5517TIP3    H137966   3.640   5.265   3.360 -0.7636 -2.3013 -1.0808
 5517TIP3    H237967   3.546   5.316   3.253 -0.7407 -0.0964 -0.0841
 5518TIP3   OH237968   0.667   5.868   3.812 -0.4270 -0.0229  0.3098
 5518TIP3    H137969   0.596   5.909   3.861  0.9687  2.1883  0.6561
 5518TIP3    H237970   0.627   5.837   3.731 -2.0365 -0.2380  1.1541
 5519TIP3   OH237971   2.245   5.768  14.245  0.1139  0.4057  0.0815
 5519TIP3    H137972   2.226   5.822  14.169  0.3503 -0.4818 -0.6304
 5519TIP3    H237973   2.333   5.796  14.273 -0.0236  0.8161  0.1079
 5520TIP3   OH237974   3.912   1.873  11.772  0.2469 -0.7109  0.0771
 5520TIP3    H137975   3.868   1.787  11.775  0.1107 -0.6815 -0.8299
 5520TIP3    H237976   4.003   1.854  11.795  0.4735 -1.2957 -1.1833
 5521TIP3   OH237977   5.550   5.753  15.734  0.1564  0.1136  0.2222
 5521TIP3    H137978   5.478   5.816  15.729  0.9882  1.2318  1.3281
 5521TIP3    H237979   5.625   5.800  15.696  1.0278  0.2220  1.9516
 5522TIP3   OH237980   1.687   0.063  14.713  0.5891  0.1169 -0.5207
 5522TIP3    H137981   1.624   0.073  14.784  0.2786 -0.5621 -0.6985
 5522TIP3    H237982   1.743  -0.009  14.740  2.3174  1.6968  0.3729
 5523TIP3   OH237983   6.367   0.895  13.288 -0.9041  0.1105 -0.0781
 5523TIP3    H137984   6.442   0.877  13.231 -1.8272  1.8227 -1.9545
 5523TIP3    H237985   6.404   0.947  13.360 -0.2759  0.9298 -0.9719
 5524TIP3   OH237986   4.151   4.371   3.437  0.3988 -0.2312 -0.2053
 5524TIP3    H137987   4.095   4.330   3.504 -0.6774 -1.5372 -1.8146
 5524TIP3    H237988   4.119   4.461   3.431 -1.3558 -0.8541 -0.8397
 5525TIP3   OH237989   6.597   3.589  11.389  0.4353  0.0224  0.1616
 5525TIP3    H137990   6.520   3.630  11.349  2.4217  1.6643 -2.3150
 5525TIP3    H237991   6.645   3.662  11.427  1.5957 -0.7451  0.2006
 5526TIP3   OH237992   1.032   0.249   3.178 -0.1744  0.1567  0.0424
 5526TIP3    H137993   1.090   0.206   3.241 -0.7437 -0.5407  0.0991
 5526TIP3    H237994   1.092   0.296   3.120  0.4958 -0.8577 -0.1254
 5527TIP3   OH237995   5.267   4.485   2.514  0.2806 -0.2429 -0.1263
 5527TIP3    H137996   5.201   4.502   2.447  0.9192  0.7445 -0.5190
 5527TIP3    H237997   5.249   4.549   2.583  0.7222 -0.0723 -0.1658
 5528TIP3   OH237998   1.286   3.670   0.918 -0.0461 -0.3254 -0.8826
 5528TIP3    H137999   1.333   3.718   0.986 -0.1037 -0.0827 -1.0157
 5528TIP3    H238000   1.240   3.600   0.965  1.2919 -1.2321 -0.8553
 5529TIP3   OH238001   4.695   4.300  12.591  0.1334 -0.0537 -0.2971
 5529TIP3    H138002   4.675   4.363  12.522 -1.7364 -0.8220 -0.5302
 5529TIP3    H238003   4.674   4.346  12.672 -1.3403 -0.3519 -0.4713
 5530TIP3   OH238004   0.821   3.776   1.692  0.1130  0.4409 -0.0567
 5530TIP3    H138005   0.755   3.820   1.745  0.0243  1.5369 -1.0319
 5530TIP3    H238006   0.893   3.758   1.753 -0.4944  0.5499  0.6963
 5531TIP3   OH238007   3.743   5.333   2.444 -0.4249  0.5798 -0.0251
 5531TIP3    H138008   3.686   5.261   2.415  0.3764 -0.6470  1.3378
 5531TIP3    H238009   3.682   5.397   2.482 -1.1179  0.4696 -0.9110
 5532TIP3   OH238010   6.197   2.244  12.053 -0.2723  0.0118 -0.1152
 5532TIP3    H138011   6.249   2.220  12.130 -0.2893  0.7071  0.1209
 5532TIP3    H238012   6.204   2.168  11.995  2.8831  0.8696 -1.0893
 5533TIP3   OH238013   4.312   4.730   0.778 -0.4356 -0.3321  0.4252
 5533TIP3    H138014   4.298   4.824   0.766 -1.4997 -0.4820  0.4708
 5533TIP3    H238015   4.346   4.700   0.694 -2.5098 -0.3481 -0.4532
 5534TIP3   OH238016   3.076   1.375  17.027  0.8572  0.5642 -0.3654
 5534TIP3    H138017   3.169   1.395  17.040  0.3278  1.9977  1.5926
 5534TIP3    H238018   3.065   1.289  17.069  1.0244  1.0373  0.6720
 5535TIP3   OH238019   2.838   0.280   4.343 -0.4208 -0.4660 -0.3659
 5535TIP3    H138020   2.885   0.207   4.384 -0.8170 -0.9218 -0.7125
 5535TIP3    H238021   2.895   0.355   4.356 -0.2940 -0.7123  0.5405
 5536TIP3   OH238022   0.100   1.518   6.207 -0.1908  0.6733  0.3183
 5536TIP3    H138023   0.184   1.563   6.195  0.1266  0.1925  0.7273
 5536TIP3    H238024   0.092   1.460   6.131  1.5070 -1.8782  1.9431
 5537TIP3   OH238025   3.748   0.781   4.295 -0.0098 -0.4055  0.1982
 5537TIP3    H138026   3.721   0.861   4.339 -1.2262 -0.6314 -0.0928
 5537TIP3    H238027   3.843   0.776   4.309  0.0463  0.9541  0.4090
 5538TIP3   OH238028   2.629   4.019  12.516  0.2456 -0.9042 -0.0939
 5538TIP3    H138029   2.672   3.975  12.589 -0.3643 -1.4396 -0.0451
 5538TIP3    H238030   2.684   4.096  12.498 -0.0003 -0.3611  1.3931
 5539TIP3   OH238031   5.147   6.012  16.116  0.6569  0.0277 -0.1718
 5539TIP3    H138032   5.172   6.091  16.069  1.0869 -0.2738 -0.4630
 5539TIP3    H238033   5.067   6.036  16.163  1.8343  1.2388  1.3416
 5540TIP3   OH238034   4.011   5.034   5.324 -0.1652  0.6194 -0.6218
 5540TIP3    H138035   4.062   5.110   5.353 -0.7344 -0.0694  2.4773
 5540TIP3    H238036   4.077   4.966   5.307  0.1760  0.9676 -0.7028
 5541TIP3   OH238037   1.728   5.983  14.351  0.9394 -0.3956 -0.2704
 5541TIP3    H138038   1.764   5.949  14.433 -0.3664  0.1272  0.5608
 5541TIP3    H238039   1.702   5.904  14.302  0.1282 -0.6748  0.5914
 5542TIP3   OH238040   6.480   1.760  11.578  0.5374 -0.8177 -0.2143
 5542TIP3    H138041   6.461   1.826  11.644 -0.6005 -0.0509 -1.2637
 5542TIP3    H238042   6.448   1.678  11.615 -0.1155 -0.3951  0.1756
 5543TIP3   OH238043   3.525   5.469   2.523  0.5941 -0.0659  0.4049
 5543TIP3    H138044   3.449   5.418   2.551  0.1184  0.2480 -0.2949
 5543TIP3    H238045   3.520   5.549   2.574 -1.2189  1.2549 -1.6424
 5544TIP3   OH238046   2.341   5.214   1.736  0.3814 -0.2819 -0.1632
 5544TIP3    H138047   2.398   5.146   1.702  0.0347 -0.3064 -0.7032
 5544TIP3    H238048   2.397   5.265   1.794  0.6184 -1.0791  0.3266
 5545TIP3   OH238049   1.627   4.662   0.048 -0.1319  0.6782  0.2461
 5545TIP3    H138050   1.623   4.714  -0.031 -2.2939  0.6426  0.2719
 5545TIP3    H238051   1.720   4.659   0.071  0.4298  1.4106 -1.7789
 5546TIP3   OH238052   0.336   6.139   2.028  0.0305  0.2798 -0.6814
 5546TIP3    H138053   0.242   6.147   2.012 -0.2391 -0.5255  0.3944
 5546TIP3    H238054   0.362   6.222   2.068  0.1357  1.1653 -2.4851
 5547TIP3   OH238055   1.023   1.850  16.332  0.4150 -0.2114 -0.3056
 5547TIP3    H138056   1.080   1.777  16.306 -0.4320 -0.5763 -1.2065
 5547TIP3    H238057   1.001   1.894  16.250  2.1067  2.0094  0.3384
 5548TIP3   OH238058   2.924   6.391  10.342  0.7503  0.1731  0.2427
 5548TIP3    H138059   2.898   6.478  10.370  0.2938 -0.0142  0.4094
 5548TIP3    H238060   2.861   6.368  10.274  1.4321  0.3468 -0.4622
 5549TIP3   OH238061   0.482   3.220  16.063  0.4497 -0.0541 -0.4234
 5549TIP3    H138062   0.564   3.226  16.013  0.8751  0.6435  0.3201
 5549TIP3    H238063   0.422   3.173  16.006  1.6645 -1.4803 -0.5978
 5550TIP3   OH238064   0.335   2.041  11.996 -0.3708  0.2300 -0.2638
 5550TIP3    H138065   0.341   1.952  11.962 -0.3698 -0.0759  0.4997
 5550TIP3    H238066   0.395   2.092  11.942 -0.0588 -0.3198 -0.4437
 5551TIP3   OH238067   2.049   2.029   0.100  0.8059 -0.0647  1.3527
 5551TIP3    H138068   1.959   2.016   0.069  0.8373  1.9463  0.2651
 5551TIP3    H238069   2.057   1.969   0.174 -1.1939 -0.8122  1.0356
 5552TIP3   OH238070   1.607   3.006  14.726 -0.3822  0.5670  0.1648
 5552TIP3    H138071   1.558   3.058  14.663 -0.2009  0.1020 -0.3667
 5552TIP3    H238072   1.615   2.920  14.685  0.1569  0.4010  0.6079
 5553TIP3   OH238073   5.005   4.461  15.563 -0.8448 -0.4631 -0.0671
 5553TIP3    H138074   5.046   4.401  15.501  0.2105 -1.3034  1.3747
 5553TIP3    H238075   5.053   4.543  15.553 -0.7921 -0.5388 -0.4627
 5554TIP3   OH238076   5.959   3.231  13.316  0.8817 -0.2594  0.2577
 5554TIP3    H138077   5.950   3.154  13.372  1.6964 -1.2510 -0.9291
 5554TIP3    H238078   5.871   3.269  13.314  0.0819 -2.0272 -0.3576
 5555TIP3   OH238079   0.505   1.662   3.238 -0.2372 -0.0124  0.1828
 5555TIP3    H138080   0.595   1.628   3.228 -0.1535 -0.3404  1.7984
 5555TIP3    H238081   0.450   1.594   3.198  0.2171  0.2208 -0.8844
 5556TIP3   OH238082   0.302   3.811   2.387  0.1240 -0.0726  0.4864
 5556TIP3    H138083   0.305   3.736   2.328 -0.6658 -0.9823  1.5382
 5556TIP3    H238084   0.271   3.884   2.333  2.0986 -0.1572 -0.8603
 5557TIP3   OH238085   1.507   4.506  15.474 -0.5743 -0.7986 -0.0196
 5557TIP3    H138086   1.602   4.517  15.484 -0.3839 -2.0703 -0.2128
 5557TIP3    H238087   1.476   4.487  15.562 -0.4618 -1.5976 -0.1491
 5558TIP3   OH238088   2.542   6.343  15.491 -0.0249  0.5223 -0.3098
 5558TIP3    H138089   2.501   6.392  15.563  0.9936  0.7530  0.1427
 5558TIP3    H238090   2.479   6.347  15.420  0.5026  3.6616 -0.7614
 5559TIP3   OH238091   2.169   2.665  16.030  0.2460  0.4322 -0.3019
 5559TIP3    H138092   2.144   2.748  16.071  1.1254 -0.6122  2.6182
 5559TIP3    H238093   2.263   2.657  16.047  0.0377 -1.5084  0.1846
 5560TIP3   OH238094   2.691   0.664   1.297 -0.3854  0.2076 -0.7966
 5560TIP3    H138095   2.785   0.647   1.295 -0.7514 -2.1072 -2.0502
 5560TIP3    H238096   2.681   0.739   1.356  2.0632 -0.6141  0.8051
 5561TIP3   OH238097   3.636   0.638   0.472  0.2912  0.5564 -0.3578
 5561TIP3    H138098   3.686   0.709   0.431 -0.8280  0.6936 -1.5652
 5561TIP3    H238099   3.581   0.682   0.537  0.8943  0.5482  0.1685
 5562TIP3   OH238100   6.081   2.909  11.774 -0.1211 -0.0039  0.2247
 5562TIP3    H138101   6.156   2.860  11.807  1.1859  1.0705 -1.0160
 5562TIP3    H238102   6.065   2.871  11.687 -0.4387  0.3890  0.1109
 5563TIP3   OH238103   2.478   6.190   1.356  0.2917  0.4226  0.5665
 5563TIP3    H138104   2.433   6.126   1.300 -2.0387  0.3956  2.3354
 5563TIP3    H238105   2.460   6.161   1.445  1.3462  2.1343  1.3828
 5564TIP3   OH238106   1.265   5.467   4.175 -0.0386  0.5380 -0.0350
 5564TIP3    H138107   1.193   5.523   4.149 -0.0998 -0.4840 -2.3156
 5564TIP3    H238108   1.311   5.516   4.242 -1.6587  2.0891  0.0029
 5565TIP3   OH238109   6.549   4.480  13.524  0.1623 -0.4085 -0.0026
 5565TIP3    H138110   6.492   4.538  13.575  0.9349  0.0586  0.3500
 5565TIP3    H238111   6.513   4.392  13.539 -0.9027 -0.0452 -0.3891
 5566TIP3   OH238112   4.269   5.772  12.569  0.1449 -0.2139  0.0417
 5566TIP3    H138113   4.302   5.859  12.590 -0.5068  0.3714 -1.2509
 5566TIP3    H238114   4.298   5.755  12.480 -3.4749  0.6612 -1.4985
 5567TIP3   OH238115   5.434   4.137  16.752  0.1316 -0.6674 -0.2419
 5567TIP3    H138116   5.424   4.131  16.847 -1.4045 -1.3382 -0.4106
 5567TIP3    H238117   5.362   4.084  16.717  1.6011 -1.7893 -1.7742
 5568TIP3   OH238118   4.892   2.065  13.682 -0.0807  0.0319  0.4132
 5568TIP3    H138119   4.966   2.122  13.701 -0.7981  1.1106  0.0101
 5568TIP3    H238120   4.909   1.986  13.734  2.1353 -0.4020 -0.8155
 5569TIP3   OH238121   0.485   4.715  16.447  0.1390 -0.4665  0.2574
 5569TIP3    H138122   0.442   4.798  16.427 -2.1670 -2.0104 -1.7710
 5569TIP3    H238123   0.564   4.715  16.393  0.2202  0.4368  0.3622
 5570TIP3   OH238124   4.719   6.047  11.120  0.1416  0.1989  0.1742
 5570TIP3    H138125   4.665   6.126  11.121  0.8129  0.7168  2.6683
 5570TIP3    H238126   4.680   5.992  11.052 -3.1563  0.8258  1.3747
 5571TIP3   OH238127   5.596   6.521  13.767  0.0363  0.4902 -0.0443
 5571TIP3    H138128   5.579   6.574  13.690 -2.8733 -0.0454  0.1342
 5571TIP3    H238129   5.535   6.554  13.833 -1.1565 -2.3153  0.3905
 5572TIP3   OH238130   2.119   1.165  10.384 -0.2719 -0.1791 -0.3018
 5572TIP3    H138131   2.186   1.116  10.335 -0.0819  0.4010 -0.6239
 5572TIP3    H238132   2.141   1.150  10.476  0.5016  0.2656 -0.4048
 5573TIP3   OH238133   4.349   3.724   1.333 -0.4571 -0.8814 -0.4539
 5573TIP3    H138134   4.336   3.743   1.241  0.2101  1.1626 -0.1796
 5573TIP3    H238135   4.269   3.755   1.376 -0.7316 -1.7500 -0.3263
 5574TIP3   OH238136   4.945   3.725  12.343  0.1503  0.0489 -0.3230
 5574TIP3    H138137   4.978   3.636  12.352 -1.2510 -0.4525  0.0741
 5574TIP3    H238138   5.007   3.767  12.283  0.2581 -1.5087 -1.3806
 5575TIP3   OH238139   2.080   0.312   5.834  0.9355 -0.0433  0.6047
 5575TIP3    H138140   2.046   0.386   5.783  0.0723  0.1936  1.4891
 5575TIP3    H238141   2.170   0.337   5.855  1.2840 -0.1204 -0.7260
 5576TIP3   OH238142   4.696   0.011  13.909 -0.5894 -0.2222 -0.0532
 5576TIP3    H138143   4.673  -0.035  13.990 -1.2074 -1.7486 -1.0601
 5576TIP3    H238144   4.613   0.019  13.862 -0.3491  1.2181 -0.2737
 5577TIP3   OH238145   4.516   2.540   1.349  0.2180  0.2446  0.5493
 5577TIP3    H138146   4.575   2.501   1.284 -1.8122  0.8681 -1.7937
 5577TIP3    H238147   4.529   2.634   1.339 -4.0384  0.7697 -3.2638
 5578TIP3   OH238148   2.856   2.592  12.516  0.2266 -0.1764 -0.3125
 5578TIP3    H138149   2.805   2.622  12.440 -0.0040 -0.0005 -0.0891
 5578TIP3    H238150   2.932   2.548  12.477  0.9633  1.3136 -0.6654
 5579TIP3   OH238151   4.482   3.281  11.278 -0.0817 -0.1504 -0.2270
 5579TIP3    H138152   4.518   3.344  11.216 -0.8793  0.8739  0.3129
 5579TIP3    H238153   4.467   3.332  11.358 -2.4314 -0.5488 -0.3367
 5580TIP3   OH238154   4.550   5.915  14.443  0.1174 -0.1679  0.6183
 5580TIP3    H138155   4.512   5.828  14.429 -0.6554  0.2237  0.1816
 5580TIP3    H238156   4.479   5.964  14.485 -0.2088  0.8525 -1.0533
 5581TIP3   OH238157   2.708   1.628  11.691 -0.0604  1.1469  0.3480
 5581TIP3    H138158   2.704   1.685  11.768  1.3067  1.0161  0.5418
 5581TIP3    H238159   2.768   1.558  11.717 -1.3116 -0.1359 -0.0600
 5582TIP3   OH238160   0.944   6.061  12.398  0.0469  0.3060  0.7504
 5582TIP3    H138161   0.861   6.042  12.355  1.0201 -0.4025 -0.8996
 5582TIP3    H238162   0.990   5.977  12.400  1.6345  1.0983 -0.4370
 5583TIP3   OH238163   1.767   6.150  12.083  0.1577 -0.5906 -0.4278
 5583TIP3    H138164   1.688   6.162  12.031  0.5974 -0.6228 -1.1146
 5583TIP3    H238165   1.825   6.221  12.055  1.6210 -2.4159 -2.3270
 5584TIP3   OH238166   5.216   4.992   3.150 -0.7915 -0.0882 -0.2155
 5584TIP3    H138167   5.136   5.026   3.108  0.0636  1.1547 -0.9242
 5584TIP3    H238168   5.248   5.066   3.202  0.4227 -0.2337 -0.7394
 5585TIP3   OH238169   5.166   6.553   1.711 -0.3176 -0.7601 -0.3291
 5585TIP3    H138170   5.101   6.525   1.775 -0.2503  0.6073  0.3818
 5585TIP3    H238171   5.247   6.510   1.738 -0.6046 -1.3215 -0.3536
 5586TIP3   OH238172   1.406   2.919   0.554 -0.6278  0.6262  0.5621
 5586TIP3    H138173   1.350   2.982   0.509 -0.9438 -1.3168 -2.0132
 5586TIP3    H238174   1.484   2.913   0.499  1.0881  1.4960  2.7977
 5587TIP3   OH238175   5.490   5.791  13.375 -0.1346  0.0293  1.0656
 5587TIP3    H138176   5.550   5.835  13.314 -0.6256 -0.7657 -0.0171
 5587TIP3    H238177   5.524   5.702  13.381 -0.5149 -0.0927  1.3848
 5588TIP3   OH238178   1.527   2.442   0.818  0.1853 -0.0224 -0.4248
 5588TIP3    H138179   1.567   2.387   0.751  0.3552 -2.1232  1.2700
 5588TIP3    H238180   1.433   2.426   0.810  0.1341  0.4180 -0.7207
 5589TIP3   OH238181   4.179   0.181   0.046 -0.1220  0.8623  0.1948
 5589TIP3    H138182   4.130   0.263   0.038 -0.1409  1.4410  4.0307
 5589TIP3    H238183   4.113   0.115   0.066 -0.1672 -0.3838 -3.3420
 5590TIP3   OH238184   1.631   3.112   0.345 -0.0693  0.0207 -0.3262
 5590TIP3    H138185   1.632   3.140   0.436 -2.0944 -1.6163  0.2896
 5590TIP3    H238186   1.713   3.145   0.308  1.1336  0.1460  2.2620
 5591TIP3   OH238187   4.765   2.606  15.213  0.1109  0.3004  0.0805
 5591TIP3    H138188   4.739   2.667  15.282 -0.5223 -0.5186  0.5826
 5591TIP3    H238189   4.728   2.644  15.133  0.9794  1.3352  0.1304
 5592TIP3   OH238190   5.735   6.755   3.302 -0.4373 -0.1314 -0.4410
 5592TIP3    H138191   5.780   6.697   3.363 -1.8758  0.4046  1.2102
 5592TIP3    H238192   5.643   6.726   3.305 -0.7316  0.6231 -1.5315
 5593TIP3   OH238193   0.096   6.039   4.880  0.0429 -0.1031 -0.2065
 5593TIP3    H138194   0.060   5.966   4.931 -1.0507  0.3139 -0.3517
 5593TIP3    H238195   0.114   6.107   4.945 -1.0022  0.2896 -0.2970
 5594TIP3   OH238196   6.166   6.727   2.445  0.2436 -0.0404  0.0343
 5594TIP3    H138197   6.201   6.710   2.357 -0.9226 -1.6711 -0.1666
 5594TIP3    H238198   6.243   6.736   2.500  1.0097  1.2563 -1.1699
 5595TIP3   OH238199   5.506   3.567  11.468  0.0657  0.1980 -0.4472
 5595TIP3    H138200   5.437   3.536  11.410 -0.9802  0.4537  0.5965
 5595TIP3    H238201   5.587   3.556  11.419 -0.5217 -1.8295 -1.0293
 5596TIP3   OH238202   0.273   3.603   2.207 -0.0608  0.6186  0.3908
 5596TIP3    H138203   0.185   3.597   2.243 -0.5818  0.9621 -0.7974
 5596TIP3    H238204   0.307   3.514   2.209  0.1569  0.6991  2.2423
 5597TIP3   OH238205   3.738   0.164   4.596 -0.4336 -0.2424  0.2334
 5597TIP3    H138206   3.779   0.226   4.536  0.5977  0.7267  1.8302
 5597TIP3    H238207   3.650   0.198   4.610  0.0753  0.8327  0.9799
 5598TIP3   OH238208   0.352   5.727  16.803  0.0393  0.1102  0.1568
 5598TIP3    H138209   0.413   5.670  16.849  0.1608  0.4528  0.4270
 5598TIP3    H238210   0.357   5.699  16.712 -1.9261 -2.1675  0.6306
 5599TIP3   OH238211   4.709   6.574  13.385  0.3877 -0.2796 -0.0764
 5599TIP3    H138212   4.695   6.505  13.320 -1.5954 -0.9556  0.9891
 5599TIP3    H238213   4.753   6.644  13.337  0.3461 -1.3640 -1.7602
 5600TIP3   OH238214   4.272   4.085  15.207 -0.2849 -0.1691 -0.2210
 5600TIP3    H138215   4.312   4.160  15.250 -0.9392  0.2198 -0.2705
 5600TIP3    H238216   4.193   4.121  15.165 -1.2902 -1.0979  0.7790
 5601TIP3   OH238217   3.792   3.464   5.050  0.3655  0.1617 -0.2837
 5601TIP3    H138218   3.713   3.413   5.032  0.6378 -0.6834  0.8430
 5601TIP3    H238219   3.760   3.553   5.063 -0.3902 -0.1419 -0.0017
 5602TIP3   OH238220   1.906   1.326  16.294  0.1082 -0.5591  0.2345
 5602TIP3    H138221   1.812   1.311  16.307 -0.0310 -1.4958 -1.5242
 5602TIP3    H238222   1.948   1.255  16.342 -0.1842 -1.3126 -0.6027
 5603TIP3   OH238223   6.442   3.619  14.739  0.3275 -0.2422 -0.2649
 5603TIP3    H138224   6.472   3.703  14.702  0.6638 -1.1216 -2.1264
 5603TIP3    H238225   6.350   3.634  14.758 -0.2004 -0.0327 -2.6531
 5604TIP3   OH238226   4.445   3.292  12.345  0.0532  0.1999  0.6193
 5604TIP3    H138227   4.359   3.249  12.346 -0.3943  1.0601  1.7827
 5604TIP3    H238228   4.503   3.228  12.304 -1.2349 -0.1889 -0.6966
 5605TIP3   OH238229   0.513   6.743  12.060 -0.5819 -0.0155 -0.4329
 5605TIP3    H138230   0.458   6.806  12.013  1.9801  1.1614 -2.0218
 5605TIP3    H238231   0.557   6.795  12.127  0.2591 -0.4339 -0.6435
 5606TIP3   OH238232   0.462   1.514   4.749  0.1552 -0.0584  0.0690
 5606TIP3    H138233   0.467   1.453   4.674  2.8274 -1.6133  1.3505
 5606TIP3    H238234   0.380   1.491   4.792 -0.2996 -0.7485 -1.0856
 5607TIP3   OH238235   4.454   2.026  11.086  0.3247 -0.3859  0.3025
 5607TIP3    H138236   4.474   1.987  11.000 -0.6197  1.7381 -0.9403
 5607TIP3    H238237   4.459   2.120  11.072  1.0863  0.0358  2.8509
 5608TIP3   OH238238   0.519   5.954   2.067 -0.4014 -0.1124 -0.7684
 5608TIP3    H138239   0.463   6.031   2.075 -1.9096 -1.3080  1.8306
 5608TIP3    H238240   0.526   5.921   2.157  3.1532 -1.0119 -1.2334
 5609TIP3   OH238241   0.784   3.113  16.600  0.4954  0.2806 -0.3245
 5609TIP3    H138242   0.794   3.156  16.685  0.9235 -0.7395  0.1562
 5609TIP3    H238243   0.851   3.154  16.545  1.1372 -0.0022  0.2282
 5610TIP3   OH238244   5.904   0.392  17.025 -0.1787 -0.3471 -0.0249
 5610TIP3    H138245   5.826   0.392  16.970  0.9950 -1.0150 -1.8027
 5610TIP3    H238246   5.923   0.300  17.040  0.7982 -0.2344 -0.4602
 5611TIP3   OH238247   5.684   0.758   4.968 -0.3124 -0.4540 -0.1573
 5611TIP3    H138248   5.690   0.685   4.906  2.8865 -1.4525  1.1298
 5611TIP3    H238249   5.652   0.831   4.916  1.6414 -1.3858 -2.9028
 5612TIP3   OH238250   2.513   5.083   0.560 -0.2107  0.1749  0.6403
 5612TIP3    H138251   2.598   5.040   0.561 -0.3366 -0.3546 -2.1646
 5612TIP3    H238252   2.533   5.175   0.543 -0.1629  0.0577  0.0239
 5613TIP3   OH238253   3.802   3.144   5.672  0.1307 -0.0683  0.9607
 5613TIP3    H138254   3.778   3.228   5.713  2.0269  2.4269 -2.5276
 5613TIP3    H238255   3.718   3.099   5.661 -1.0236  1.4805  2.5973
 5614TIP3   OH238256   4.185   0.812  12.479  0.2597 -0.3263 -0.0270
 5614TIP3    H138257   4.106   0.815  12.533  0.9865 -0.5878  1.0965
 5614TIP3    H238258   4.209   0.719  12.478  3.0736  0.1087  3.5779
 5615TIP3   OH238259   2.105   0.918  11.762  0.2746  0.0427 -0.1832
 5615TIP3    H138260   2.043   0.919  11.689  0.0940  0.9058 -0.0335
 5615TIP3    H238261   2.049   0.914  11.840  0.4584 -0.6753 -0.0834
 5616TIP3   OH238262   3.847   0.581  14.967  0.0704  0.6757  0.3303
 5616TIP3    H138263   3.878   0.667  14.937 -0.0666  0.5353 -0.2216
 5616TIP3    H238264   3.815   0.538  14.888  1.2552 -0.3702  0.3953
 5617TIP3   OH238265   3.454   2.867   3.388  0.1477 -0.3347 -0.4085
 5617TIP3    H138266   3.494   2.812   3.321  0.7473 -1.3323  0.7229
 5617TIP3    H238267   3.513   2.859   3.463  0.0517  1.5744 -0.0766
 5618TIP3   OH238268   3.252   0.410  16.938 -0.2488 -0.5624  0.4773
 5618TIP3    H138269   3.337   0.373  16.960  0.3272  0.6568  0.3639
 5618TIP3    H238270   3.245   0.489  16.991 -0.2851  0.6228 -1.2267
 5619TIP3   OH238271   1.186   3.833  12.744  0.2678 -0.2209 -0.0653
 5619TIP3    H138272   1.127   3.882  12.686 -0.5730 -0.5862  0.4636
 5619TIP3    H238273   1.155   3.851  12.832  1.1145 -0.2222  0.2455
 5620TIP3   OH238274   4.800   3.967   1.623  0.1867  0.0394  0.1466
 5620TIP3    H138275   4.712   4.003   1.625 -0.2426 -0.9826  0.4372
 5620TIP3    H238276   4.818   3.942   1.714  0.4104 -0.5844 -0.0598
 5621TIP3   OH238277   4.822   1.900  13.891 -0.4918  0.1058 -0.2645
 5621TIP3    H138278   4.766   1.824  13.872 -2.4388  1.1216  1.0195
 5621TIP3    H238279   4.908   1.863  13.910 -1.1692 -1.6966 -0.5000
 5622TIP3   OH238280   3.113   2.691  13.202 -0.4572  0.0194 -0.0535
 5622TIP3    H138281   3.071   2.757  13.256 -0.6712  0.4764 -0.7547
 5622TIP3    H238282   3.080   2.708  13.114  0.4819 -0.1988 -0.4648
 5623TIP3   OH238283   2.190   1.293   4.765 -0.0014 -0.0493  0.0453
 5623TIP3    H138284   2.154   1.233   4.830  0.2018  1.5038  1.6484
 5623TIP3    H238285   2.285   1.291   4.781  0.6266 -2.6542 -2.8958
 5624TIP3   OH238286   2.020   6.485   2.935 -0.7591 -0.3426 -0.7195
 5624TIP3    H138287   1.957   6.490   3.006  0.3616 -1.6419  0.4350
 5624TIP3    H238288   2.068   6.404   2.951  0.1335 -0.2239 -2.4676
 5625TIP3   OH238289   4.656   1.018   9.965 -0.6586  0.4135 -0.2810
 5625TIP3    H138290   4.744   1.001   9.931 -1.3869 -2.1620 -1.1188
 5625TIP3    H238291   4.630   1.099   9.923  1.1405  1.0039 -0.3418
 5626TIP3   OH238292   0.385   6.087  16.792  0.0606  0.3267 -0.7064
 5626TIP3    H138293   0.447   6.160  16.800  0.6815 -0.2576 -0.0990
 5626TIP3    H238294   0.440   6.009  16.785 -0.5659 -0.4192  1.7616
 5627TIP3   OH238295   4.335   6.734  11.906  1.1357  0.2509 -0.0867
 5627TIP3    H138296   4.352   6.646  11.871  1.3054  1.0324 -2.0926
 5627TIP3    H238297   4.303   6.784  11.831  0.0891  1.6597  1.2424
 5628TIP3   OH238298   3.488   1.401   0.729  0.4107 -0.7572 -0.0011
 5628TIP3    H138299   3.406   1.394   0.680 -0.2568 -0.1451  0.9976
 5628TIP3    H238300   3.556   1.393   0.662 -0.4764  1.2151 -1.2400
 5629TIP3   OH238301   1.506   6.560   4.072  0.7610  0.0622 -0.0666
 5629TIP3    H138302   1.503   6.613   4.151 -0.1795 -0.1575  0.0610
 5629TIP3    H238303   1.540   6.619   4.005  1.9659  0.1317  0.5792
 5630TIP3   OH238304   2.283   4.963  13.309  0.8171  0.0850 -0.0642
 5630TIP3    H138305   2.281   5.059  13.309  0.8158  0.0884  0.6799
 5630TIP3    H238306   2.201   4.937  13.269  0.3388  0.3960  0.6921
 5631TIP3   OH238307   4.082   5.278   5.017 -0.3592 -0.6632 -0.2804
 5631TIP3    H138308   4.039   5.327   4.947  2.7297 -2.1673 -3.5853
 5631TIP3    H238309   4.030   5.198   5.028 -0.3628 -0.8617 -1.6472
 5632TIP3   OH238310   5.876   1.149   6.557 -0.0333 -0.2111 -0.1045
 5632TIP3    H138311   5.938   1.219   6.540 -0.0574 -0.4264 -1.1915
 5632TIP3    H238312   5.829   1.176   6.635  0.3298  0.7213 -0.1986
 5633TIP3   OH238313   5.612   1.869  10.615 -0.4411  0.1802 -0.3586
 5633TIP3    H138314   5.667   1.928  10.666  0.0371 -0.1586 -0.4744
 5633TIP3    H238315   5.642   1.781  10.639  0.4990  0.0163 -1.9675
 5634TIP3   OH238316   0.632   3.415   4.795 -0.0057  0.2371  0.4583
 5634TIP3    H138317   0.583   3.451   4.869  1.0989  0.7827  0.9511
 5634TIP3    H238318   0.715   3.463   4.796 -0.0024  0.2943 -1.1890
 5635TIP3   OH238319   6.161   6.604   5.843 -0.4643 -0.2121 -0.1332
 5635TIP3    H138320   6.111   6.595   5.762 -0.9853  0.6452  0.0854
 5635TIP3    H238321   6.131   6.532   5.898 -1.8038  0.5430  0.1583
 5636TIP3   OH238322   5.726   4.785   0.354 -0.6077 -0.1082  0.0277
 5636TIP3    H138323   5.747   4.812   0.265  0.3819 -0.0651  0.2662
 5636TIP3    H238324   5.647   4.834   0.376 -0.7312  0.0481 -0.7420
 5637TIP3   OH238325   1.859   2.640  13.112 -0.1875  0.2152 -0.2805
 5637TIP3    H138326   1.940   2.688  13.130 -1.2201  1.1256  2.2953
 5637TIP3    H238327   1.803   2.704  13.067 -0.2333  0.2409 -0.1865
 5638TIP3   OH238328   4.192   2.064  15.100 -0.7395 -0.0879  0.2091
 5638TIP3    H138329   4.111   2.050  15.052 -0.4253  1.3148 -0.7673
 5638TIP3    H238330   4.198   2.159  15.113  0.7677 -0.1453  0.2142
 5639TIP3   OH238331   6.286   4.957   4.239  0.4979 -0.5347  0.6280
 5639TIP3    H138332   6.325   4.974   4.154  0.6508 -0.8275  0.6393
 5639TIP3    H238333   6.242   5.039   4.262  0.1824 -0.5621  0.1259
 5640TIP3   OH238334   6.054   3.592   6.123  0.7463  0.0018  0.1924
 5640TIP3    H138335   6.137   3.596   6.171  0.5635 -1.3941  0.6654
 5640TIP3    H238336   6.072   3.535   6.049  0.6090  0.9499 -0.5948
 5641TIP3   OH238337   1.976   4.222   0.177 -0.0057  0.0149 -0.3743
 5641TIP3    H138338   1.945   4.236   0.266  0.2051 -0.2188 -0.2603
 5641TIP3    H238339   2.030   4.143   0.183  1.7467  1.1420 -0.2757
 5642TIP3   OH238340   4.100   3.966   3.127 -0.0703 -0.3303  0.1331
 5642TIP3    H138341   4.046   3.891   3.151 -2.1575  1.2270  0.5859
 5642TIP3    H238342   4.039   4.039   3.124  1.8867  1.3695 -0.2769
 5643TIP3   OH238343   1.612   6.786   2.307 -0.1316 -0.2689  0.2074
 5643TIP3    H138344   1.597   6.875   2.276 -1.2990 -0.2038  0.8970
 5643TIP3    H238345   1.570   6.730   2.242 -0.1363 -0.2728  0.2139
 5644TIP3   OH238346   0.414   5.973   4.521 -1.1021  0.2105 -0.4302
 5644TIP3    H138347   0.337   5.975   4.464 -2.2348  1.8696  1.0154
 5644TIP3    H238348   0.384   5.927   4.600  0.0966 -1.0805 -0.6859
 5645TIP3   OH238349   3.687   3.008  12.480 -0.1194  0.4346 -0.0121
 5645TIP3    H138350   3.687   2.924  12.435 -3.8660  0.9524 -1.3196
 5645TIP3    H238351   3.733   3.068  12.421 -0.8663  0.1054 -0.9332
 5646TIP3   OH238352   6.815   2.245  11.459  0.1603 -0.0101  0.0376
 5646TIP3    H138353   6.755   2.222  11.530  0.6072 -0.6002  0.2351
 5646TIP3    H238354   6.766   2.224  11.379 -0.2458  0.4118  0.1694
 5647TIP3   OH238355   2.758   0.646  16.181  0.3722  0.6250 -0.2333
 5647TIP3    H138356   2.721   0.566  16.145  1.3293 -0.3956  0.9865
 5647TIP3    H238357   2.711   0.716  16.136 -1.1054 -0.6078 -0.6836
 5648TIP3   OH238358   2.502   5.746   2.155  0.4733 -0.3823 -0.1293
 5648TIP3    H138359   2.559   5.668   2.153 -0.1598 -0.9521  1.6414
 5648TIP3    H238360   2.513   5.780   2.244 -1.8279 -0.4418  0.2326
 5649TIP3   OH238361   3.053   3.231   0.242 -0.8458 -0.1316  0.2178
 5649TIP3    H138362   3.089   3.277   0.317 -0.7821  0.1959 -0.0111
 5649TIP3    H238363   3.120   3.166   0.218  0.5782  1.8435 -1.4950
 5650TIP3   OH238364   3.277   4.384  15.876  0.1686  0.8941  0.6661
 5650TIP3    H138365   3.247   4.299  15.909 -0.6303  0.5587 -0.8566
 5650TIP3    H238366   3.229   4.397  15.795  3.3172  0.8274 -1.3930
 5651TIP3   OH238367   1.710   6.486  15.522  0.8578 -0.0610 -0.3415
 5651TIP3    H138368   1.673   6.417  15.578  1.5943 -0.5617 -0.4539
 5651TIP3    H238369   1.766   6.537  15.581  2.2489 -1.0568 -0.7480
 5652TIP3   OH238370   2.934   3.156  12.884  0.5045 -0.0120 -0.0131
 5652TIP3    H138371   3.022   3.127  12.904  1.6303  2.6099 -0.7338
 5652TIP3    H238372   2.877   3.091  12.925  2.7291 -2.1057 -0.0374
 5653TIP3   OH238373   0.896   6.815   3.099  0.3375  0.1068 -0.1625
 5653TIP3    H138374   0.945   6.891   3.129  1.5455 -0.4492 -0.6754
 5653TIP3    H238375   0.961   6.760   3.055 -0.9776 -0.0567 -2.0155
 5654TIP3   OH238376   2.889   0.805  15.788  0.0546  0.1159 -0.0750
 5654TIP3    H138377   2.825   0.734  15.802 -0.1975 -0.0199 -1.7092
 5654TIP3    H238378   2.932   0.782  15.706  0.3969  1.5617 -0.3214
 5655TIP3   OH238379   1.099   0.229   1.839 -0.2753  0.6954  0.2577
 5655TIP3    H138380   1.134   0.268   1.759 -1.0311  0.0060 -0.4233
 5655TIP3    H238381   1.090   0.302   1.900  2.4644  0.9230  0.5446
 5656TIP3   OH238382   5.967   0.924   0.434 -0.5208 -0.1121 -0.0226
 5656TIP3    H138383   6.007   1.011   0.436  0.5571 -0.5899 -0.3492
 5656TIP3    H238384   5.974   0.896   0.343 -0.3806 -0.7657  0.1865
 5657TIP3   OH238385   1.863   5.195   2.939 -0.4814 -0.6427  0.2859
 5657TIP3    H138386   1.840   5.110   2.979  1.0371 -0.9888  0.4968
 5657TIP3    H238387   1.845   5.183   2.846  2.0242 -2.1204 -0.1039
 5658TIP3   OH238388   3.155   3.892   3.066 -0.1761 -0.6682  0.1338
 5658TIP3    H138389   3.094   3.819   3.076 -0.2113 -0.5715  0.6457
 5658TIP3    H238390   3.242   3.850   3.062 -0.3228 -0.8735 -1.4959
 5659TIP3   OH238391   3.380   0.110  10.960  0.0704 -0.4619  0.0205
 5659TIP3    H138392   3.359   0.145  10.873 -1.5693  1.3045  1.0754
 5659TIP3    H238393   3.330   0.029  10.966 -2.0093  0.7807  0.2901
 5660TIP3   OH238394   6.312   5.763   1.516  0.3896 -0.2296 -0.6030
 5660TIP3    H138395   6.329   5.701   1.586  0.8961 -1.1826 -1.5372
 5660TIP3    H238396   6.303   5.708   1.438 -0.9513  0.7369 -1.1609
 5661TIP3   OH238397   6.068   5.565   1.461 -0.1290 -0.2495 -0.2635
 5661TIP3    H138398   6.000   5.501   1.437  0.6966 -1.2222 -0.0823
 5661TIP3    H238399   6.043   5.595   1.548 -1.8592  1.5442 -1.2947
 5662TIP3   OH238400   3.820   4.232  14.020  0.5556 -0.8396 -0.6482
 5662TIP3    H138401   3.821   4.136  14.029  0.1796 -0.8805 -1.0604
 5662TIP3    H238402   3.809   4.264  14.110 -3.9560 -1.2672 -0.8468
 5663TIP3   OH238403   4.740   6.568   1.982  0.8650 -0.0402  0.1369
 5663TIP3    H138404   4.781   6.583   2.068  1.0493 -0.3437  0.0995
 5663TIP3    H238405   4.647   6.590   1.997  0.9385  0.1406  0.3513
 5664TIP3   OH238406   3.533   2.061  15.613  0.6127  0.0364 -0.3507
 5664TIP3    H138407   3.442   2.068  15.642  0.5761  2.2137 -0.7573
 5664TIP3    H238408   3.570   1.990  15.664 -1.4714 -1.3486 -0.6336
 5665TIP3   OH238409   3.161   3.629   3.347 -0.0314  0.9799  0.1013
 5665TIP3    H138410   3.148   3.597   3.258 -0.6987 -2.2328  1.2299
 5665TIP3    H238411   3.073   3.632   3.385  0.3089  1.5928  0.8644
 5666TIP3   OH238412   4.930   1.298   1.056  0.3318  0.3658  0.1537
 5666TIP3    H138413   4.982   1.238   1.002  1.2312 -0.2763  1.6696
 5666TIP3    H238414   4.973   1.383   1.045  0.9464  0.0950  0.3868
 5667TIP3   OH238415   4.281   3.282  13.530 -0.0151  0.1478 -0.3546
 5667TIP3    H138416   4.213   3.349  13.531  0.6011  0.7716  0.0172
 5667TIP3    H238417   4.361   3.328  13.553  0.2498 -0.8918  0.9606
 5668TIP3   OH238418   2.332   4.978  11.828 -0.0022 -0.4686 -0.0099
 5668TIP3    H138419   2.256   4.969  11.771 -0.6398  1.3427  0.4865
 5668TIP3    H238420   2.405   4.993  11.769  0.2865 -3.4698 -0.5734
 5669TIP3   OH238421   1.636   0.623   5.211 -0.1626  0.0370  0.1944
 5669TIP3    H138422   1.603   0.709   5.183 -0.7285  0.3048  1.6093
 5669TIP3    H238423   1.690   0.594   5.138 -1.8179  0.5435 -1.3219
 5670TIP3   OH238424   3.624   3.148  13.054  0.2210 -0.7322  0.1483
 5670TIP3    H138425   3.705   3.098  13.051  0.5464 -0.2091  0.0959
 5670TIP3    H238426   3.627   3.203  12.975  1.0577  1.1926  1.4530
 5671TIP3   OH238427   2.682   2.551   1.353  0.5536  0.1197  0.1071
 5671TIP3    H138428   2.595   2.523   1.322  0.5892 -0.5703  0.6161
 5671TIP3    H238429   2.668   2.577   1.444  0.8719  0.0575  0.1754
 5672TIP3   OH238430   1.443   3.280   2.457  0.1977 -0.2030  0.0933
 5672TIP3    H138431   1.496   3.202   2.472 -0.6209 -0.7043  0.4820
 5672TIP3    H238432   1.446   3.327   2.540  0.4568  0.0274 -0.0484
 5673TIP3   OH238433   1.075   1.082  11.200 -0.3987 -0.4876  0.5083
 5673TIP3    H138434   1.136   1.016  11.235 -0.7281 -1.0587  0.0204
 5673TIP3    H238435   1.035   1.121  11.277  0.9112  0.2162  0.8641
 5674TIP3   OH238436   1.130   3.981   3.465 -0.2570  0.1777 -0.0974
 5674TIP3    H138437   1.219   4.014   3.478  0.1637 -0.5420 -1.0399
 5674TIP3    H238438   1.103   4.018   3.381 -1.4334  1.5862  0.8561
 5675TIP3   OH238439   4.882   6.515  17.053  0.2269 -0.9378 -0.4285
 5675TIP3    H138440   4.838   6.445  17.101  0.5639 -1.1163 -0.3758
 5675TIP3    H238441   4.959   6.473  17.014  1.0524 -0.3566  0.5324
 5676TIP3   OH238442   6.803   6.550  12.355  0.2916  0.0732 -0.0192
 5676TIP3    H138443   6.733   6.492  12.327 -0.6515  1.3136 -0.3421
 5676TIP3    H238444   6.842   6.582  12.273  0.0870  0.7165  0.1305
 5677TIP3   OH238445   2.940   6.655  16.310  0.3457  0.4108 -0.4018
 5677TIP3    H138446   2.869   6.674  16.249 -1.6612 -2.5695  0.7468
 5677TIP3    H238447   2.992   6.588  16.266 -0.8609 -1.4352  0.8307
 5678TIP3   OH238448   2.642   3.832  15.411 -0.1722 -0.6418 -0.0703
 5678TIP3    H138449   2.551   3.825  15.381  0.2519 -0.5852 -1.4262
 5678TIP3    H238450   2.667   3.742  15.431 -0.6363 -0.6122  0.6887
 5679TIP3   OH238451   5.306   4.467  13.932 -0.2845 -0.3429 -0.6199
 5679TIP3    H138452   5.344   4.465  14.020 -1.8811  1.6516  0.1808
 5679TIP3    H238453   5.382   4.477  13.874  0.9192 -2.9503  0.3437
 5680TIP3   OH238454   1.233   2.784  13.747 -0.2793  0.3279 -0.0259
 5680TIP3    H138455   1.178   2.706  13.753  1.8248 -1.2132  0.3355
 5680TIP3    H238456   1.279   2.775  13.664 -0.9921  1.9518 -0.6520
 5681TIP3   OH238457   2.358   1.193   0.517  0.3568  1.0658  0.0985
 5681TIP3    H138458   2.452   1.199   0.531  0.2737  0.1494  1.2534
 5681TIP3    H238459   2.341   1.099   0.508 -0.4634  1.2030  0.1239
 5682TIP3   OH238460   3.273   3.981  11.987 -0.1373  0.5667  0.1309
 5682TIP3    H138461   3.274   4.075  11.969 -0.0532  0.4008 -0.7562
 5682TIP3    H238462   3.238   3.942  11.907 -2.9962  0.0443  1.5017
 5683TIP3   OH238463   4.279   6.192   1.981  0.0129  0.0394 -0.3686
 5683TIP3    H138464   4.271   6.282   2.012  3.5699  0.0011  1.0853
 5683TIP3    H238465   4.366   6.164   2.009  0.0014 -3.0765 -2.8479
 5684TIP3   OH238466   3.891   1.332   5.630 -0.4419  0.4330 -0.4650
 5684TIP3    H138467   3.870   1.248   5.589 -0.1757  0.4919 -0.7334
 5684TIP3    H238468   3.952   1.373   5.568 -1.0924  1.1150 -0.6661
 5685TIP3   OH238469   0.100   5.556   3.450 -0.2716 -0.1256 -0.2160
 5685TIP3    H138470   0.022   5.541   3.503 -0.2413 -0.2376 -0.2042
 5685TIP3    H238471   0.128   5.469   3.423 -2.1926  0.0297 -3.1568
 5686TIP3   OH238472   3.391   1.699  13.164 -0.9420  0.8768 -0.0120
 5686TIP3    H138473   3.457   1.768  13.171  2.7382 -2.4119  1.6524
 5686TIP3    H238474   3.394   1.672  13.073 -0.4271  1.1440 -0.0770
 5687TIP3   OH238475   3.260   3.713   2.425 -0.1687  0.0216  0.4457
 5687TIP3    H138476   3.196   3.692   2.493  0.2330  0.5180  0.9933
 5687TIP3    H238477   3.345   3.709   2.471  0.2632 -1.3858 -0.4382
 5688TIP3   OH238478   2.273   1.605   0.931 -0.5695  0.0884  0.1399
 5688TIP3    H138479   2.321   1.633   1.008  0.6544 -0.1912 -0.4997
 5688TIP3    H238480   2.235   1.521   0.956 -0.1234 -0.0343  0.4213
 5689TIP3   OH238481   2.419   0.718  16.129 -0.0433 -0.3342 -0.2136
 5689TIP3    H138482   2.331   0.750  16.148  0.1654  1.0520 -1.3799
 5689TIP3    H238483   2.407   0.625  16.107 -1.0667 -0.3969  0.5747
 5690TIP3   OH238484   2.483   5.411  12.757 -0.3755 -0.4000  0.1443
 5690TIP3    H138485   2.511   5.442  12.843 -1.9405 -0.6189  0.7565
 5690TIP3    H238486   2.471   5.317  12.768  0.6521 -0.6506 -0.6799
 5691TIP3   OH238487   3.460   6.738  14.602 -0.2983 -0.7598 -0.0219
 5691TIP3    H138488   3.389   6.675  14.611 -1.3193 -0.0187 -2.1698
 5691TIP3    H238489   3.442   6.783  14.519  1.0358  1.5217  0.8273
 5692TIP3   OH238490   1.293   6.748  11.720 -0.2465 -0.1868  0.1029
 5692TIP3    H138491   1.363   6.811  11.735  0.3673 -0.6245 -0.8389
 5692TIP3    H238492   1.213   6.801  11.718  0.2075  0.5013 -0.2016
 5693TIP3   OH238493   3.409   2.881   3.888 -0.0355 -0.0661  0.1049
 5693TIP3    H138494   3.417   2.850   3.979  1.0525 -0.3717 -0.0776
 5693TIP3    H238495   3.320   2.858   3.863 -0.8002  1.1742  1.5062
 5694TIP3   OH238496   4.442   6.595  13.596  0.2333  0.6199 -0.1684
 5694TIP3    H138497   4.403   6.529  13.538 -0.6143  1.9452 -1.1633
 5694TIP3    H238498   4.441   6.554  13.682  1.0463 -1.2065 -0.9700
 5695TIP3   OH238499   3.894   3.715  15.285 -0.3588  0.2794  0.0586
 5695TIP3    H138500   3.888   3.668  15.202 -0.1917  0.5841 -0.1309
 5695TIP3    H238501   3.978   3.760  15.281 -0.8424  1.2012 -0.0981
 5696TIP3   OH238502   0.534   5.450   5.220  0.2220 -0.5043  0.2450
 5696TIP3    H138503   0.452   5.441   5.170 -1.4588  1.4207  2.4322
 5696TIP3    H238504   0.561   5.540   5.205  0.4972 -0.3429  1.6338
 5697TIP3   OH238505   1.568   6.118  16.860 -0.0578  0.5274  0.5072
 5697TIP3    H138506   1.631   6.190  16.859  0.3275  0.2747  2.3808
 5697TIP3    H238507   1.588   6.069  16.940  0.0570 -2.0189 -0.9440
 5698TIP3   OH238508   3.028   2.658  15.093  1.0879  0.9532  0.0838
 5698TIP3    H138509   2.948   2.614  15.066  2.0238 -0.5337 -0.3314
 5698TIP3    H238510   3.088   2.646  15.020  2.2123  0.6572  1.0328
 5699TIP3   OH238511   2.190   6.038   4.377  0.4994  0.6007  0.2047
 5699TIP3    H138512   2.156   5.949   4.387 -0.5195  0.9159 -0.3126
 5699TIP3    H238513   2.190   6.074   4.466  1.3661 -0.0556  0.4889
 5700TIP3   OH238514   5.801   5.016  15.478  0.0105 -0.3674  0.0619
 5700TIP3    H138515   5.874   5.031  15.538 -0.3489 -4.0007  1.6191
 5700TIP3    H238516   5.842   5.009  15.392  1.2878 -0.6884  0.6712
 5701TIP3   OH238517   1.499   6.032   6.108 -0.1560 -0.1675  0.1563
 5701TIP3    H138518   1.458   5.993   6.186 -0.4751  0.2948  0.2242
 5701TIP3    H238519   1.432   6.090   6.073  0.9799  1.9163  1.2257
 5702TIP3   OH238520   5.871   4.219  14.653 -0.0282  0.7971 -0.5332
 5702TIP3    H138521   5.828   4.257  14.730  0.4270  0.7444 -0.2432
 5702TIP3    H238522   5.931   4.154  14.690  0.6108  1.1731 -0.8885
 5703TIP3   OH238523   3.759   4.838   5.353 -0.6472 -0.2288  0.0486
 5703TIP3    H138524   3.792   4.807   5.438  0.9902  1.1134 -0.0381
 5703TIP3    H238525   3.766   4.761   5.296 -3.1193 -1.5772  1.3792
 5704TIP3   OH238526   2.680   1.022  14.878  0.1023  0.3285 -0.2811
 5704TIP3    H138527   2.591   0.992  14.895  0.3377  0.8222  2.1455
 5704TIP3    H238528   2.672   1.078  14.801 -1.6380  0.1439 -0.2617
 5705TIP3   OH238529   2.929   5.631   0.129 -0.1389  0.2329 -0.6133
 5705TIP3    H138530   2.941   5.694   0.200 -1.8440  0.6456 -0.6438
 5705TIP3    H238531   2.976   5.553   0.157 -1.5909  0.0324  1.4711
 5706TIP3   OH238532   6.212   4.368   2.774  0.2239 -0.0309 -0.9640
 5706TIP3    H138533   6.139   4.376   2.711  0.7467 -0.1853 -1.6041
 5706TIP3    H238534   6.262   4.293   2.742 -0.1603 -0.8679  0.3414
 5707TIP3   OH238535   2.987   4.781   5.066 -0.2094 -0.3307 -0.0217
 5707TIP3    H138536   2.900   4.809   5.094  0.1191 -0.0940  0.8109
 5707TIP3    H238537   2.972   4.723   4.992 -1.0660 -0.1851  0.0356
 5708TIP3   OH238538   1.617   1.742   4.711  0.4398  0.2257  0.2015
 5708TIP3    H138539   1.653   1.771   4.795  0.3118  3.0645 -0.6232
 5708TIP3    H238540   1.544   1.801   4.694 -0.4352 -1.1893 -1.2790
 5709TIP3   OH238541   2.199   2.430   3.064 -1.1030  0.0784  0.3900
 5709TIP3    H138542   2.180   2.431   2.970 -2.0454  2.6549  0.5110
 5709TIP3    H238543   2.113   2.436   3.106 -0.6473 -0.0901  1.3919
 5710TIP3   OH238544   0.987   1.554  15.766 -0.1656  0.7699  0.1298
 5710TIP3    H138545   1.010   1.562  15.858 -0.7958 -1.3127  0.5039
 5710TIP3    H238546   0.896   1.583  15.761 -0.3888  0.1208  0.3236
 5711TIP3   OH238547   4.543   5.208  15.221 -0.1592  0.3144  0.5112
 5711TIP3    H138548   4.460   5.160  15.223 -1.4518  2.3162  4.6119
 5711TIP3    H238549   4.519   5.295  15.188  0.8468  0.2667 -0.4123
 5712TIP3   OH238550   4.067   3.286  15.674  0.3725  0.4110 -0.1680
 5712TIP3    H138551   4.063   3.270  15.579 -0.5992  1.9230 -0.4315
 5712TIP3    H238552   4.160   3.297  15.693  0.5082  1.3717 -1.2233
 5713TIP3   OH238553   4.077   5.457  13.834  0.7655 -0.2687  0.0427
 5713TIP3    H138554   4.101   5.444  13.926  1.7316  1.5703  0.0978
 5713TIP3    H238555   4.062   5.368  13.801  0.7613 -0.9998  1.8666
 5714TIP3   OH238556   3.974   6.019  15.456  0.2880  0.1738 -0.1061
 5714TIP3    H138557   3.908   5.967  15.411  2.3836 -2.3385 -0.4794
 5714TIP3    H238558   3.970   5.990  15.547  0.5925  0.3397 -0.0395
 5715TIP3   OH238559   0.900   2.833  12.361  0.2245 -0.2782  0.1193
 5715TIP3    H138560   0.889   2.740  12.380 -1.5268  0.0492  0.8851
 5715TIP3    H238561   0.919   2.873  12.446  1.4213  0.0324 -0.2687
 5716TIP3   OH238562   2.167   3.222  10.719 -0.1180  0.3550  0.2329
 5716TIP3    H138563   2.215   3.214  10.636  0.9501 -0.6905  0.9154
 5716TIP3    H238564   2.084   3.263  10.695 -0.2477 -0.8136 -1.5202
 5717TIP3   OH238565   5.658   1.533   6.507 -0.2789  0.3996  0.5417
 5717TIP3    H138566   5.736   1.525   6.562 -0.2565  0.6846  0.5544
 5717TIP3    H238567   5.643   1.627   6.501 -2.4746  0.3662  3.1833
 5718TIP3   OH238568   3.776   0.178  16.068  0.1339 -0.1254  0.0697
 5718TIP3    H138569   3.771   0.209  16.158  0.2233  3.6120 -0.9984
 5718TIP3    H238570   3.685   0.166  16.041  0.1379 -2.4331  0.9196
 5719TIP3   OH238571   5.672   5.872   5.462 -0.1344 -0.1412  0.5757
 5719TIP3    H138572   5.694   5.909   5.548 -0.2214  1.3866 -0.0346
 5719TIP3    H238573   5.683   5.945   5.401 -0.4513 -1.1044 -0.6677
 5720TIP3   OH238574   0.648   4.499  11.665  0.0103  0.4890 -0.3425
 5720TIP3    H138575   0.633   4.422  11.720  0.0174  1.5753  1.2496
 5720TIP3    H238576   0.742   4.501  11.652 -0.1011 -0.4729 -1.5110
 5721TIP3   OH238577   1.418   2.901   3.984  0.8369 -0.8198 -0.6060
 5721TIP3    H138578   1.407   2.877   4.076 -0.4473 -0.5036 -0.6599
 5721TIP3    H238579   1.419   2.817   3.937 -0.5338 -0.9270 -0.4865
 5722TIP3   OH238580   2.773   5.365   3.108 -0.4314 -0.0519  0.1532
 5722TIP3    H138581   2.738   5.434   3.052 -1.1959 -0.2354  0.3917
 5722TIP3    H238582   2.851   5.403   3.148 -0.1031  0.2152 -0.7208
 5723TIP3   OH238583   1.621   6.358  14.661  0.6438 -0.3430  0.0662
 5723TIP3    H138584   1.568   6.424  14.706  0.5012 -1.1978  1.1996
 5723TIP3    H238585   1.710   6.375  14.691  0.4009 -1.6337  1.6530
 5724TIP3   OH238586   0.694   2.864   6.331  0.1287 -0.4738  0.4059
 5724TIP3    H138587   0.640   2.926   6.379 -1.1788 -1.7515  0.6483
 5724TIP3    H238588   0.646   2.848   6.249  0.9768 -0.3658 -0.1236
 5725TIP3   OH238589   5.323   3.290  16.028  0.4248 -0.1249  0.5878
 5725TIP3    H138590   5.355   3.336  15.950  0.4060  0.2456  0.7952
 5725TIP3    H238591   5.362   3.338  16.101 -0.3354  0.1329  0.8352
 5726TIP3   OH238592   4.168   1.206   6.671  0.2477  0.0008  0.4623
 5726TIP3    H138593   4.230   1.256   6.724  1.4220 -0.3541 -0.5093
 5726TIP3    H238594   4.101   1.269   6.646 -0.1242  0.2506  2.0335
 5727TIP3   OH238595   6.155   5.013  13.318 -0.1087  0.3730  0.5227
 5727TIP3    H138596   6.141   5.034  13.225  2.3273 -0.3930 -0.0982
 5727TIP3    H238597   6.121   4.924  13.328  1.9075 -0.5664 -0.3609
 5728TIP3   OH238598   6.481   0.356  13.704  0.0840 -0.3737  0.5069
 5728TIP3    H138599   6.551   0.298  13.675 -0.0731  0.2203 -1.1876
 5728TIP3    H238600   6.523   0.442  13.711 -0.1379 -0.3037  1.0376
 5729TIP3   OH238601   0.553   2.157  16.705 -0.4536  0.0665 -0.1548
 5729TIP3    H138602   0.562   2.145  16.799 -1.3573 -0.3433 -0.1075
 5729TIP3    H238603   0.620   2.222  16.682  0.3342 -0.4585  0.6209
 5730TIP3   OH238604   0.908   3.523   0.589 -0.0222 -0.4889  0.0639
 5730TIP3    H138605   0.880   3.615   0.590 -0.6289 -0.6689  0.0769
 5730TIP3    H238606   0.942   3.507   0.677 -1.2496 -0.6709  0.5210
 5731TIP3   OH238607   5.009   6.139  15.837  0.1340 -0.4753 -0.7556
 5731TIP3    H138608   5.028   6.047  15.818  0.5234 -0.7586  0.8579
 5731TIP3    H238609   5.071   6.188  15.783  0.0333 -1.1478 -1.5068
 5732TIP3   OH238610   1.797   2.552  15.030 -0.3957 -0.5781  0.0507
 5732TIP3    H138611   1.776   2.495  15.105  0.6810 -0.1174  0.7271
 5732TIP3    H238612   1.719   2.608  15.021 -0.8264 -1.1084  0.3802
 5733TIP3   OH238613   4.511   5.846  11.268 -0.1713 -0.5710 -0.4093
 5733TIP3    H138614   4.537   5.754  11.258  1.3215 -0.1904 -0.2090
 5733TIP3    H238615   4.501   5.857  11.363 -1.7084 -0.8488 -0.5033
 5734TIP3   OH238616   1.524   6.035  16.127  1.0556 -0.0893 -0.3125
 5734TIP3    H138617   1.560   5.973  16.191  2.1076  1.8758  1.0863
 5734TIP3    H238618   1.431   6.039  16.150  1.1238 -0.5541  0.0888
 5735TIP3   OH238619   5.153   3.599   2.128  0.0272 -0.1303 -0.0696
 5735TIP3    H138620   5.236   3.554   2.141  0.2140  0.7867  2.4199
 5735TIP3    H238621   5.169   3.689   2.157 -1.2431  0.6884 -1.7056
 5736TIP3   OH238622   2.570   6.388   3.107  0.1581 -0.1251 -0.0631
 5736TIP3    H138623   2.628   6.400   3.182  1.1316  2.2642 -1.0891
 5736TIP3    H238624   2.620   6.421   3.033 -1.8705  0.3984 -1.2731
 5737TIP3   OH238625   1.882   2.588  12.495 -0.0496 -0.0251  0.2177
 5737TIP3    H138626   1.881   2.583  12.400 -1.6355 -0.5443  0.2328
 5737TIP3    H238627   1.864   2.680  12.515  1.0272  0.2406  0.0391
 5738TIP3   OH238628   3.778   1.378  11.924 -0.1209 -0.1317 -0.6564
 5738TIP3    H138629   3.767   1.365  11.829 -0.2421 -1.3131 -0.4927
 5738TIP3    H238630   3.812   1.295  11.956 -0.6479  0.0528  0.4283
 5739TIP3   OH238631   5.151   1.115  11.041  0.0709 -0.1248  0.0003
 5739TIP3    H138632   5.190   1.135  10.956 -1.6920 -1.9925 -1.3268
 5739TIP3    H238633   5.215   1.058  11.084  2.0592  2.6409  1.0536
 5740TIP3   OH238634   5.397   3.390   2.618 -0.3585 -0.3023 -0.0311
 5740TIP3    H138635   5.340   3.443   2.562 -0.4809 -1.2271 -0.8055
 5740TIP3    H238636   5.478   3.441   2.625 -0.3705 -0.1392 -0.9898
 5741TIP3   OH238637   0.005   1.956   3.196  0.6506 -0.0612 -0.2248
 5741TIP3    H138638   0.058   2.000   3.263 -0.5715  1.8114 -0.3969
 5741TIP3    H238639  -0.079   1.941   3.239  0.6854 -1.2162 -0.5459
 5742TIP3   OH238640   6.670   3.392   3.448 -0.0974 -0.0478 -0.0917
 5742TIP3    H138641   6.595   3.351   3.405 -0.4500 -1.3246  1.5951
 5742TIP3    H238642   6.746   3.353   3.406 -0.4233 -0.7553 -0.0463
 5743TIP3   OH238643   2.376   1.255  16.907  0.5483 -0.3248  0.4267
 5743TIP3    H138644   2.425   1.316  16.962 -1.3570  0.6222  1.1557
 5743TIP3    H238645   2.411   1.269  16.819 -0.5383  2.6901  0.3485
 5744TIP3   OH238646   4.770   6.723  14.549 -0.4509 -0.1295 -0.2806
 5744TIP3    H138647   4.863   6.724  14.525 -0.4918  1.4345 -0.4927
 5744TIP3    H238648   4.750   6.630  14.562  1.1540 -0.4987 -0.1560
 5745TIP3   OH238649   4.554   0.986  14.359 -0.6800 -0.6000 -0.1236
 5745TIP3    H138650   4.551   0.964  14.452 -3.7564 -0.0333  0.0184
 5745TIP3    H238651   4.504   0.917  14.316  0.7361 -0.8810 -1.4205
 5746TIP3   OH238652   4.102   0.130   1.726  0.4579  0.8031  0.2419
 5746TIP3    H138653   4.074   0.187   1.654 -1.5495  1.1034  1.2016
 5746TIP3    H238654   4.052   0.049   1.714  2.3828 -0.3661 -0.4004
 5747TIP3   OH238655   2.954   6.212   2.883  0.0683  0.1932 -0.0934
 5747TIP3    H138656   3.000   6.221   2.800  0.4932 -0.9596 -0.0013
 5747TIP3    H238657   3.004   6.265   2.945  1.3792 -1.1072  0.0298
 5748TIP3   OH238658   0.582   1.522   0.722 -0.3649  0.1296 -0.5670
 5748TIP3    H138659   0.492   1.519   0.756  0.0228 -0.9089  0.4484
 5748TIP3    H238660   0.578   1.468   0.643 -0.6963  0.2999 -0.6695
 5749TIP3   OH238661   1.558   1.058   4.928 -0.5171 -0.6793 -0.4864
 5749TIP3    H138662   1.618   1.086   4.859  1.5778  1.8038  2.0548
 5749TIP3    H238663   1.486   1.121   4.923  0.0218 -0.0051  0.0167
 5750TIP3   OH238664   6.821   5.765   1.120  0.6611 -0.6737 -0.6153
 5750TIP3    H138665   6.751   5.740   1.181  1.3258 -1.0324  0.0155
 5750TIP3    H238666   6.783   5.753   1.033 -0.9697  1.6732 -0.3076
 5751TIP3   OH238667   4.000   0.908   4.550  0.0020  0.3842  0.1180
 5751TIP3    H138668   4.019   0.858   4.629  0.0129  1.5381  0.8656
 5751TIP3    H238669   4.020   0.999   4.573 -0.2482  0.7808 -1.1263
 5752TIP3   OH238670   2.180   5.559   1.646  0.2132  0.1070  0.2282
 5752TIP3    H138671   2.129   5.479   1.657 -1.0367  1.0797  2.0437
 5752TIP3    H238672   2.163   5.609   1.726  2.1540  1.5334 -0.1838
 5753TIP3   OH238673   3.575   6.317   0.172 -0.1296 -0.1477  0.1462
 5753TIP3    H138674   3.511   6.247   0.171 -1.5084  1.0383 -1.6152
 5753TIP3    H238675   3.650   6.281   0.219 -1.6200 -1.9936  1.2274
 5754TIP3   OH238676   4.147   2.274   0.567  0.6515 -0.7311 -0.4474
 5754TIP3    H138677   4.065   2.320   0.547  1.1158  1.7830  2.6497
 5754TIP3    H238678   4.123   2.212   0.636  1.1051 -1.0189 -0.5482
 5755TIP3   OH238679   4.301   4.355   1.038  0.6967  0.4701 -0.2538
 5755TIP3    H138680   4.386   4.354   0.995  0.1068 -0.8149 -1.4825
 5755TIP3    H238681   4.239   4.330   0.970 -0.5379  0.3215  0.8725
 5756TIP3   OH238682   4.477   5.189   3.902 -0.8694 -0.7565 -0.0701
 5756TIP3    H138683   4.405   5.139   3.863 -0.0348 -0.7340 -1.7057
 5756TIP3    H238684   4.550   5.128   3.906 -0.1779 -0.0351 -1.0308
 5757TIP3   OH238685   4.343   1.371  11.249  0.8698 -0.3229  0.3409
 5757TIP3    H138686   4.302   1.310  11.188  1.6296 -2.2088  1.6086
 5757TIP3    H238687   4.382   1.438  11.194 -0.4636 -0.6744 -1.0890
 5758TIP3   OH238688   3.331   2.731  12.060  0.2941 -0.5556 -0.1783
 5758TIP3    H138689   3.298   2.749  11.972  0.3520 -1.6436 -0.4460
 5758TIP3    H238690   3.257   2.693  12.107  0.3829 -0.3834  0.1036
 5759TIP3   OH238691   2.661   4.973  11.997  0.3887  0.3861 -0.6891
 5759TIP3    H138692   2.619   4.908  11.941 -0.7992  0.9901 -0.5302
 5759TIP3    H238693   2.696   4.922  12.071  2.3568 -0.4735 -2.1255
 5760TIP3   OH238694   5.370   2.022   4.748  0.6706 -0.6165  0.3268
 5760TIP3    H138695   5.350   2.116   4.749  0.7896 -0.5896  0.2854
 5760TIP3    H238696   5.453   2.016   4.795  0.5314 -0.7330  0.5587
 5761TIP3   OH238697   6.472   2.385  12.352  0.5213 -0.0900 -0.1629
 5761TIP3    H138698   6.470   2.379  12.447 -1.3306 -0.2584 -0.1620
 5761TIP3    H238699   6.456   2.295  12.322  0.7169  0.0246 -0.6208
 5762TIP3   OH238700   0.115   3.898  14.972 -0.0160 -0.6095 -0.0871
 5762TIP3    H138701   0.160   3.938  15.046 -0.9641 -1.5627  1.0487
 5762TIP3    H238702   0.126   3.960  14.900  1.9406 -0.2136  0.5122
 5763TIP3   OH238703   2.226   2.156   1.771 -0.1841 -0.0996  0.2711
 5763TIP3    H138704   2.308   2.120   1.737 -0.8648 -1.8771  0.3774
 5763TIP3    H238705   2.181   2.081   1.810 -1.4965  0.9931  0.9719
 5764TIP3   OH238706   4.985   3.275  12.847 -0.4572 -0.4245  0.1544
 5764TIP3    H138707   5.060   3.240  12.895 -1.6499 -2.3183  0.7809
 5764TIP3    H238708   4.999   3.247  12.757 -0.1021 -0.2084  0.1401
 5765TIP3   OH238709   1.176   3.961  16.152 -0.8064 -0.5529 -0.4824
 5765TIP3    H138710   1.160   3.919  16.236 -2.1084  0.5775 -0.1336
 5765TIP3    H238711   1.125   3.909  16.089 -2.4423  0.4284 -0.0475
 5766TIP3   OH238712   5.615   1.680   3.071  0.5664 -0.3555  0.3353
 5766TIP3    H138713   5.546   1.697   3.136 -0.0870 -0.8958 -0.1990
 5766TIP3    H238714   5.579   1.716   2.989  0.8667 -0.7563  0.0267
 5767TIP3   OH238715   5.649   6.712   4.751 -0.9420 -0.0406  0.0218
 5767TIP3    H138716   5.612   6.797   4.772  1.1590  1.0500 -0.3505
 5767TIP3    H238717   5.650   6.709   4.655  0.3300  0.1916  0.0073
 5768TIP3   OH238718   1.737   3.233   3.747 -0.3382 -0.0649  0.2680
 5768TIP3    H138719   1.772   3.159   3.698  0.0266  0.0653  0.3287
 5768TIP3    H238720   1.643   3.217   3.750 -0.3732 -0.0332 -0.5423
 5769TIP3   OH238721   6.340   0.216  16.308  0.4710 -0.0199  0.0751
 5769TIP3    H138722   6.387   0.134  16.323 -1.0593 -0.5098  2.6428
 5769TIP3    H238723   6.387   0.281  16.360 -0.1552  0.0351  0.5845
 5770TIP3   OH238724   0.488   1.219   2.062 -0.0289 -0.1141 -0.3953
 5770TIP3    H138725   0.449   1.167   1.991  1.2328 -0.1040 -1.1293
 5770TIP3    H238726   0.565   1.260   2.022  2.8949 -2.9578  1.7984
 5771TIP3   OH238727   4.115   6.219  12.919  0.9694  0.6121 -1.1954
 5771TIP3    H138728   4.127   6.304  12.962 -1.5027  0.7924 -0.7174
 5771TIP3    H238729   4.082   6.241  12.831  1.8599  0.1512 -1.6608
 5772TIP3   OH238730   4.098   2.484   5.669 -0.6534 -0.5825 -0.0689
 5772TIP3    H138731   4.123   2.464   5.760 -1.6963  0.5053  0.4745
 5772TIP3    H238732   4.173   2.454   5.617 -0.0948 -1.3510  1.1314
 5773TIP3   OH238733   3.749   3.227  12.183  0.6668 -0.2734 -0.4796
 5773TIP3    H138734   3.655   3.211  12.185  0.6195  0.0386  1.6536
 5773TIP3    H238735   3.761   3.296  12.118 -1.0349  2.2527  1.7188
 5774TIP3   OH238736   2.965   0.097  13.522  0.0594 -0.3559  0.0816
 5774TIP3    H138737   2.967   0.111  13.428 -0.1212  0.7732  0.2264
 5774TIP3    H238738   2.875   0.119  13.547  0.4403  0.5923  0.6755
 5775TIP3   OH238739   0.166   3.301   3.633  0.3069  0.2290  0.4585
 5775TIP3    H138740   0.253   3.264   3.649  1.0562  1.5457 -0.3955
 5775TIP3    H238741   0.133   3.321   3.721  0.9858 -0.0271  0.7865
 5776TIP3   OH238742   1.657   3.350  14.741 -0.0894 -0.2240  0.1017
 5776TIP3    H138743   1.594   3.290  14.700 -0.6084 -0.6200  1.4037
 5776TIP3    H238744   1.612   3.379  14.821  0.1812  1.8611 -0.4536
 5777TIP3   OH238745   0.815   4.713   5.213 -0.6329  0.1928 -0.0120
 5777TIP3    H138746   0.796   4.627   5.250  1.0348 -0.5153 -0.7066
 5777TIP3    H238747   0.898   4.739   5.254 -2.1437  2.5115  1.8772
 5778TIP3   OH238748   4.699   2.577  14.655  0.2976 -0.4553 -0.3028
 5778TIP3    H138749   4.769   2.562  14.719 -0.2761 -0.6980  0.2859
 5778TIP3    H238750   4.704   2.502  14.595  1.1615  0.0333 -0.8527
 5779TIP3   OH238751   4.498   3.270   2.069 -0.1922 -0.3686  0.2665
 5779TIP3    H138752   4.534   3.191   2.030  0.3962  0.7468 -1.6240
 5779TIP3    H238753   4.477   3.246   2.159  0.8460 -2.3806  0.0230
 5780TIP3   OH238754   2.306   4.893  16.272 -0.0127  0.0069  0.0854
 5780TIP3    H138755   2.215   4.875  16.296  0.1199  0.7042  1.1941
 5780TIP3    H238756   2.355   4.882  16.354  1.0278 -1.0486 -0.6337
 5781TIP3   OH238757   5.018   1.624  15.917 -0.2819 -0.3598  0.1214
 5781TIP3    H138758   5.031   1.532  15.936  1.8675 -0.3208 -0.9079
 5781TIP3    H238759   4.925   1.631  15.896 -0.2953 -2.4600 -0.7374
 5782TIP3   OH238760   1.909   1.040   1.156  0.0477  0.1337  0.0603
 5782TIP3    H138761   1.907   0.947   1.180  0.1483  0.1699  0.2092
 5782TIP3    H238762   1.832   1.078   1.199  1.6509  0.7503  2.6082
 5783TIP3   OH238763   6.571   3.173   2.037  0.1494  0.0645 -0.4314
 5783TIP3    H138764   6.633   3.202   2.104  0.0749  0.5493 -0.5703
 5783TIP3    H238765   6.512   3.248   2.024 -0.5400 -0.4313 -0.2180
 5784TIP3   OH238766   3.510   2.484   5.422 -0.5540 -0.5481  0.0908
 5784TIP3    H138767   3.465   2.432   5.355  0.6091  0.8497 -1.8928
 5784TIP3    H238768   3.440   2.518   5.477 -1.7072 -0.7023 -1.2081
 5785TIP3   OH238769   3.036   2.790   0.777 -0.1212 -0.0217 -0.0044
 5785TIP3    H138770   2.961   2.789   0.718 -0.1610  0.9480  0.0156
 5785TIP3    H238771   3.106   2.749   0.727 -0.2505  0.4730 -0.6091
 5786TIP3   OH238772   5.180   1.424  11.219 -0.4559  0.0887 -0.0843
 5786TIP3    H138773   5.162   1.474  11.140 -0.6850  2.5349  1.4132
 5786TIP3    H238774   5.106   1.363  11.226 -0.4267 -0.1778 -1.7210
 5787TIP3   OH238775   1.469   4.333  16.318  0.0780 -0.4517 -0.3808
 5787TIP3    H138776   1.408   4.314  16.248 -1.1130  0.5921  0.3344
 5787TIP3    H238777   1.465   4.428  16.329  2.7631 -0.1807 -1.1200
 5788TIP3   OH238778   6.201   5.802   2.193 -0.2156  0.4109  0.1645
 5788TIP3    H138779   6.248   5.773   2.271 -3.0137 -1.0727  1.4517
 5788TIP3    H238780   6.182   5.721   2.145 -0.7119  1.0367 -0.7297
 5789TIP3   OH238781   3.038   5.130  16.529  0.1371 -0.3243  0.2972
 5789TIP3    H138782   3.011   5.183  16.604 -1.4907  0.0321 -0.4932
 5789TIP3    H238783   3.082   5.055  16.568 -1.7091 -0.7523  1.7318
 5790TIP3   OH238784   4.483   1.488  15.462 -0.7779 -0.5068  0.6356
 5790TIP3    H138785   4.486   1.455  15.552  1.3897 -1.9472  0.1067
 5790TIP3    H238786   4.467   1.411  15.408 -0.8317  0.1438 -0.3150
 5791TIP3   OH238787   4.717   6.058   4.801  0.6407 -0.3992 -0.2455
 5791TIP3    H138788   4.694   5.999   4.730  1.1730  0.1814 -0.9175
 5791TIP3    H238789   4.655   6.130   4.794 -0.1712 -0.9693  0.7276
 5792TIP3   OH238790   5.944   5.121   4.844 -0.9988  0.0894  0.2173
 5792TIP3    H138791   5.938   5.026   4.853  0.8138 -0.0951 -0.0427
 5792TIP3    H238792   5.891   5.142   4.767 -0.2573 -0.9110 -0.5940
 5793TIP3   OH238793   1.057   4.375  16.714  0.5842 -0.6434  0.1073
 5793TIP3    H138794   1.027   4.292  16.676 -0.6661 -0.3528  0.4327
 5793TIP3    H238795   0.990   4.398  16.778 -0.5890  1.9961 -1.8932
 5794TIP3   OH238796   6.711   1.667   4.034 -0.0606  0.0562  0.2132
 5794TIP3    H138797   6.682   1.583   4.068 -0.0440  0.5862  1.6121
 5794TIP3    H238798   6.630   1.714   4.014 -0.0670 -0.3824 -0.8508
 5795TIP3   OH238799   0.831   2.735   4.114  0.2808  0.0468  0.2628
 5795TIP3    H138800   0.820   2.687   4.197  0.3149  1.9805  1.4519
 5795TIP3    H238801   0.891   2.806   4.136 -0.4429  1.1466 -1.1956
 5796TIP3   OH238802   2.488   1.241  15.595  0.4134 -0.1232 -0.2539
 5796TIP3    H138803   2.568   1.278  15.632  0.1402  1.0756 -0.8381
 5796TIP3    H238804   2.519   1.175  15.532  0.8818 -1.9763  1.7936
 5797TIP3   OH238805   0.966   5.431  12.937  0.3238 -0.4818  0.4533
 5797TIP3    H138806   1.006   5.347  12.957 -0.5440 -1.0221 -0.0279
 5797TIP3    H238807   1.001   5.491  13.003  0.3592 -1.3887  1.2721
 5798TIP3   OH238808   6.306   6.743  12.798  0.0584  0.0224 -0.2005
 5798TIP3    H138809   6.284   6.816  12.855 -0.8829  0.5300 -1.1875
 5798TIP3    H238810   6.234   6.681  12.808 -1.0916  0.9224 -2.1352
 5799TIP3   OH238811   1.636   6.526  10.689 -0.2081 -0.9661  0.0746
 5799TIP3    H138812   1.572   6.470  10.732 -0.8129 -0.8781 -0.6909
 5799TIP3    H238813   1.586   6.574  10.623  0.1207  1.0921  1.2526
 5800TIP3   OH238814   1.052   2.534  11.402  0.9734 -0.1580 -0.0635
 5800TIP3    H138815   1.019   2.615  11.440 -0.5552 -0.4045 -0.8058
 5800TIP3    H238816   1.072   2.555  11.311  1.8378 -0.3061  0.0762
 5801TIP3   OH238817   1.581   2.680  17.003 -0.7370 -0.4245 -0.5803
 5801TIP3    H138818   1.523   2.669  16.927 -1.1045 -1.6868 -0.1475
 5801TIP3    H238819   1.539   2.628  17.072  0.1668 -0.1844  0.1618
 5802TIP3   OH238820   2.549   5.985  12.773 -0.1743  0.0468 -0.6622
 5802TIP3    H138821   2.468   5.939  12.795  0.5612 -2.1748 -2.2010
 5802TIP3    H238822   2.543   5.999  12.678  0.8799  0.6301 -0.6551
 5803TIP3   OH238823   6.204   3.545   1.393 -0.0111  0.3425  0.5047
 5803TIP3    H138824   6.237   3.476   1.451  0.2852  1.4463  1.6773
 5803TIP3    H238825   6.144   3.595   1.448 -0.2264  1.0269 -0.3431
 5804TIP3   OH238826   0.730   3.073  12.598 -0.0838 -0.1685  0.0397
 5804TIP3    H138827   0.809   3.019  12.605 -0.3709 -0.8432 -1.4968
 5804TIP3    H238828   0.673   3.041  12.668 -0.4282 -2.2140 -1.0977
 5805TIP3   OH238829   1.428   3.049   5.160 -0.0462 -0.3850  0.1879
 5805TIP3    H138830   1.482   2.973   5.180  0.1453 -0.7780 -1.6285
 5805TIP3    H238831   1.348   3.035   5.211  0.0905 -1.6840  0.0860
 5806TIP3   OH238832   2.827   5.750  11.735  0.4395 -0.0510 -0.0609
 5806TIP3    H138833   2.733   5.744  11.717  0.2520  0.6625  0.6170
 5806TIP3    H238834   2.866   5.677  11.686 -0.4401 -0.2266 -0.5139
 5807TIP3   OH238835   2.755   2.697   3.476  0.4629  0.1073  0.2988
 5807TIP3    H138836   2.677   2.710   3.530 -0.4571 -0.3787 -0.8725
 5807TIP3    H238837   2.760   2.774   3.420 -0.2359 -0.6748 -0.8798
 5808TIP3   OH238838   4.651   2.021   3.701 -0.3716 -1.1155  0.4858
 5808TIP3    H138839   4.625   2.106   3.739  2.6270 -0.0829  0.5274
 5808TIP3    H238840   4.673   2.041   3.610  3.0799 -1.0951  1.1911
 5809TIP3   OH238841   2.059   2.978  12.265  0.0259 -0.1606  0.1869
 5809TIP3    H138842   2.126   2.922  12.226 -0.1555 -0.1962 -0.0801
 5809TIP3    H238843   2.001   3.001  12.191 -0.4066 -0.3464  0.4656
 5810TIP3   OH238844   6.372   0.852  12.557 -0.4393 -0.1971  0.9889
 5810TIP3    H138845   6.364   0.944  12.534  0.6654  0.0651  1.6075
 5810TIP3    H238846   6.458   0.826  12.524 -0.7566 -1.0266  0.7814
 5811TIP3   OH238847   6.275   1.894   1.863 -0.0449 -0.8899  0.6833
 5811TIP3    H138848   6.217   1.939   1.801  0.9579 -0.8544 -0.2652
 5811TIP3    H238849   6.237   1.806   1.871 -0.1341 -0.9298 -0.0793
 5812TIP3   OH238850   6.190   0.640  11.866 -0.5121 -0.1775 -0.2166
 5812TIP3    H138851   6.163   0.667  11.954  1.4490 -1.4390  0.8599
 5812TIP3    H238852   6.121   0.673  11.808 -1.5546  1.2173  1.7091
 5813TIP3   OH238853   5.221   5.065   0.661 -0.0265  0.1681 -0.4161
 5813TIP3    H138854   5.278   5.030   0.730  0.2215 -2.1964 -1.7077
 5813TIP3    H238855   5.165   5.128   0.706 -0.9223 -2.3312  2.3665
 5814TIP3   OH238856   3.071   3.302   6.312 -0.0707 -1.0238  0.2425
 5814TIP3    H138857   3.080   3.207   6.303 -1.7360 -1.0166 -2.6753
 5814TIP3    H238858   2.977   3.318   6.309  0.1651  0.7309  0.8851
 5815TIP3   OH238859   6.509   4.403   5.316 -0.7250 -0.1793 -0.5835
 5815TIP3    H138860   6.515   4.397   5.221 -0.8083 -1.7369 -0.5130
 5815TIP3    H238861   6.441   4.469   5.332 -0.4374  0.3819 -1.5825
 5816TIP3   OH238862   2.706   5.549  17.076  0.2463 -0.1662 -0.1051
 5816TIP3    H138863   2.638   5.547  17.143  1.4722  0.6084  1.2408
 5816TIP3    H238864   2.787   5.563  17.125  1.0432  1.9278 -1.8439
 5817TIP3   OH238865   5.567   5.632   2.423 -0.6026  0.3056 -0.0214
 5817TIP3    H138866   5.576   5.723   2.451 -2.8514  0.7617 -0.5666
 5817TIP3    H238867   5.546   5.584   2.502  0.0978  0.3191  0.1838
 5818TIP3   OH238868   5.168   5.329   0.467 -0.4585  0.3671 -0.5831
 5818TIP3    H138869   5.185   5.259   0.403 -2.4535  0.3420 -1.1569
 5818TIP3    H238870   5.082   5.308   0.503  0.0547  1.1215  1.1758
 5819TIP3   OH238871   5.934   3.516   2.277  0.5369  0.0718 -0.2740
 5819TIP3    H138872   5.939   3.498   2.183 -0.3017 -0.5498 -0.2098
 5819TIP3    H238873   6.022   3.543   2.301  0.4273  1.7245 -1.5316
 5820TIP3   OH238874   1.439   4.153  14.288 -0.1696  0.0546  0.4757
 5820TIP3    H138875   1.397   4.223  14.238  1.2609 -0.3263 -1.4107
 5820TIP3    H238876   1.498   4.198  14.348 -0.3962  0.5052  0.3658
 5821TIP3   OH238877   4.853   6.172  10.771 -0.7260  0.1383  0.0941
 5821TIP3    H138878   4.806   6.138  10.695  0.9497  2.5431 -2.1919
 5821TIP3    H238879   4.905   6.098  10.802 -1.1394 -0.7991 -1.3378
 5822TIP3   OH238880   1.009   6.445  15.630  0.0257  0.5069  0.4782
 5822TIP3    H138881   0.916   6.441  15.609  0.3882  2.4009 -1.9410
 5822TIP3    H238882   1.048   6.373  15.580 -0.1281 -0.5875  1.8624
 5823TIP3   OH238883   6.561   2.257  12.112 -0.1918 -0.0257 -0.0270
 5823TIP3    H138884   6.494   2.325  12.110  0.3853  0.5332 -0.8069
 5823TIP3    H238885   6.643   2.304  12.122  0.1261 -0.6843  0.5884
 5824TIP3   OH238886   3.888   2.489  16.335  0.4765  0.6635 -0.5798
 5824TIP3    H138887   3.836   2.423  16.288  1.6042 -0.2958 -0.5060
 5824TIP3    H238888   3.973   2.488  16.292  1.3147  0.2763  1.0030
 5825TIP3   OH238889   1.856   0.230  13.329 -0.5566 -0.0742 -0.2447
 5825TIP3    H138890   1.925   0.279  13.375  0.0252 -0.1970 -0.9799
 5825TIP3    H238891   1.813   0.295  13.273  0.4383 -0.4566 -1.4790
 5826TIP3   OH238892   1.695   1.710   0.499  0.3094 -0.1976 -0.2319
 5826TIP3    H138893   1.640   1.785   0.521  0.4115 -0.3476  0.5954
 5826TIP3    H238894   1.776   1.749   0.466  1.5002  0.2121  2.8211
 5827TIP3   OH238895   2.052   3.945  15.700  0.3280  0.1282 -0.5037
 5827TIP3    H138896   2.029   3.853  15.693  0.8082  0.0904 -1.8049
 5827TIP3    H238897   1.979   3.985  15.748  0.6988 -1.1238  1.2085
 5828TIP3   OH238898   0.251   5.619  13.328  0.3067  0.0973  0.0112
 5828TIP3    H138899   0.323   5.584  13.381  0.8135  0.7850 -0.2181
 5828TIP3    H238900   0.249   5.563  13.251  1.1147  0.5626 -0.3553
 5829TIP3   OH238901   1.235   3.525   5.552 -0.0438 -0.0391  0.3305
 5829TIP3    H138902   1.217   3.436   5.584 -0.3483  0.2536  0.9748
 5829TIP3    H238903   1.182   3.532   5.472  0.8521 -0.8268 -0.3662
 5830TIP3   OH238904   2.550   5.420  15.216  0.6392  0.5331  0.0220
 5830TIP3    H138905   2.485   5.369  15.264  0.9155  0.1548 -0.0013
 5830TIP3    H238906   2.597   5.468  15.284  1.2426 -0.2463  0.1761
 5831TIP3   OH238907   1.057   6.621  14.581 -0.3636 -0.6850  0.0891
 5831TIP3    H138908   1.085   6.664  14.662  0.8098  1.2102 -1.2258
 5831TIP3    H238909   1.125   6.556  14.563  1.9178  1.9220 -1.5709
 5832TIP3   OH238910   5.490   0.731  12.441  0.2183  0.1595 -0.3458
 5832TIP3    H138911   5.562   0.689  12.393  2.2541  2.6114  0.2892
 5832TIP3    H238912   5.473   0.812  12.392 -0.8564  0.4786  0.5215
 5833TIP3   OH238913   6.348   2.403  14.377 -0.1765  0.4351 -0.1730
 5833TIP3    H138914   6.313   2.327  14.422  0.7971 -0.1361 -0.3438
 5833TIP3    H238915   6.355   2.470  14.445 -0.2334  0.0974  0.1720
 5834TIP3   OH238916   6.220   4.393   5.397  0.2128  0.3205  0.3485
 5834TIP3    H138917   6.130   4.417   5.374  0.5351  0.6643 -0.5995
 5834TIP3    H238918   6.262   4.476   5.420  0.1445  0.0906  1.3725
 5835TIP3   OH238919   6.086   3.032  13.693 -0.3248  0.4523  0.5000
 5835TIP3    H138920   6.123   3.117  13.715  0.2245 -0.1835  2.2190
 5835TIP3    H238921   6.104   2.978  13.770 -5.8430  0.3559  2.0916
 5836TIP3   OH238922   6.120   4.935   4.579  0.1805  0.0743 -0.2750
 5836TIP3    H138923   6.052   5.002   4.585  1.1812  1.2115 -1.1786
 5836TIP3    H238924   6.160   4.935   4.666 -0.8018 -0.4458  0.1940
 5837TIP3   OH238925   3.310   5.887   2.684  0.5151  0.0257  0.1141
 5837TIP3    H138926   3.370   5.933   2.743  1.2295 -0.2334 -0.3939
 5837TIP3    H238927   3.353   5.890   2.599 -0.5035  0.3773 -0.3989
 5838TIP3   OH238928   4.122   6.304   3.907  0.6305  0.4017  0.8656
 5838TIP3    H138929   4.118   6.208   3.906  1.9879  0.3181  1.5197
 5838TIP3    H238930   4.212   6.325   3.931  0.0157  1.8249  2.1924
 5839TIP3   OH238931   5.151   2.047   0.117  0.0782 -0.2247 -0.1431
 5839TIP3    H138932   5.096   2.034   0.040  0.7729  3.4890 -1.5024
 5839TIP3    H238933   5.240   2.033   0.086  0.2919  0.2677  0.2190
 5840TIP3   OH238934   3.215   0.364   1.562  0.4741 -0.1162  0.6735
 5840TIP3    H138935   3.149   0.298   1.542  2.2389 -2.3912  1.9053
 5840TIP3    H238936   3.165   0.438   1.598 -1.5858 -0.6030 -0.9800
 5841TIP3   OH238937   5.609   5.207  15.404 -0.1593  0.3611  0.4527
 5841TIP3    H138938   5.667   5.131  15.411  0.0562  0.3311 -1.2494
 5841TIP3    H238939   5.521   5.170  15.410 -0.0360  0.1289  0.8459
 5842TIP3   OH238940   5.424   5.477  13.334  0.1474  0.0420 -0.0055
 5842TIP3    H138941   5.340   5.431  13.328 -0.3827  0.9328  0.4360
 5842TIP3    H238942   5.458   5.455  13.420 -0.2022  0.6144  0.2872
 5843TIP3   OH238943   0.832   1.228   3.270  0.9277  0.1898  0.0286
 5843TIP3    H138944   0.747   1.248   3.231 -0.0426 -0.8385  1.5283
 5843TIP3    H238945   0.811   1.186   3.353  2.8814 -1.7858 -0.3876
 5844TIP3   OH238946   3.377   0.505   0.288  0.4647  0.1875  0.1448
 5844TIP3    H138947   3.417   0.533   0.370  2.4016 -2.5663  0.3121
 5844TIP3    H238948   3.302   0.452   0.314 -0.1601  1.0094  0.0364
 5845TIP3   OH238949   3.526   6.117  12.160  0.2296 -0.3113 -0.0170
 5845TIP3    H138950   3.469   6.040  12.164  0.6715 -0.6263  0.2513
 5845TIP3    H238951   3.477   6.185  12.206 -0.2238 -0.3867 -0.3703
 5846TIP3   OH238952   2.100   0.572  15.748  0.4479  0.2075  0.1596
 5846TIP3    H138953   2.033   0.571  15.816  0.4126  1.3737  0.1670
 5846TIP3    H238954   2.152   0.494  15.764 -0.8851 -0.7172  0.1629
 5847TIP3   OH238955   3.295   3.968  14.316 -0.7251  0.6446 -0.3904
 5847TIP3    H138956   3.364   4.000  14.375  1.5643 -1.8103 -1.5092
 5847TIP3    H238957   3.265   4.046  14.270  0.6948  1.9300  0.7431
 5848TIP3   OH238958   6.431   5.008  15.345 -0.3204 -0.0951 -0.0413
 5848TIP3    H138959   6.476   4.980  15.266 -0.6326  0.4137 -0.4058
 5848TIP3    H238960   6.480   4.967  15.416 -1.0331 -1.9230 -0.5554
 5849TIP3   OH238961   3.753   2.992   0.629 -0.3000 -0.1158 -0.5835
 5849TIP3    H138962   3.750   2.937   0.708 -0.1059  0.8904  0.1432
 5849TIP3    H238963   3.811   2.944   0.569  1.1357  0.0312  0.6285
 5850TIP3   OH238964   1.894   0.651  15.934  0.4179  0.0698  0.2708
 5850TIP3    H138965   1.819   0.643  15.993 -0.1096 -0.4437 -0.4534
 5850TIP3    H238966   1.899   0.745  15.914 -0.0147  0.1090  0.3472
 5851TIP3   OH238967   1.683   6.446  13.809 -0.2359  0.1749 -0.1048
 5851TIP3    H138968   1.717   6.511  13.871  0.7799 -0.7860  0.3815
 5851TIP3    H238969   1.759   6.391  13.789 -0.5430  0.4399 -2.2020
 5852TIP3   OH238970   0.106   4.337   2.527  0.2154 -0.1122  0.2019
 5852TIP3    H138971   0.079   4.354   2.437  0.1109 -0.9261  0.0730
 5852TIP3    H238972   0.197   4.311   2.521  0.2024 -0.1893  0.3322
 5853TIP3   OH238973   6.574   5.949  16.339 -0.4067 -0.2914  0.0850
 5853TIP3    H138974   6.584   6.016  16.271 -0.7637 -0.2285  0.0930
 5853TIP3    H238975   6.603   5.992  16.419  0.1812 -0.4208 -0.0535
 5854TIP3   OH238976   3.351   4.073  14.861 -0.0117 -0.1810  0.4701
 5854TIP3    H138977   3.400   4.065  14.779  0.0337 -0.0488  0.4823
 5854TIP3    H238978   3.324   4.165  14.864  2.4321  0.5918  1.9734
 5855TIP3   OH238979   6.327   1.444   3.935 -0.3175  0.2106  0.1026
 5855TIP3    H138980   6.263   1.515   3.934 -0.8258 -0.1410  2.0961
 5855TIP3    H238981   6.311   1.400   4.019  3.0979  0.6356  1.1042
 5856TIP3   OH238982   3.939   5.818  13.176 -0.4764 -0.0638  0.2673
 5856TIP3    H138983   3.890   5.843  13.254 -2.3770  0.0336 -0.8682
 5856TIP3    H238984   3.979   5.900  13.146 -1.9390  0.5059 -0.2659
 5857TIP3   OH238985   4.305   2.135  11.446  0.5019  0.1478  0.2566
 5857TIP3    H138986   4.236   2.165  11.386 -2.7082 -0.0469  3.5129
 5857TIP3    H238987   4.348   2.063  11.399 -2.3158 -0.5136 -1.5752
 5858TIP3   OH238988   6.206   5.052  10.525 -0.2013 -0.0291 -0.0951
 5858TIP3    H138989   6.169   4.971  10.490 -0.8412 -0.0654  0.6243
 5858TIP3    H238990   6.288   5.025  10.566 -0.7732 -0.4665  0.8028
 5859TIP3   OH238991   0.790   2.102   2.526 -0.1586  0.2277  0.1127
 5859TIP3    H138992   0.718   2.106   2.589  0.1932  0.0098  0.5287
 5859TIP3    H238993   0.855   2.045   2.567  0.3726  0.6470 -0.1374
 5860TIP3   OH238994   3.694   3.581  15.485  0.1762 -0.0634 -0.6994
 5860TIP3    H138995   3.621   3.608  15.541 -0.7418 -1.4383 -1.1820
 5860TIP3    H238996   3.654   3.560  15.401  0.9002 -2.0394 -0.6071
 5861TIP3   OH238997   0.458   2.575  16.140 -0.1522  0.1073  0.4547
 5861TIP3    H138998   0.452   2.669  16.156  0.3408 -0.0392  1.5991
 5861TIP3    H238999   0.393   2.536  16.199 -1.7380 -0.1758 -1.3905
 5862TIP3   OH239000   0.259   6.121  13.552  0.5215 -0.6663  0.0613
 5862TIP3    H139001   0.334   6.084  13.599  1.3320 -0.2577 -0.8806
 5862TIP3    H239002   0.277   6.215  13.548 -0.2591 -0.5026  0.1976
 5863TIP3   OH239003   1.428   2.623   2.578 -0.4486  0.5201  0.0715
 5863TIP3    H139004   1.451   2.641   2.486 -0.5592 -0.8870 -0.2536
 5863TIP3    H239005   1.341   2.661   2.588 -0.7184  0.1158 -0.6204
 5864TIP3   OH239006   5.121   5.252  11.503  0.1110 -0.2359 -0.3902
 5864TIP3    H139007   5.066   5.324  11.474 -1.2509 -0.2863  1.8216
 5864TIP3    H239008   5.151   5.279  11.590 -1.6716 -2.8572  1.1791
 5865TIP3   OH239009   4.638   2.901  15.834 -0.2656  0.2976  0.1934
 5865TIP3    H139010   4.684   2.835  15.782 -1.4084  0.3696 -0.9579
 5865TIP3    H239011   4.667   2.985  15.798 -1.1783  0.3444 -0.4683
 5866TIP3   OH239012   3.421   4.201  11.349 -0.2235 -0.8163 -0.1925
 5866TIP3    H139013   3.437   4.212  11.442  1.4031 -0.5450 -0.4872
 5866TIP3    H239014   3.474   4.269  11.307  0.7849 -2.3082 -1.4292
 5867TIP3   OH239015   0.265   0.507   2.310 -0.1600  0.3622  0.0696
 5867TIP3    H139016   0.350   0.550   2.315  0.4968 -0.6465 -1.6260
 5867TIP3    H239017   0.208   0.571   2.268 -0.6703  1.5743  2.4538
 5868TIP3   OH239018   0.128   3.775   0.483 -0.0984  0.4923  0.0490
 5868TIP3    H139019   0.213   3.738   0.509 -0.4151  0.0844  0.5421
 5868TIP3    H239020   0.144   3.815   0.398  0.2405 -0.9143 -0.5834
 5869TIP3   OH239021   4.489   6.014   2.712  0.3982 -0.2323  0.3015
 5869TIP3    H139022   4.489   5.927   2.751  0.2554 -0.7322 -0.7608
 5869TIP3    H239023   4.524   6.000   2.623  2.6679  1.1733  0.8902
 5870TIP3   OH239024   2.725   4.753  11.196 -0.4272  0.5256 -0.0172
 5870TIP3    H139025   2.767   4.694  11.259 -2.6289  0.9905  2.0560
 5870TIP3    H239026   2.732   4.839  11.237  0.5150  1.3679 -1.8104
 5871TIP3   OH239027   5.155   5.463   4.693  0.0541 -0.6444 -0.1973
 5871TIP3    H139028   5.208   5.415   4.630  0.3366 -1.0547  0.3462
 5871TIP3    H239029   5.219   5.499   4.755 -0.3886 -2.7989  1.6290
 5872TIP3   OH239030   0.315   3.596   2.740  0.0459 -0.3396 -0.3716
 5872TIP3    H139031   0.384   3.586   2.674  0.5080 -0.8892  0.1816
 5872TIP3    H239032   0.278   3.682   2.722  1.5192  0.3963 -0.1025
 5873TIP3   OH239033   4.910   5.125  11.020 -0.1257  0.2551  0.0470
 5873TIP3    H139034   4.975   5.156  11.083  1.2235 -1.5278 -0.3809
 5873TIP3    H239035   4.958   5.116  10.938 -1.8109  2.3479 -1.2592
 5874TIP3   OH239036   5.755   5.618   0.266 -0.3074  0.2160  0.1683
 5874TIP3    H139037   5.732   5.664   0.347  0.4036  1.0045 -0.0579
 5874TIP3    H239038   5.682   5.636   0.207  0.1447  1.4288 -0.0520
 5875TIP3   OH239039   6.341   4.015   4.398 -0.1193  0.1184 -0.0937
 5875TIP3    H139040   6.268   4.056   4.352 -0.5775 -1.4246 -0.8071
 5875TIP3    H239041   6.383   3.959   4.333  1.9692  1.2345  0.1936
 5876TIP3   OH239042   2.903   1.495   4.095 -0.4412  0.1755 -0.0488
 5876TIP3    H139043   2.997   1.504   4.105 -0.3962  1.9434 -1.5703
 5876TIP3    H239044   2.867   1.525   4.179  0.3016  0.5372  0.1507
 5877TIP3   OH239045   1.295   5.678   3.650  0.4583 -0.2950  0.1977
 5877TIP3    H139046   1.245   5.693   3.731  0.9068  1.1408  0.2407
 5877TIP3    H239047   1.233   5.636   3.591 -0.2054 -0.3704  0.9247
 5878TIP3   OH239048   6.766   3.597  13.198  0.4156 -0.1379  0.6214
 5878TIP3    H139049   6.793   3.653  13.271 -0.2205  0.9442  0.0637
 5878TIP3    H239050   6.810   3.634  13.122  3.9136 -3.3189  0.8167
 5879TIP3   OH239051   5.017   0.042   4.868  0.6315 -0.6971 -0.1416
 5879TIP3    H139052   4.967  -0.010   4.930  0.1978 -1.1396 -0.8523
 5879TIP3    H239053   5.102  -0.001   4.863  0.5858 -0.8007 -0.0303
 5880TIP3   OH239054   1.325   3.800  14.941 -0.1468 -0.2338 -0.1371
 5880TIP3    H139055   1.263   3.792  14.868 -1.3563 -0.1136  0.8471
 5880TIP3    H239056   1.319   3.891  14.968 -1.0492 -0.6810  1.2448
 5881TIP3   OH239057   6.788   3.835   4.371 -0.7713 -0.7255 -0.1432
 5881TIP3    H139058   6.754   3.757   4.415 -1.6843 -0.3941 -0.2488
 5881TIP3    H239059   6.856   3.867   4.430 -1.3943 -0.7692  0.6238
 5882TIP3   OH239060   0.793   0.131  13.147  0.0148 -0.0977 -0.2895
 5882TIP3    H139061   0.712   0.137  13.098  0.4574  1.5160 -0.8622
 5882TIP3    H239062   0.772   0.074  13.221 -1.1151 -1.1812 -1.3989
 5883TIP3   OH239063   0.117   5.004  13.681  0.0162 -0.1985  0.2894
 5883TIP3    H139064   0.107   5.029  13.773 -3.5629  1.1575 -0.2991
 5883TIP3    H239065   0.114   5.086  13.633 -2.6681 -1.0412 -1.1952
 5884TIP3   OH239066   6.584   0.634  16.051 -0.0871  0.2277  0.3141
 5884TIP3    H139067   6.603   0.633  15.957 -1.8597 -0.1215 -0.0772
 5884TIP3    H239068   6.641   0.567  16.088 -0.6059 -0.8459 -0.7837
 5885TIP3   OH239069   4.153   3.209   6.314  0.2750  0.0236 -0.3445
 5885TIP3    H139070   4.070   3.161   6.313 -0.4253  1.1337  0.7138
 5885TIP3    H239071   4.127   3.301   6.308  1.5532  0.3257 -1.8449
 5886TIP3   OH239072   2.791   0.059  15.808  0.2257 -0.1362 -0.0720
 5886TIP3    H139073   2.885   0.076  15.812  0.3015 -0.5645  0.1066
 5886TIP3    H239074   2.750   0.144  15.822  0.5844 -0.1018  0.8722
 5887TIP3   OH239075   2.976   1.955   4.044  0.4361 -0.1513  0.6289
 5887TIP3    H139076   2.944   2.022   3.983  2.9479  1.4995  0.9730
 5887TIP3    H239077   2.990   2.002   4.126 -0.2225 -1.7321  1.6942
 5888TIP3   OH239078   3.356   2.895  16.549  0.4755  0.2410 -0.0581
 5888TIP3    H139079   3.424   2.861  16.607  0.2173 -0.5264 -0.1955
 5888TIP3    H239080   3.394   2.889  16.461  0.3200  0.0423 -0.1112
 5889TIP3   OH239081   6.165   1.048   2.236 -0.5584 -0.2239 -0.2615
 5889TIP3    H139082   6.203   1.000   2.162  1.7776  2.1142 -0.7399
 5889TIP3    H239083   6.186   0.994   2.312 -0.6360 -1.3837 -1.0329
 5890TIP3   OH239084   6.050   4.448   3.953  0.2892  0.3545  0.5126
 5890TIP3    H139085   6.004   4.369   3.925  1.9556 -0.2144 -0.8253
 5890TIP3    H239086   6.124   4.415   4.005  1.8051  0.8801 -1.2176
 5891TIP3   OH239087   0.962   5.965  15.635 -0.1612 -0.1724  0.0489
 5891TIP3    H139088   1.040   5.913  15.618 -0.1374  0.0641 -0.6054
 5891TIP3    H239089   0.983   6.016  15.713  0.9593  1.0553 -1.0059
 5892TIP3   OH239090   2.426   2.363   5.653  0.3855 -0.1766  0.2350
 5892TIP3    H139091   2.431   2.378   5.747  0.4842 -0.2710  0.2451
 5892TIP3    H239092   2.382   2.279   5.644 -1.8297  0.9262  0.1239
 5893TIP3   OH239093   0.431   3.473   3.185 -0.0632  0.3144 -0.0292
 5893TIP3    H139094   0.490   3.463   3.260 -0.8318  2.2058  0.9019
 5893TIP3    H239095   0.483   3.518   3.119  0.3669 -0.6043 -0.3292
 5894TIP3   OH239096   2.117   0.986   3.277  0.0808  0.5079 -0.4824
 5894TIP3    H139097   2.179   0.922   3.313  0.6860  1.9983  1.2949
 5894TIP3    H239098   2.049   0.933   3.236 -0.0297 -1.3320  1.8718
 5895TIP3   OH239099   2.245   5.274   5.909 -0.2808 -0.1137 -0.0600
 5895TIP3    H139100   2.319   5.244   5.960 -0.9090 -2.1902 -0.2665
 5895TIP3    H239101   2.195   5.330   5.969  0.2625 -0.5351  0.7998
 5896TIP3   OH239102   6.343   1.548   2.781  0.4161  0.3501  0.0840
 5896TIP3    H139103   6.385   1.617   2.833 -0.6868 -0.8647  2.7866
 5896TIP3    H239104   6.389   1.468   2.805  0.5676 -0.1508 -1.7221
 5897TIP3   OH239105   2.939   4.174  10.656 -0.0419  0.4855 -0.4299
 5897TIP3    H139106   2.893   4.093  10.678 -0.1193  0.5917 -0.1967
 5897TIP3    H239107   2.886   4.243  10.696  0.5401  0.5782  0.2007
 5898TIP3   OH239108   4.995   1.106   0.531 -0.5050 -0.0891 -0.3158
 5898TIP3    H139109   5.058   1.159   0.482 -1.8249  1.1975 -0.6898
 5898TIP3    H239110   4.945   1.170   0.582 -0.3246 -1.2481  1.3664
 5899TIP3   OH239111   1.358   5.680  12.357  0.0782 -0.6360  0.3052
 5899TIP3    H139112   1.350   5.656  12.265 -1.4945  1.0817 -0.0594
 5899TIP3    H239113   1.328   5.603  12.406  1.5382 -1.7991 -0.5449
 5900TIP3   OH239114   4.067   5.245  14.353 -0.0246 -0.0665 -0.0965
 5900TIP3    H139115   4.104   5.164  14.319 -1.8739 -1.2191  0.4372
 5900TIP3    H239116   3.999   5.216  14.414 -1.2356  1.8814 -0.4257
 5901TIP3   OH239117   3.508   6.750  15.822 -0.0049 -0.3611  0.7272
 5901TIP3    H139118   3.507   6.775  15.914  2.1079  0.0207  0.6818
 5901TIP3    H239119   3.562   6.816  15.779 -0.2103 -1.0420 -0.6254
 5902TIP3   OH239120   2.276   6.531   0.846  0.1073  0.3426 -0.0353
 5902TIP3    H139121   2.241   6.611   0.886  0.0941  0.2486  0.1423
 5902TIP3    H239122   2.202   6.470   0.847 -0.0244  0.4858 -0.6120
 5903TIP3   OH239123   6.227   2.697  11.856 -0.1876  0.0252 -0.0234
 5903TIP3    H139124   6.274   2.658  11.929 -2.1063 -1.1492  0.6728
 5903TIP3    H239125   6.282   2.680  11.780  0.5586 -1.2117  0.7630
 5904TIP3   OH239126   2.544   3.538  15.094 -0.0149  0.5353  0.5231
 5904TIP3    H139127   2.611   3.588  15.048  0.4361 -0.6287 -0.1490
 5904TIP3    H239128   2.476   3.522  15.029  0.0306 -0.0414  0.6073
 5905TIP3   OH239129   1.203   2.655   1.486  0.0174 -0.2270  0.7607
 5905TIP3    H139130   1.224   2.744   1.459 -0.0606 -0.8402 -1.4855
 5905TIP3    H239131   1.147   2.666   1.563  0.3904  1.6243  0.8264
 5906TIP3   OH239132   1.230   3.167   1.758 -0.7693  0.2492 -0.1897
 5906TIP3    H139133   1.272   3.252   1.770 -0.6222  0.4752 -2.0526
 5906TIP3    H239134   1.139   3.187   1.737 -0.4403  0.0416 -1.9271
 5907TIP3   OH239135   3.633   4.490   0.508 -0.1507  0.2935 -0.4186
 5907TIP3    H139136   3.659   4.410   0.553 -1.3927 -0.4636 -1.0027
 5907TIP3    H239137   3.538   4.486   0.505 -0.1427 -0.0535 -3.6482
 5908TIP3   OH239138   4.771   2.553  11.898 -1.0187 -0.2294 -0.4898
 5908TIP3    H139139   4.841   2.524  11.840  0.8988  1.8731  0.5654
 5908TIP3    H239140   4.782   2.500  11.977 -0.7721 -0.1097 -0.4404
 5909TIP3   OH239141   6.029   1.723  13.799  0.2774  0.3560 -0.8634
 5909TIP3    H139142   5.951   1.680  13.764  0.2818 -0.2560 -0.1483
 5909TIP3    H239143   6.010   1.816  13.790 -2.2702  0.4038  2.7204
 5910TIP3   OH239144   3.142   5.607  12.023  0.2897 -0.0363 -0.1591
 5910TIP3    H139145   3.179   5.610  12.112 -0.7197 -2.4201  0.4342
 5910TIP3    H239146   3.217   5.622  11.966  2.2180 -3.7778  1.0180
 5911TIP3   OH239147   5.148   0.497   4.416  0.2215  0.1301  0.3192
 5911TIP3    H139148   5.213   0.427   4.408  0.2532  0.1818  0.1096
 5911TIP3    H239149   5.186   0.559   4.478  0.0779 -0.1669  0.7058
 5912TIP3   OH239150   3.821   5.200   0.076  0.1156  0.2941 -0.1913
 5912TIP3    H139151   3.833   5.295   0.075 -1.1677  0.4895  0.5578
 5912TIP3    H239152   3.892   5.168   0.130  0.6603  0.8030 -0.5867
 5913TIP3   OH239153   6.401   6.300  14.965 -0.3416  0.3120  0.3229
 5913TIP3    H139154   6.341   6.251  15.021  0.8452  0.1877  1.5302
 5913TIP3    H239155   6.466   6.235  14.938  0.1731  0.8006  0.3834
 5914TIP3   OH239156   4.424   0.778  10.786  0.2008  0.3780 -0.0277
 5914TIP3    H139157   4.490   0.833  10.830 -0.9219  0.3401  1.8268
 5914TIP3    H239158   4.411   0.704  10.846 -1.6552  0.5006 -0.2152
 5915TIP3   OH239159   1.035   2.102  10.842 -0.1226 -0.4056  0.5033
 5915TIP3    H139160   1.072   2.084  10.755  2.2998  1.1240  1.1375
 5915TIP3    H239161   0.941   2.114  10.825 -0.2805 -3.2197 -1.3867
 5916TIP3   OH239162   6.096   6.539   5.579  0.3962  0.2666  0.0891
 5916TIP3    H139163   6.106   6.546   5.484 -0.3138 -0.1242 -0.0194
 5916TIP3    H239164   6.046   6.459   5.592  3.8191 -1.8912  1.0201
 5917TIP3   OH239165   6.478   1.564   0.616  0.5333 -0.1169  0.1905
 5917TIP3    H139166   6.523   1.493   0.572 -0.4846 -1.1020  0.6971
 5917TIP3    H239167   6.532   1.583   0.693  0.7275 -0.4318  0.1302
 5918TIP3   OH239168   3.620   5.942  15.712 -0.1283 -0.4846 -0.1134
 5918TIP3    H139169   3.671   6.021  15.695 -1.4801  0.0801 -1.7790
 5918TIP3    H239170   3.588   5.952  15.801  0.2962  0.5113 -0.0614
 5919TIP3   OH239171   0.480   4.887   4.181 -0.1582 -0.1791 -0.2084
 5919TIP3    H139172   0.468   4.871   4.275 -0.0567  0.2958 -0.1113
 5919TIP3    H239173   0.508   4.802   4.145  0.0450 -0.3011  0.2303
 5920TIP3   OH239174   0.463   2.043  15.318 -0.2310  0.2374  0.5659
 5920TIP3    H139175   0.547   2.023  15.278 -0.5919 -0.7301  0.2314
 5920TIP3    H239176   0.450   2.136  15.303  0.0424  0.0781 -0.8408
 5921TIP3   OH239177   5.656   4.858   0.880 -0.3817  0.2289 -0.0502
 5921TIP3    H139178   5.687   4.813   0.801 -0.8411 -1.0315  0.4633
 5921TIP3    H239179   5.688   4.804   0.952 -0.7313  0.8748  0.5946
 5922TIP3   OH239180   1.040   0.917  13.325 -0.2783 -0.4656  0.1971
 5922TIP3    H139181   1.094   0.938  13.249  0.0073 -3.0273 -0.4026
 5922TIP3    H239182   0.974   0.856  13.291 -0.1996 -1.5967  1.9544
 5923TIP3   OH239183   2.606   6.753   3.957 -0.0753  0.6293 -0.8621
 5923TIP3    H139184   2.570   6.753   4.046  0.1976  3.2813 -0.6733
 5923TIP3    H239185   2.642   6.841   3.946  1.9867 -0.3701 -2.7990
 5924TIP3   OH239186   3.715   1.847  14.278  0.0149 -0.1570 -0.2200
 5924TIP3    H139187   3.660   1.911  14.323  1.1402  0.6495  0.0692
 5924TIP3    H239188   3.674   1.836  14.192 -1.3699 -0.6520  0.4894
 5925TIP3   OH239189   3.218   0.231   3.605 -0.5393 -0.2301 -0.2701
 5925TIP3    H139190   3.203   0.310   3.553 -1.6047  0.2768  0.7592
 5925TIP3    H239191   3.235   0.163   3.541  1.6721  1.0561 -1.1510
 5926TIP3   OH239192   6.706   3.676   3.507 -0.1249  0.2181 -0.9531
 5926TIP3    H139193   6.801   3.670   3.516 -0.1639  1.0746  0.3797
 5926TIP3    H239194   6.679   3.590   3.475  0.9585 -0.5103  0.0187
 5927TIP3   OH239195   2.305   0.539   5.329 -0.1973  0.3877  0.0930
 5927TIP3    H139196   2.381   0.577   5.285  0.3632 -0.2654  0.4758
 5927TIP3    H239197   2.258   0.493   5.260  0.9491 -1.0589  0.2406
 5928TIP3   OH239198   2.006   0.816  12.774 -0.4388  0.3028  0.8094
 5928TIP3    H139199   1.942   0.815  12.845  1.1473  0.8628  2.3298
 5928TIP3    H239200   2.089   0.836  12.817  0.6957  0.0775 -1.1446
 5929TIP3   OH239201   1.552   0.132   5.848  0.7945  0.0041 -0.3180
 5929TIP3    H139202   1.465   0.123   5.887  0.5096 -1.2206 -1.2016
 5929TIP3    H239203   1.612   0.108   5.919  0.3032 -1.5614 -0.3995
 5930TIP3   OH239204   2.029   1.893  11.042 -0.3253 -0.2072 -0.1846
 5930TIP3    H139205   2.053   1.952  11.114 -0.7540 -0.1417 -0.0892
 5930TIP3    H239206   2.036   1.948  10.963  0.9709 -0.5104 -0.2974
 5931TIP3   OH239207   0.449   6.537   1.167 -0.3490 -0.3019 -0.3974
 5931TIP3    H139208   0.449   6.492   1.082 -0.8269 -0.2807 -0.4139
 5931TIP3    H239209   0.520   6.601   1.160 -1.1077  0.4952 -1.2210
 5932TIP3   OH239210   3.543   1.245   2.188  0.1860  0.4665  0.3928
 5932TIP3    H139211   3.596   1.274   2.262  1.2802  0.3124 -0.3161
 5932TIP3    H239212   3.472   1.310   2.183  1.2466  1.6545  0.3123
 5933TIP3   OH239213   0.011   6.157  13.075  0.1102 -0.2147 -0.3225
 5933TIP3    H139214   0.001   6.163  13.170  0.9872 -0.7891 -0.1834
 5933TIP3    H239215   0.085   6.214  13.055 -0.3543  0.2542 -0.7210
 5934TIP3   OH239216   5.482   2.259  15.272 -0.3579  0.1632  0.5103
 5934TIP3    H139217   5.528   2.288  15.193 -1.3011 -0.9430 -0.4916
 5934TIP3    H239218   5.417   2.328  15.288 -0.0450  0.4811  0.4288
 5935TIP3   OH239219   3.077   5.370   1.181  0.2521 -0.4603  0.2637
 5935TIP3    H139220   3.130   5.448   1.196  0.1096 -0.5304  1.2315
 5935TIP3    H239221   3.140   5.298   1.179  0.3760 -0.3351 -0.5517
 5936TIP3   OH239222   5.316   6.271  15.241  0.0508  0.1918 -0.8041
 5936TIP3    H139223   5.244   6.334  15.241 -0.4867 -0.3432 -2.7046
 5936TIP3    H239224   5.395   6.324  15.229 -0.3933  0.5687 -2.3443
 5937TIP3   OH239225   3.529   5.126   1.683  0.7494  0.3827 -0.3761
 5937TIP3    H139226   3.594   5.063   1.715  1.8981  2.4107  1.5928
 5937TIP3    H239227   3.580   5.194   1.639 -0.1057  1.5118  0.3105
 5938TIP3   OH239228   1.551   6.144  15.421 -0.1193  0.3317  0.0717
 5938TIP3    H139229   1.574   6.207  15.489 -0.4925 -1.2767  1.7634
 5938TIP3    H239230   1.630   6.139  15.366 -0.4182  2.9252 -0.7168
 5939TIP3   OH239231   0.722   4.861  13.249 -0.3869  0.3719 -0.3939
 5939TIP3    H139232   0.736   4.935  13.307 -1.0897  1.0574 -1.0730
 5939TIP3    H239233   0.661   4.804  13.296  0.1926  0.1837  0.1480
 5940TIP3   OH239234   3.261   3.205  17.001  0.2186 -0.0700  0.2936
 5940TIP3    H139235   3.285   3.175  16.914  2.3737 -0.8805  1.0884
 5940TIP3    H239236   3.266   3.127  17.056  2.4833  0.9744  1.7495
 5941TIP3   OH239237   1.832   3.567   2.970  0.0172 -0.2263  0.4304
 5941TIP3    H139238   1.830   3.633   3.040  1.4988  1.1571 -0.7544
 5941TIP3    H239239   1.893   3.500   3.002 -0.2411 -0.2161  0.9575
 5942TIP3   OH239240   2.687   5.263   3.536  0.2653  0.0484  0.2252
 5942TIP3    H139241   2.634   5.297   3.608  0.1523  0.4185 -0.0327
 5942TIP3    H239242   2.675   5.168   3.540 -1.3548  0.1879 -0.5349
 5943TIP3   OH239243   2.922   4.889   4.263 -0.3020 -0.0413  0.4520
 5943TIP3    H139244   2.860   4.947   4.219  0.8028 -0.2830 -1.5853
 5943TIP3    H239245   2.969   4.846   4.191  1.0152 -1.1627  1.9078
 5944TIP3   OH239246   4.050   6.389   1.197  0.0755  0.0538 -0.2045
 5944TIP3    H139247   3.996   6.370   1.274  0.6067  0.4035  0.2612
 5944TIP3    H239248   3.989   6.425   1.133 -0.8296 -2.3827 -0.8213
 5945TIP3   OH239249   1.298   4.330   4.271 -0.7059  0.1287  0.3962
 5945TIP3    H139250   1.373   4.386   4.288  0.4972 -1.5165  0.6707
 5945TIP3    H239251   1.257   4.318   4.356  0.3498 -1.1979  0.7398
 5946TIP3   OH239252   2.144   1.170   3.966  0.0066  0.4627 -0.2622
 5946TIP3    H139253   2.092   1.153   3.887  2.7299 -0.8341 -1.9221
 5946TIP3    H239254   2.159   1.265   3.965 -0.8863  0.6081 -0.6723
 5947TIP3   OH239255   3.337   0.844   5.846  0.1729 -0.4564 -0.0907
 5947TIP3    H139256   3.346   0.756   5.809  1.8070  0.1535 -1.2715
 5947TIP3    H239257   3.353   0.833   5.939  0.8736 -1.3546 -0.3032
 5948TIP3   OH239258   6.776   5.439  13.279  0.5370 -0.1184 -0.2565
 5948TIP3    H139259   6.816   5.366  13.231  1.8522 -0.1883  0.8890
 5948TIP3    H239260   6.825   5.516  13.251  1.6064 -0.2157  1.2053
 5949TIP3   OH239261   0.763   0.228  15.853 -0.6322 -0.7938  0.6881
 5949TIP3    H139262   0.721   0.289  15.793  0.6914 -0.0518  0.4623
 5949TIP3    H239263   0.725   0.143  15.832  0.4036 -0.7258 -1.8889
 5950TIP3   OH239264   4.994   5.706   4.764  0.6725 -0.0178 -0.1611
 5950TIP3    H139265   5.042   5.786   4.742 -1.1443  1.4801  1.0311
 5950TIP3    H239266   5.039   5.637   4.715  2.6249  1.6264 -0.8237
 5951TIP3   OH239267   6.000   4.617  12.523 -0.5735  0.1270 -0.1707
 5951TIP3    H139268   6.056   4.676  12.573 -1.8901  1.2356  0.0545
 5951TIP3    H239269   6.056   4.587  12.450  1.3500 -1.4586  1.8145
 5952TIP3   OH239270   5.853   1.456   0.006 -0.1766  0.9034 -0.0273
 5952TIP3    H139271   5.869   1.384   0.067 -0.4079  1.1722  0.3502
 5952TIP3    H239272   5.869   1.417  -0.080 -1.4693  0.0627  0.0870
 5953TIP3   OH239273   5.338   3.073  15.876 -0.3238  0.7585 -0.7252
 5953TIP3    H139274   5.277   3.007  15.911  0.7419  0.3536  0.4476
 5953TIP3    H239275   5.348   3.136  15.947  0.1453  1.1545 -1.1377
 5954TIP3   OH239276   0.328   0.858   5.660  0.2360 -0.2696  0.3106
 5954TIP3    H139277   0.403   0.830   5.711  0.3748 -1.9451 -0.7506
 5954TIP3    H239278   0.351   0.839   5.569 -1.0246  0.2383 -0.1485
 5955TIP3   OH239279   6.635   0.181  11.716  0.0798  0.2250 -0.2779
 5955TIP3    H139280   6.649   0.271  11.687  0.8344  0.0396 -0.4998
 5955TIP3    H239281   6.619   0.133  11.635 -1.0169  0.2730 -0.1046
 5956TIP3   OH239282   5.010   1.557   2.435  0.6688  0.0613 -0.1371
 5956TIP3    H139283   5.045   1.564   2.346 -2.6922  0.7494 -1.5264
 5956TIP3    H239284   5.031   1.468   2.462  1.5936 -0.2062 -1.6387
 5957TIP3   OH239285   5.045   5.212   6.328  0.1626 -0.2553 -0.1510
 5957TIP3    H139286   4.959   5.252   6.336  0.6575  0.8914 -0.3246
 5957TIP3    H239287   5.028   5.120   6.309 -1.0196  0.2575 -1.6915
 5958TIP3   OH239288   1.234   3.471   1.726 -0.4824 -0.2737 -0.4987
 5958TIP3    H139289   1.154   3.472   1.674 -0.6687  0.4915 -0.2164
 5958TIP3    H239290   1.305   3.483   1.662 -0.6461 -0.1786 -0.6628
 5959TIP3   OH239291   4.391   0.555  12.855 -0.0999 -0.0267 -0.9168
 5959TIP3    H139292   4.357   0.493  12.919  0.3292 -1.1943 -1.7821
 5959TIP3    H239293   4.356   0.640  12.882 -1.7410 -0.8235 -0.4139
 5960TIP3   OH239294   2.021   1.504  14.543  0.0016  0.0648 -0.2026
 5960TIP3    H139295   1.929   1.522  14.566 -0.1495  1.0118 -1.4717
 5960TIP3    H239296   2.016   1.437  14.475  0.1546  1.0730 -1.2424
 5961TIP3   OH239297   0.694   0.749  14.210  0.1082 -0.1949 -0.8125
 5961TIP3    H139298   0.766   0.700  14.250  0.7219  0.9382 -0.4789
 5961TIP3    H239299   0.682   0.824  14.268 -2.4084 -1.1285  0.0509
 5962TIP3   OH239300   5.406   3.721   4.710  0.0168  0.4714 -0.0495
 5962TIP3    H139301   5.417   3.631   4.680  0.1688  0.5285 -0.1653
 5962TIP3    H239302   5.319   3.746   4.677 -0.2055  0.2288  0.3431
 5963TIP3   OH239303   3.601   4.627   2.822 -0.4070  0.3050 -0.1087
 5963TIP3    H139304   3.675   4.626   2.883 -0.3928  1.4871 -0.0876
 5963TIP3    H239305   3.571   4.536   2.819  0.3115  0.0263  0.7817
 5964TIP3   OH239306   0.859   4.629  12.577  0.2617  0.1882 -0.3527
 5964TIP3    H139307   0.815   4.673  12.504  0.7364  2.7926  0.8112
 5964TIP3    H239308   0.951   4.655  12.568  0.5959 -0.7197  0.3331
 5965TIP3   OH239309   4.108   5.752  11.291  0.7285 -0.6503 -0.2347
 5965TIP3    H139310   4.161   5.730  11.214  1.3228 -1.6719  0.4408
 5965TIP3    H239311   4.150   5.830  11.327  1.1668 -0.8541 -0.2891
 5966TIP3   OH239312   5.894   6.602   3.448 -0.3837  0.4831 -0.4883
 5966TIP3    H139313   5.936   6.650   3.519 -1.0516  0.6647 -0.2094
 5966TIP3    H239314   5.943   6.520   3.441  0.9336  1.2916 -1.1345
 5967TIP3   OH239315   0.755   3.459   2.365 -0.4634 -0.3069 -0.4406
 5967TIP3    H139316   0.804   3.519   2.308  0.0915  1.1242  1.4430
 5967TIP3    H239317   0.816   3.388   2.383  1.5502  1.9440  2.7038
 5968TIP3   OH239318   6.306   5.385  15.927  0.4369  0.5925 -0.7108
 5968TIP3    H139319   6.385   5.331  15.930 -0.2917 -0.5116 -1.2627
 5968TIP3    H239320   6.249   5.349  15.995  1.2890  2.8697  1.3750
 5969TIP3   OH239321   5.564   2.436   5.578  0.1484  0.2294  0.1175
 5969TIP3    H139322   5.638   2.483   5.538  1.1156 -2.8238 -2.0842
 5969TIP3    H239323   5.497   2.433   5.510 -1.4787  1.6222  1.5634
 5970TIP3   OH239324   0.488   0.225  16.457 -0.3506 -0.9147 -0.9042
 5970TIP3    H139325   0.564   0.173  16.484 -0.0765  0.3406  0.9803
 5970TIP3    H239326   0.427   0.217  16.530 -0.0686  1.7825 -0.2821
 5971TIP3   OH239327   5.471   3.863   1.147  0.0410  0.1523  0.0079
 5971TIP3    H139328   5.413   3.795   1.182  0.6371 -0.2044  0.3349
 5971TIP3    H239329   5.528   3.886   1.221  1.5369 -0.8407 -0.7774
 5972TIP3   OH239330   4.071   5.257   0.862  0.5231 -0.3610 -0.2627
 5972TIP3    H139331   4.090   5.345   0.897  1.2407 -0.4181 -0.4859
 5972TIP3    H239332   4.013   5.217   0.927 -0.0879  0.3986 -0.3238
 5973TIP3   OH239333   3.155   5.208  12.511 -0.4254  0.4245 -0.1119
 5973TIP3    H139334   3.248   5.200  12.530 -0.7421 -1.3769  0.9153
 5973TIP3    H239335   3.145   5.173  12.423 -0.2870 -0.6767  0.2931
 5974TIP3   OH239336   5.056   3.999  11.990 -0.3746  0.0682 -0.2095
 5974TIP3    H139337   5.130   4.061  11.991 -2.0668  2.2332  1.1276
 5974TIP3    H239338   5.039   3.984  11.897  0.9944  0.4807 -0.5575
 5975TIP3   OH239339   1.805   0.019   5.168  0.5743  0.0277 -0.4489
 5975TIP3    H139340   1.827   0.004   5.260 -2.4433  2.7604  0.9343
 5975TIP3    H239341   1.718  -0.018   5.158 -0.6993  2.8782 -1.0342
 5976TIP3   OH239342   4.425   5.647  14.453  0.1886  0.2119 -0.9672
 5976TIP3    H139343   4.489   5.575  14.453 -0.9901 -0.9522  1.4981
 5976TIP3    H239344   4.348   5.610  14.411 -0.1187  0.3333 -0.5137
 5977TIP3   OH239345   3.225   3.467   6.174 -0.2126 -0.7755 -0.3348
 5977TIP3    H139346   3.169   3.399   6.209  0.6160 -1.4835 -0.3506
 5977TIP3    H239347   3.309   3.455   6.218  0.3211 -0.5736 -1.2622
 5978TIP3   OH239348   0.973   1.630  16.043 -0.4026 -0.6802 -0.1949
 5978TIP3    H139349   1.029   1.561  16.079 -0.2456 -1.2223 -1.4074
 5978TIP3    H239350   0.897   1.632  16.101  0.1981 -0.9585  0.6142
 5979TIP3   OH239351   0.489   2.217   1.013 -0.3036 -0.0791 -0.5901
 5979TIP3    H139352   0.507   2.237   1.104 -2.6769  0.3800 -0.1473
 5979TIP3    H239353   0.535   2.285   0.964  2.2100 -1.1763  0.1032
 5980TIP3   OH239354   1.057   0.890  15.419 -0.3522 -0.0249  0.1189
 5980TIP3    H139355   1.133   0.851  15.462 -0.3941 -0.0709  0.1520
 5980TIP3    H239356   1.092   0.967  15.374 -0.2635 -0.1205  0.0249
 5981TIP3   OH239357   1.422   5.071  11.528 -0.0722  0.4312 -0.2800
 5981TIP3    H139358   1.455   5.024  11.452  1.6431  0.2397  0.5306
 5981TIP3    H239359   1.360   5.010  11.569  0.7148 -0.3973 -0.2855
 5982TIP3   OH239360   6.396   4.966   2.730  0.3091 -0.0186  0.0452
 5982TIP3    H139361   6.411   4.895   2.793  1.8754  0.1164 -0.1309
 5982TIP3    H239362   6.474   4.964   2.673 -0.6843  0.3853 -1.3865
 5983TIP3   OH239363   0.796   0.966  14.369 -0.1926  0.6519  0.9044
 5983TIP3    H139364   0.844   1.006  14.296 -1.0954  2.0369  1.0265
 5983TIP3    H239365   0.865   0.943  14.432  0.4671  0.9473  0.3102
 5984TIP3   OH239366   2.466   2.204   5.003  0.4806 -0.2803  0.3461
 5984TIP3    H139367   2.498   2.265   5.068 -0.6742 -0.6851  1.3304
 5984TIP3    H239368   2.533   2.205   4.934  1.7052  0.1897  1.4988
 5985TIP3   OH239369   2.523   4.773  11.858 -0.5694 -0.4452  0.0398
 5985TIP3    H139370   2.482   4.715  11.793 -0.2768 -0.2629 -0.3133
 5985TIP3    H239371   2.457   4.839  11.877 -1.1691 -1.2844  0.9716
 5986TIP3   OH239372   4.209   2.022   6.294  0.3463  0.7944  0.6871
 5986TIP3    H139373   4.234   1.953   6.355 -1.3375  1.2182  1.9185
 5986TIP3    H239374   4.232   2.103   6.339  1.7706  1.0998 -0.5080
 5987TIP3   OH239375   5.098   1.053  16.633  0.0535  0.0059  0.2205
 5987TIP3    H139376   5.048   1.115  16.686  0.5079 -0.6878  1.5048
 5987TIP3    H239377   5.149   1.003  16.697  0.2655 -1.1753 -0.8409
 5988TIP3   OH239378   4.818   4.551  15.877 -0.6141 -0.3258 -0.1466
 5988TIP3    H139379   4.762   4.624  15.852 -1.3063  0.6235  3.6160
 5988TIP3    H239380   4.817   4.493  15.801 -0.5657  3.1668 -3.0576
 5989TIP3   OH239381   2.221   2.391   5.368  0.1171  0.1472 -0.4266
 5989TIP3    H139382   2.196   2.339   5.445  2.1444 -0.2894  0.0215
 5989TIP3    H239383   2.246   2.326   5.303 -0.4880  0.5407 -1.0641
 5990TIP3   OH239384   3.165   0.337   3.977 -0.0066 -0.1953  0.6409
 5990TIP3    H139385   3.208   0.256   3.951  0.4870 -0.3340  1.8262
 5990TIP3    H239386   3.075   0.328   3.944  1.4014  1.3189 -4.4248
 5991TIP3   OH239387   3.147   3.628  14.983 -0.6554  0.3495 -0.5512
 5991TIP3    H139388   3.141   3.723  14.979 -0.2905  0.3569 -0.9709
 5991TIP3    H239389   3.167   3.609  15.075  1.5735  0.8196 -0.8761
 5992TIP3   OH239390   3.279   2.129  11.036  0.2918 -0.1379 -0.4102
 5992TIP3    H139391   3.236   2.095  10.957  2.0993 -4.0368  0.0461
 5992TIP3    H239392   3.208   2.134  11.101 -0.5428 -0.6204 -1.2514
 5993TIP3   OH239393   0.449   5.038  14.989 -0.0154  0.2384 -0.2873
 5993TIP3    H139394   0.515   5.101  14.959 -1.8856  1.4719 -2.1562
 5993TIP3    H239395   0.401   5.083  15.058 -0.7625  0.5615 -0.9908
 5994TIP3   OH239396   1.697   1.650  14.342 -0.3734 -0.6856  0.2372
 5994TIP3    H139397   1.745   1.702  14.278 -2.6462 -0.4183 -1.3873
 5994TIP3    H239398   1.668   1.573  14.294 -2.5713 -0.2406  0.7044
 5995TIP3   OH239399   5.129   1.377  13.510  0.1597 -0.2607 -0.3167
 5995TIP3    H139400   5.191   1.448  13.493 -0.7660  0.5522 -0.3690
 5995TIP3    H239401   5.056   1.394  13.450 -0.0128 -1.3501 -0.4368
 5996TIP3   OH239402   1.948   3.257  11.238  0.5591 -0.2908 -0.0850
 5996TIP3    H139403   1.955   3.272  11.144  1.1208 -2.9018 -0.5341
 5996TIP3    H239404   1.907   3.171  11.246  0.8258 -0.2804  2.0524
 5997TIP3   OH239405   4.098   3.680  13.718 -0.8403  0.0230 -0.8274
 5997TIP3    H139406   4.191   3.690  13.699 -0.5429  0.0333  0.5586
 5997TIP3    H239407   4.086   3.721  13.803 -1.6608 -1.9303  0.0736
 5998TIP3   OH239408   5.535   2.510   3.058 -0.4541  0.7141 -0.1825
 5998TIP3    H139409   5.533   2.449   3.132  1.8479  0.1217 -0.4977
 5998TIP3    H239410   5.446   2.542   3.050 -1.2736 -0.9767  1.3797
 5999TIP3   OH239411   5.786   2.593   5.835  0.5649 -0.0985  0.8762
 5999TIP3    H139412   5.792   2.550   5.920  0.0490 -1.7111  0.1156
 5999TIP3    H239413   5.873   2.632   5.822  1.1363 -1.1561  1.4505
 6000TIP3   OH239414   1.655   1.441  16.084  0.3688 -0.3971  0.4171
 6000TIP3    H139415   1.623   1.406  16.001  0.4807  0.0457  0.1801
 6000TIP3    H239416   1.652   1.367  16.145  0.6950 -0.8394 -0.0931
 6001TIP3   OH239417   1.891   2.519   6.460 -0.4504  0.4784 -1.1056
 6001TIP3    H139418   1.847   2.594   6.420  0.7612  2.0292  0.2962
 6001TIP3    H239419   1.823   2.453   6.469 -1.6915  1.5889 -1.9132
 6002TIP3   OH239420   4.886   4.527   6.016  0.7157  0.2646  0.1200
 6002TIP3    H139421   4.947   4.559   6.082  0.8802  3.0155 -1.2385
 6002TIP3    H239422   4.864   4.604   5.963 -2.7023 -0.9334 -0.4738
 6003TIP3   OH239423   6.400   1.985  15.646 -0.2348  0.5131 -0.2264
 6003TIP3    H139424   6.461   2.005  15.717 -0.4866 -0.0292  0.1551
 6003TIP3    H239425   6.399   1.889  15.642 -0.9529  0.5177 -0.3153
 6004TIP3   OH239426   0.970   0.264  16.038 -0.7434  0.7823 -0.1982
 6004TIP3    H139427   0.889   0.259  15.988 -0.0120  0.4691 -1.3893
 6004TIP3    H239428   1.033   0.213  15.987 -0.2373 -0.4669  1.6065
 6005TIP3   OH239429   1.525   1.066   5.339 -0.1589  0.6965  0.3414
 6005TIP3    H139430   1.619   1.062   5.353 -0.3137 -1.1783  1.0850
 6005TIP3    H239431   1.495   1.138   5.395  0.6175  0.1945  1.4194
 6006TIP3   OH239432   6.771   1.476   4.821 -0.3242  0.4252 -0.0691
 6006TIP3    H139433   6.677   1.463   4.807 -0.1736 -1.8996  0.6944
 6006TIP3    H239434   6.776   1.549   4.884 -1.6603 -0.0010  0.5676
 6007TIP3   OH239435   0.534   5.235  15.379 -0.3350  0.4388 -0.2137
 6007TIP3    H139436   0.595   5.168  15.411  0.4944  0.1000 -2.3033
 6007TIP3    H239437   0.520   5.293  15.454  1.7063 -0.0936  0.6592
 6008TIP3   OH239438   5.461   6.184   5.832 -0.7664 -0.1829 -0.1836
 6008TIP3    H139439   5.444   6.094   5.806 -1.8231  0.2134 -0.9380
 6008TIP3    H239440   5.528   6.178   5.900  0.0620 -1.4415 -1.0880
 6009TIP3   OH239441   5.994   0.102   0.854 -0.0919  0.4330 -0.3980
 6009TIP3    H139442   5.956   0.021   0.889 -0.1532  0.0257 -1.3844
 6009TIP3    H239443   5.988   0.164   0.927 -0.5307 -0.2917  0.2034
 6010TIP3   OH239444   2.815   2.517  14.994  0.7451  0.1735 -0.0850
 6010TIP3    H139445   2.724   2.489  14.996  0.7915  0.0731  1.9574
 6010TIP3    H239446   2.865   2.436  15.003  0.9031  0.5306  3.8626
 6011TIP3   OH239447   6.502   2.702   0.714 -0.0347  0.1952 -0.2351
 6011TIP3    H139448   6.425   2.658   0.749  0.5454 -0.6330  0.0510
 6011TIP3    H239449   6.573   2.674   0.772  0.7180 -0.1855 -1.3159
 6012TIP3   OH239450   1.419   2.460   5.124  0.0647 -0.1311 -0.1596
 6012TIP3    H139451   1.511   2.479   5.142  0.3264  0.5520 -2.0238
 6012TIP3    H239452   1.415   2.364   5.121  1.4857 -0.2290 -3.2343
 6013TIP3   OH239453   3.959   4.425  13.457  0.4417 -0.0161  0.1568
 6013TIP3    H139454   3.969   4.400  13.366  1.5964  1.1073 -0.0600
 6013TIP3    H239455   4.020   4.499  13.469 -0.4979  0.5935  1.5350
 6014TIP3   OH239456   3.764   2.138   2.035  0.3136  0.7076 -0.1246
 6014TIP3    H139457   3.697   2.138   2.103 -0.1644 -0.0557 -0.5792
 6014TIP3    H239458   3.715   2.149   1.953  0.7491  0.2990 -0.4508
 6015TIP3   OH239459   2.076   0.133   6.777  0.5942 -0.1675  0.3939
 6015TIP3    H139460   2.053   0.058   6.722  4.0522  0.0582 -1.6529
 6015TIP3    H239461   2.046   0.209   6.727  1.1340 -0.0679  0.2124
 6016TIP3   OH239462   0.178   4.376  16.113  0.7435 -0.3549  0.0829
 6016TIP3    H139463   0.156   4.373  16.206  0.2346  0.6558  0.0037
 6016TIP3    H239464   0.179   4.284  16.086 -2.5592 -0.5754  0.3111
 6017TIP3   OH239465   0.908   5.689  12.361  0.0123  0.1125  0.3751
 6017TIP3    H139466   0.978   5.728  12.413 -0.6868  0.7540  0.8686
 6017TIP3    H239467   0.952   5.630  12.300  1.2916  2.8586 -1.5286
 6018TIP3   OH239468   6.142   3.424  12.250 -0.5798  0.2505 -0.3468
 6018TIP3    H139469   6.193   3.351  12.285  1.0952  1.0508 -1.0142
 6018TIP3    H239470   6.074   3.382  12.198 -0.8349 -0.8566  0.8168
 6019TIP3   OH239471   3.430   0.169   2.808 -0.0518  0.1641  0.2557
 6019TIP3    H139472   3.375   0.245   2.791 -0.4483 -0.5792 -2.1093
 6019TIP3    H239473   3.515   0.206   2.831 -0.1416  1.3600 -1.1871
 6020TIP3   OH239474   2.333   4.199   3.118 -0.4562 -0.5493 -0.3437
 6020TIP3    H139475   2.310   4.152   3.198 -2.7437  2.1173  0.7754
 6020TIP3    H239476   2.386   4.138   3.067  1.6079 -2.2028  3.4077
 6021TIP3   OH239477   2.790   4.383   1.742 -0.4631  0.7947  0.4173
 6021TIP3    H139478   2.769   4.466   1.785  1.6809 -0.1567  3.7237
 6021TIP3    H239479   2.885   4.377   1.748 -0.4679 -1.4083 -0.7902
 6022TIP3   OH239480   6.009   5.132  10.192  0.0271 -0.3116 -0.5205
 6022TIP3    H139481   5.944   5.201  10.177  0.8735  0.7495  0.4447
 6022TIP3    H239482   5.984   5.094  10.276  0.6447  0.1354 -0.1207
 6023TIP3   OH239483   2.046   5.268  11.929  0.1921  0.0889  0.0164
 6023TIP3    H139484   2.107   5.266  11.856  0.4899 -0.9016  0.2858
 6023TIP3    H239485   2.101   5.283  12.006 -0.2921  3.2418 -0.1077
 6024TIP3   OH239486   5.936   3.567   3.205  0.6829 -0.7542 -0.2607
 6024TIP3    H139487   5.882   3.489   3.215 -0.3957 -0.0590 -0.4541
 6024TIP3    H239488   5.998   3.545   3.135 -0.1445 -1.1640 -0.8813
 6025TIP3   OH239489   3.568   2.515  16.338  0.1721 -0.6287 -0.2836
 6025TIP3    H139490   3.545   2.504  16.431 -2.2929  0.2707 -0.7221
 6025TIP3    H239491   3.636   2.582  16.338 -1.1667  0.7985  0.7948
 6026TIP3   OH239492   1.925   6.040  11.632  0.0921  0.0521  0.3397
 6026TIP3    H139493   2.012   6.010  11.660 -0.1249 -1.5093 -0.5866
 6026TIP3    H239494   1.924   6.133  11.655  1.4006 -0.2516  1.8254
 6027TIP3   OH239495   2.660   0.864   1.501  0.4783 -0.2556 -0.3443
 6027TIP3    H139496   2.613   0.947   1.500  0.3477 -0.1863  2.5358
 6027TIP3    H239497   2.603   0.804   1.549  2.7886 -0.4114  2.4848
 6028TIP3   OH239498   0.513   3.324   3.969  0.2420  0.4517  0.4138
 6028TIP3    H139499   0.504   3.353   4.060  2.1405 -1.4375  1.2717
 6028TIP3    H239500   0.519   3.229   3.974  0.6800  0.3233 -1.6804
 6029TIP3   OH239501   4.873   3.458  16.470 -0.5495 -0.5917 -0.6755
 6029TIP3    H139502   4.918   3.393  16.415 -0.2564 -1.1282  0.1681
 6029TIP3    H239503   4.797   3.411  16.504 -0.5306 -0.3758 -0.3371
 6030TIP3   OH239504   3.595   6.554  12.152 -0.2037  0.2144  0.3334
 6030TIP3    H139505   3.590   6.606  12.072 -1.5091  1.1813  1.0060
 6030TIP3    H239506   3.639   6.473  12.126 -1.4331  0.1116 -1.5647
 6031TIP3   OH239507   0.258   2.179  14.716  0.4957  0.6577 -1.0422
 6031TIP3    H139508   0.209   2.130  14.650  0.6290  0.1003 -0.7271
 6031TIP3    H239509   0.225   2.269  14.708  1.1041  0.7781 -2.4334
 6032TIP3   OH239510   3.140   5.061  12.294 -0.3522  0.1520 -0.1018
 6032TIP3    H139511   3.173   5.078  12.206 -1.5914 -0.7008 -0.7674
 6032TIP3    H239512   3.208   5.006  12.334  0.1498  0.4137 -0.5773
 6033TIP3   OH239513   4.745   1.048   0.015 -0.5719  0.1546  0.1507
 6033TIP3    H139514   4.802   0.972   0.020 -0.9942 -0.0916  2.0174
 6033TIP3    H239515   4.765   1.099   0.093 -0.9319  1.5160 -0.6053
 6034TIP3   OH239516   2.710   1.053  16.569  0.0042  0.1020 -0.2297
 6034TIP3    H139517   2.673   1.008  16.492 -0.0500 -0.2352 -0.0110
 6034TIP3    H239518   2.800   1.072  16.544  1.0978 -3.0397  0.8185
 6035TIP3   OH239519   4.689   3.168   2.659 -0.5824  0.6508  0.5829
 6035TIP3    H139520   4.732   3.160   2.574 -0.1192 -1.3774  0.9634
 6035TIP3    H239521   4.610   3.113   2.651 -0.1076 -0.2382  1.6935
 6036TIP3   OH239522   5.165   3.702  13.296 -0.3246  0.4213 -0.4336
 6036TIP3    H139523   5.178   3.755  13.218 -0.1857  2.4352  0.8640
 6036TIP3    H239524   5.075   3.669  13.288  0.1169 -0.4575 -2.0093
 6037TIP3   OH239525   4.525   0.087   6.886 -0.4858 -0.2457 -0.0620
 6037TIP3    H139526   4.576   0.026   6.939 -1.2001 -1.7107 -0.9865
 6037TIP3    H239527   4.574   0.093   6.803  0.0025  1.0981  0.2943
 6038TIP3   OH239528   6.499   0.759   5.052  0.0061  0.6463  0.4563
 6038TIP3    H139529   6.456   0.804   5.124 -1.5804  1.4029 -0.9175
 6038TIP3    H239530   6.462   0.671   5.053 -1.2254  1.1411 -0.4032
 6039TIP3   OH239531   2.301   2.640   5.527  0.2965  0.3495  0.9188
 6039TIP3    H139532   2.273   2.559   5.485  0.0121  0.0249  1.7126
 6039TIP3    H239533   2.397   2.633   5.532  0.5083  1.1300 -1.1280
 6040TIP3   OH239534   2.619   1.157   0.582 -0.0559  0.0412  0.6887
 6040TIP3    H139535   2.696   1.205   0.611 -0.3335  0.2090  1.1596
 6040TIP3    H239536   2.638   1.066   0.604 -0.0920  0.1140  1.0352
 6041TIP3   OH239537   6.229   4.044   0.315 -0.1356 -0.1189  0.1114
 6041TIP3    H139538   6.274   4.127   0.326 -0.1697  0.0229 -0.7437
 6041TIP3    H239539   6.296   3.977   0.331 -0.1620  0.0688  1.0120
 6042TIP3   OH239540   5.189   1.837  13.587 -0.1033  0.2499 -0.4475
 6042TIP3    H139541   5.194   1.767  13.652 -1.0509  1.9681  1.5816
 6042TIP3    H239542   5.272   1.885  13.596  0.1488 -0.0343 -1.1714
 6043TIP3   OH239543   3.176   5.736  14.848 -0.0776 -0.2508  0.1312
 6043TIP3    H139544   3.098   5.680  14.842 -1.1928  1.3778 -1.8570
 6043TIP3    H239545   3.243   5.690  14.799 -0.3390 -0.8426  0.3254
 6044TIP3   OH239546   5.222   3.878   2.144  0.3793  0.9849 -0.4031
 6044TIP3    H139547   5.300   3.906   2.192  0.9140 -1.2328  0.1627
 6044TIP3    H239548   5.232   3.916   2.057  1.7711  1.2896 -0.1348
 6045TIP3   OH239549   1.509   5.359  16.548  0.0479 -0.1608 -0.1348
 6045TIP3    H139550   1.586   5.352  16.604  0.3315  2.0287 -0.1847
 6045TIP3    H239551   1.488   5.268  16.525  1.7673 -0.8898  0.9866
 6046TIP3   OH239552   3.065   5.081  12.727 -0.0644 -0.0375 -0.1396
 6046TIP3    H139553   3.112   5.147  12.676  1.0332 -0.6636  0.0323
 6046TIP3    H239554   3.054   5.121  12.813  1.3114 -0.3575  0.2101
 6047TIP3   OH239555   2.004   5.862   3.528  0.7593  0.1311 -0.3282
 6047TIP3    H139556   2.031   5.855   3.619  1.5914  3.8110 -0.1015
 6047TIP3    H239557   2.086   5.859   3.478  0.3922 -0.9763 -0.8930
 6048TIP3   OH239558   0.993   4.057  14.301 -0.8509 -0.3438  0.4202
 6048TIP3    H139559   1.069   4.068  14.357 -1.1916  2.9109  0.4387
 6048TIP3    H239560   1.029   4.045  14.213 -0.3572 -1.4023  0.7501
 6049TIP3   OH239561   1.854   5.721   3.855 -0.1760 -0.7732 -0.4285
 6049TIP3    H139562   1.901   5.638   3.851  0.2222 -0.6449  1.0872
 6049TIP3    H239563   1.780   5.704   3.913  1.2359  0.4962  1.9104
 6050TIP3   OH239564   3.991   2.716   2.596  0.3861  0.4043  0.3557
 6050TIP3    H139565   3.987   2.771   2.675 -0.4792 -0.1246  0.6941
 6050TIP3    H239566   3.916   2.657   2.605 -0.8776  1.5638 -1.7969
 6051TIP3   OH239567   5.622   6.217   1.971 -0.3076  0.7611 -0.6530
 6051TIP3    H139568   5.650   6.132   2.005  1.9316  2.1426  1.3013
 6051TIP3    H239569   5.577   6.259   2.044  0.9524  2.2191 -0.6617
 6052TIP3   OH239570   4.774   1.713  12.161  0.2979 -0.3462  0.2418
 6052TIP3    H139571   4.791   1.622  12.182  1.4679 -0.2651 -0.3017
 6052TIP3    H239572   4.857   1.758  12.177 -0.3432  0.6993  0.8341
 6053TIP3   OH239573   1.141   2.769   2.313  0.1603 -0.2094  0.0116
 6053TIP3    H139574   1.090   2.690   2.294  1.5769 -1.0810 -0.2755
 6053TIP3    H239575   1.197   2.781   2.236 -0.7838  1.7286 -0.4355
 6054TIP3   OH239576   4.159   3.054   4.882  0.4555 -0.5783 -0.5311
 6054TIP3    H139577   4.143   3.059   4.977 -0.5225  1.2396 -0.7420
 6054TIP3    H239578   4.223   2.983   4.872 -0.4895 -1.7784  1.3360
 6055TIP3   OH239579   1.990   2.666   0.917 -0.1624 -0.0095 -0.0989
 6055TIP3    H139580   1.935   2.743   0.931  2.1667  2.2662 -2.3741
 6055TIP3    H239581   2.079   2.701   0.912  0.8548 -2.5955 -2.7516
 6056TIP3   OH239582   0.631   2.000  16.479  0.2070  0.8631 -0.1714
 6056TIP3    H139583   0.602   2.046  16.558 -1.3600 -0.6571  0.2077
 6056TIP3    H239584   0.581   2.041  16.408  0.1995  0.9888 -0.0929
 6057TIP3   OH239585   4.281   0.980   2.030  0.6592 -0.0775 -0.0031
 6057TIP3    H139586   4.257   1.052   2.089 -0.7343  0.4350 -1.1466
 6057TIP3    H239587   4.369   1.001   2.000  0.3633  1.0061 -0.1263
 6058TIP3   OH239588   0.683   2.256   1.313  0.0012 -0.2386  0.6718
 6058TIP3    H139589   0.588   2.253   1.323 -0.0074 -0.2188  0.5966
 6058TIP3    H239590   0.716   2.199   1.383 -0.1477 -1.5747 -0.3114
 6059TIP3   OH239591   2.468   2.188  11.826  0.2399 -0.1881 -0.1337
 6059TIP3    H139592   2.446   2.133  11.750 -0.2956 -0.3511  0.1340
 6059TIP3    H239593   2.452   2.278  11.795 -0.1358 -0.2636 -0.1691
 6060TIP3   OH239594   4.512   0.659   5.852  0.2819  0.3690 -0.2280
 6060TIP3    H139595   4.521   0.564   5.853  4.1110  0.5683 -0.5930
 6060TIP3    H239596   4.552   0.689   5.934 -0.7011  1.6973 -0.1930
 6061TIP3   OH239597   1.298   4.429   5.410 -0.0101  0.4009  0.0609
 6061TIP3    H139598   1.376   4.483   5.397  0.7312 -0.7788 -0.5266
 6061TIP3    H239599   1.238   4.485   5.459  2.0453  0.6322  2.5131
 6062TIP3   OH239600   3.293   4.471  12.201  0.0248  0.0170 -0.2908
 6062TIP3    H139601   3.330   4.557  12.222  1.1715 -0.1064 -1.6939
 6062TIP3    H239602   3.365   4.410  12.217 -0.5556 -0.6085 -0.0367
 6063TIP3   OH239603   2.654   5.410  11.364  0.4317  0.1816  0.1197
 6063TIP3    H139604   2.565   5.443  11.377 -0.2777 -2.0437  1.3491
 6063TIP3    H239605   2.679   5.444  11.278 -3.1417 -2.2614 -2.1493
 6064TIP3   OH239606   3.079   2.702  12.183 -0.4584  1.0727 -0.4431
 6064TIP3    H139607   3.092   2.740  12.270 -0.2414 -0.4470  0.2229
 6064TIP3    H239608   3.033   2.620  12.200 -0.4605  0.7854 -1.7738
 6065TIP3   OH239609   4.635   4.213  14.334 -0.2283  0.1259 -0.1151
 6065TIP3    H139610   4.569   4.145  14.325  0.2981 -0.3689 -0.2810
 6065TIP3    H239611   4.622   4.269  14.257 -0.1812 -0.2144 -0.3743
 6066TIP3   OH239612   1.100   4.159   5.119 -0.2690 -0.6113 -0.1325
 6066TIP3    H139613   1.149   4.239   5.101 -2.2877  0.6809 -0.1795
 6066TIP3    H239614   1.122   4.101   5.046  1.5223 -0.2912  0.1076
 6067TIP3   OH239615   1.546   0.139   1.563 -0.9252 -0.5965  0.0415
 6067TIP3    H139616   1.638   0.164   1.570 -1.1419 -0.0053  0.9320
 6067TIP3    H239617   1.548   0.045   1.544 -0.1402 -0.4806 -0.5294
 6068TIP3   OH239618   4.608   2.481  12.279 -0.0809 -0.3983  0.2677
 6068TIP3    H139619   4.522   2.516  12.303  0.9082  1.4050  1.4229
 6068TIP3    H239620   4.650   2.552  12.230 -0.2905 -2.3311 -2.9965
 6069TIP3   OH239621   1.649   3.833   3.425 -0.2050  0.1556 -0.0350
 6069TIP3    H139622   1.655   3.844   3.520  0.2524 -1.1450  0.0948
 6069TIP3    H239623   1.557   3.852   3.405 -0.5088 -0.3960  0.7874
 6070TIP3   OH239624   0.911   1.485  13.767  0.3478 -0.6819 -0.3760
 6070TIP3    H139625   0.961   1.474  13.686  0.4145 -0.9214 -0.3014
 6070TIP3    H239626   0.968   1.449  13.836 -0.0885 -1.3293 -0.3446
 6071TIP3   OH239627   3.829   6.028   3.337  0.5365 -0.1101  0.1246
 6071TIP3    H139628   3.917   5.992   3.349  0.5632 -0.1585 -0.2056
 6071TIP3    H239629   3.775   5.952   3.315  0.1290 -0.2957  1.6844
 6072TIP3   OH239630   5.773   2.742   4.297 -0.6133  0.7270  0.2734
 6072TIP3    H139631   5.858   2.699   4.304 -0.1355  1.4986 -0.5706
 6072TIP3    H239632   5.732   2.728   4.382  0.5562  0.7384  0.8602
 6073TIP3   OH239633   5.282   1.577   2.669 -0.7236  0.5984 -0.1820
 6073TIP3    H139634   5.339   1.504   2.644 -0.4020  0.2573  1.4484
 6073TIP3    H239635   5.312   1.650   2.615  0.8457  0.2538  0.1702
 6074TIP3   OH239636   4.487   0.156   1.673  0.0808  0.5307  0.7025
 6074TIP3    H139637   4.416   0.094   1.656 -0.7662  0.8577  2.7375
 6074TIP3    H239638   4.490   0.211   1.595 -0.7850 -0.5340 -0.1082
 6075TIP3   OH239639   4.810   4.232   4.685  0.2516  0.4546 -0.1025
 6075TIP3    H139640   4.763   4.149   4.676 -0.6148  0.3456  3.7661
 6075TIP3    H239641   4.776   4.271   4.765  4.5386  1.8488  1.3472
 6076TIP3   OH239642   2.138   1.995   1.538 -0.2379 -0.3484 -0.3239
 6076TIP3    H139643   2.042   1.994   1.545 -0.1679  1.8866  3.6684
 6076TIP3    H239644   2.159   2.086   1.520  1.1280 -0.1160  2.0221
 6077TIP3   OH239645   5.852   0.628  16.030 -0.2464  0.6166 -0.2946
 6077TIP3    H139646   5.813   0.541  16.034 -1.0872  1.0070  0.0612
 6077TIP3    H239647   5.793   0.684  16.079  0.7177  1.2403  0.1896
 6078TIP3   OH239648   2.401   1.499  13.242  0.2935 -0.1131  0.1714
 6078TIP3    H139649   2.406   1.475  13.334  2.0544  0.1711  0.1675
 6078TIP3    H239650   2.484   1.543  13.223 -0.3681  0.5614 -1.3489
 6079TIP3   OH239651   3.883   4.867  12.011  0.4916  0.0563  0.6930
 6079TIP3    H139652   3.820   4.914  12.066 -0.6612 -1.7546  0.9759
 6079TIP3    H239653   3.889   4.780  12.050  1.1526 -0.6533 -0.8966
 6080TIP3   OH239654   5.818   1.187   5.108 -0.2549  0.3750  0.1172
 6080TIP3    H139655   5.794   1.277   5.087  0.4762  0.4455 -0.4919
 6080TIP3    H239656   5.866   1.193   5.190 -1.5769  0.3254  0.9305
 6081TIP3   OH239657   2.455   6.808  12.055  0.1329  0.1084  0.6586
 6081TIP3    H139658   2.470   6.757  12.134 -0.0777  0.5069  0.9599
 6081TIP3    H239659   2.458   6.899  12.084  2.7444  0.3789 -0.2385
 6082TIP3   OH239660   4.578   2.743  11.948  0.0581  0.0122 -0.2028
 6082TIP3    H139661   4.546   2.653  11.937 -0.1696  0.1552 -0.7251
 6082TIP3    H239662   4.614   2.745  12.037  4.0956 -1.8211 -1.5698
 6083TIP3   OH239663   2.094   2.265  17.071  0.1511  0.1074  0.2976
 6083TIP3    H139664   2.075   2.248  16.979  0.0739 -0.7028  0.4564
 6083TIP3    H239665   2.099   2.178  17.111  1.7782  0.3725  0.7432
 6084TIP3   OH239666   4.823   0.205   1.908  0.3772  1.1868 -0.4810
 6084TIP3    H139667   4.730   0.218   1.929  0.6625 -0.2047  2.0875
 6084TIP3    H239668   4.825   0.194   1.813 -2.1999  0.5237 -0.5309
 6085TIP3   OH239669   0.073   6.027   0.839 -0.4618 -0.1847  0.0177
 6085TIP3    H139670   0.024   6.056   0.915 -0.0169 -0.4306  0.4054
 6085TIP3    H239671   0.110   5.943   0.865 -1.1840 -0.7915 -0.8522
 6086TIP3   OH239672   5.522   1.254   0.132  0.0745 -0.1991 -0.1665
 6086TIP3    H139673   5.583   1.181   0.138 -0.2309 -0.6448 -1.9853
 6086TIP3    H239674   5.534   1.289   0.044 -1.3392  0.5524 -0.0977
 6087TIP3   OH239675   6.485   3.723   0.551 -0.2620  0.1756 -0.2217
 6087TIP3    H139676   6.465   3.636   0.585 -2.2726  0.7116  0.1331
 6087TIP3    H239677   6.530   3.768   0.623 -2.3642  0.5284  0.9570
 6088TIP3   OH239678   1.346   0.138   5.612 -0.3879  0.0458 -0.4008
 6088TIP3    H139679   1.309   0.175   5.692 -0.1244  1.3892 -0.8749
 6088TIP3    H239680   1.361   0.214   5.555  0.4968 -0.7579 -1.2812
 6089TIP3   OH239681   3.924   3.440  14.568 -0.3611 -0.2840  0.3452
 6089TIP3    H139682   4.018   3.440  14.583 -0.4245  1.7485  0.9804
 6089TIP3    H239683   3.893   3.523  14.604 -2.5002 -1.1667  0.7383
 6090TIP3   OH239684   2.582   2.624  15.799  0.5743  0.1188  0.6604
 6090TIP3    H139685   2.668   2.642  15.761  0.9001 -0.5368  1.0522
 6090TIP3    H239686   2.569   2.693  15.863  1.0952 -0.1223  1.0363
 6091TIP3   OH239687   0.296   0.176  15.289 -0.2529  0.6851  0.4886
 6091TIP3    H139688   0.356   0.193  15.217  1.4291  0.5621  1.7831
 6091TIP3    H239689   0.350   0.135  15.356 -2.1341 -0.8669  1.1641
 6092TIP3   OH239690   2.942   0.413  13.246 -0.0045 -0.1836  0.5257
 6092TIP3    H139691   2.907   0.330  13.278 -1.4512 -0.9022 -2.5847
 6092TIP3    H239692   2.986   0.391  13.164  1.8274  1.7923  0.8830
 6093TIP3   OH239693   4.498   1.350  16.200 -0.3113 -0.5648  0.3862
 6093TIP3    H139694   4.516   1.265  16.240 -2.6400 -1.0515  0.5055
 6093TIP3    H239695   4.500   1.412  16.273  1.3681 -0.4724  0.3010
 6094TIP3   OH239696   2.645   5.014   4.230 -0.4592  0.1642  0.0261
 6094TIP3    H139697   2.571   4.954   4.218 -0.2018 -0.0938 -0.2986
 6094TIP3    H239698   2.638   5.043   4.321 -1.4108  0.7543 -0.2244
 6095TIP3   OH239699   2.247   3.404   2.636  0.0236 -0.3825 -0.2650
 6095TIP3    H139700   2.155   3.430   2.628 -0.1533 -0.8983  0.0140
 6095TIP3    H239701   2.243   3.314   2.670  0.5574 -1.6285 -3.2605
 6096TIP3   OH239702   5.864   3.825   3.177 -0.1410 -0.0400 -0.3181
 6096TIP3    H139703   5.824   3.818   3.091 -0.1797  0.8268 -0.3865
 6096TIP3    H239704   5.881   3.735   3.204 -0.1692 -0.3207 -1.2112
 6097TIP3   OH239705   5.697   6.736  10.819 -0.3776  0.4680 -0.2549
 6097TIP3    H139706   5.776   6.757  10.869 -0.2171 -0.8230  0.0736
 6097TIP3    H239707   5.654   6.820  10.805 -0.2733  0.9082  1.8158
 6098TIP3   OH239708   1.535   0.088  12.108  0.1340 -0.2072  0.7952
 6098TIP3    H139709   1.509   0.173  12.145  1.0191  0.8063 -0.8008
 6098TIP3    H239710   1.623   0.074  12.142  0.8430  0.5975 -0.6167
 6099TIP3   OH239711   1.346   6.710   1.499  0.2842  0.0674 -0.5359
 6099TIP3    H139712   1.311   6.776   1.439  0.1003  0.2982 -0.1805
 6099TIP3    H239713   1.423   6.675   1.454  0.2296  0.3390 -0.8440
 6100TIP3   OH239714   2.433   5.973   4.936 -0.2662  0.4085  0.1497
 6100TIP3    H139715   2.365   5.990   5.001 -2.5528  0.5171 -2.1464
 6100TIP3    H239716   2.479   6.057   4.927  0.2387  0.3307  1.7199
 6101TIP3   OH239717   5.445   3.338  11.052  0.1667 -0.3039  0.0631
 6101TIP3    H139718   5.536   3.344  11.023 -0.1839  0.6110 -0.8978
 6101TIP3    H239719   5.394   3.381  10.982 -0.8413  0.7023  1.3618
 6102TIP3   OH239720   2.400   1.611   3.199 -0.1818 -0.0435 -0.3917
 6102TIP3    H139721   2.411   1.706   3.205 -1.7195  0.1638 -0.4858
 6102TIP3    H239722   2.370   1.585   3.286  1.5290 -0.6681  0.0497
 6103TIP3   OH239723   3.300   5.553  10.403  0.6273 -0.0762  0.0908
 6103TIP3    H139724   3.348   5.559  10.320  0.0075  0.9911 -0.2158
 6103TIP3    H239725   3.217   5.512  10.379  0.7534 -0.4782  0.3347
 6104TIP3   OH239726   3.887   6.636  15.843  0.0910 -0.5128  0.2752
 6104TIP3    H139727   3.878   6.586  15.924 -0.8176 -3.3245 -1.4328
 6104TIP3    H239728   3.979   6.664  15.842 -0.2877  1.2690  3.0792
 6105TIP3   OH239729   4.445   4.426  16.718 -1.1668  0.1099  0.5175
 6105TIP3    H139730   4.437   4.483  16.642 -0.2048  0.1981  0.4719
 6105TIP3    H239731   4.369   4.447  16.772 -3.3376 -1.7685 -1.5925
 6106TIP3   OH239732   0.685   3.352   0.853  0.0651  0.1430  0.0178
 6106TIP3    H139733   0.640   3.408   0.790 -0.5964 -0.2401  0.1370
 6106TIP3    H239734   0.672   3.396   0.938 -0.6096 -0.2702  0.1374
 6107TIP3   OH239735   3.597   2.201  13.796 -0.0610  0.0100  0.0749
 6107TIP3    H139736   3.661   2.133  13.776 -0.6475 -0.8561  1.0529
 6107TIP3    H239737   3.626   2.277  13.746  2.8863  0.2818  1.9648
 6108TIP3   OH239738   5.132   5.666   5.786 -0.2496 -0.1623 -0.1443
 6108TIP3    H139739   5.210   5.610   5.789  0.2812  0.5777 -0.0498
 6108TIP3    H239740   5.065   5.611   5.744  0.3647 -0.7430 -0.3759
 6109TIP3   OH239741   0.383   3.838   2.026 -0.1675 -0.1272  0.2438
 6109TIP3    H139742   0.462   3.865   2.074  0.7520 -1.5105 -0.4512
 6109TIP3    H239743   0.350   3.762   2.074 -1.6913  1.0288  1.1144
 6110TIP3   OH239744   3.393   0.352   2.165 -0.0381  0.1663 -0.2981
 6110TIP3    H139745   3.349   0.276   2.127 -0.6218  1.2833 -2.0217
 6110TIP3    H239746   3.417   0.325   2.253  0.4029 -2.2418 -1.0856
 6111TIP3   OH239747   1.813   1.724   5.221  0.0051 -0.7876  0.2616
 6111TIP3    H139748   1.803   1.782   5.297  0.7580 -1.6423  1.0350
 6111TIP3    H239749   1.828   1.637   5.258 -1.2637 -1.5432 -0.8774
 6112TIP3   OH239750   1.889   5.077   1.287 -0.7129  0.2734  0.1539
 6112TIP3    H139751   1.895   5.110   1.197 -0.3929  2.2700  0.8760
 6112TIP3    H239752   1.886   5.155   1.342 -2.5044 -0.8829  1.8241
 6113TIP3   OH239753   5.843   3.724   2.438 -0.2687 -0.1546 -0.4041
 6113TIP3    H139754   5.782   3.691   2.504 -1.3198  0.1728 -1.1803
 6113TIP3    H239755   5.856   3.651   2.378 -1.6698  0.4093 -1.4632
 6114TIP3   OH239756   5.861   5.115   1.671 -0.1179  0.2132 -0.2452
 6114TIP3    H139757   5.859   5.021   1.685 -1.0559  0.1863 -0.5457
 6114TIP3    H239758   5.925   5.147   1.735  0.6002 -0.6772 -0.4912
 6115TIP3   OH239759   5.657   6.818   1.828 -0.5294 -0.2422 -0.0093
 6115TIP3    H139760   5.611   6.870   1.894  0.1297 -0.2014  0.4235
 6115TIP3    H239761   5.607   6.737   1.821 -0.0575 -0.6512  1.2409
 6116TIP3   OH239762   1.972   6.715  14.131 -0.0559  0.1284 -0.0507
 6116TIP3    H139763   2.018   6.796  14.151 -1.0356  1.2595 -2.0774
 6116TIP3    H239764   2.035   6.663  14.081  0.0475  0.3184 -0.1168
 6117TIP3   OH239765   4.635   1.865   1.197 -0.6355  0.8461 -0.1870
 6117TIP3    H139766   4.626   1.949   1.153 -1.6834 -0.0831 -1.8609
 6117TIP3    H239767   4.631   1.800   1.126 -0.1525 -0.6309  1.0785
 6118TIP3   OH239768   5.363   0.325   4.752 -0.2497  0.1984 -0.2026
 6118TIP3    H139769   5.357   0.421   4.755 -1.6472  0.1344 -0.4941
 6118TIP3    H239770   5.323   0.296   4.833  1.5100 -0.1209  0.5908
 6119TIP3   OH239771   1.237   3.500  16.155  0.1953 -0.1409 -0.0401
 6119TIP3    H139772   1.160   3.557  16.155 -0.6455 -1.2290 -0.2354
 6119TIP3    H239773   1.271   3.505  16.244  0.4841  1.0943 -0.2096
 6120TIP3   OH239774   5.297   4.287   4.579  0.5168  0.0839 -0.8612
 6120TIP3    H139775   5.329   4.251   4.497 -0.5764  1.3145 -1.8610
 6120TIP3    H239776   5.255   4.369   4.555 -0.3416  0.1948  0.8569
 6121TIP3   OH239777   1.156   2.677   2.988 -0.9564  0.2908 -0.0761
 6121TIP3    H139778   1.182   2.681   3.080 -0.7339 -0.4433 -0.1036
 6121TIP3    H239779   1.196   2.597   2.955 -1.7688  0.0801 -0.5824
 6122TIP3   OH239780   2.981   3.796  15.914  0.0267  0.0815 -0.5988
 6122TIP3    H139781   3.062   3.793  15.965 -0.2326  1.0230 -0.1024
 6122TIP3    H239782   2.931   3.719  15.944  0.7657 -0.5624 -0.9881
 6123TIP3   OH239783   1.399   0.679   4.522  0.2953 -0.1468  0.2729
 6123TIP3    H139784   1.341   0.691   4.596  1.3146  1.9405  0.8103
 6123TIP3    H239785   1.477   0.636   4.559  0.2737 -0.3050  0.1380
 6124TIP3   OH239786   5.155   5.833   4.571 -0.8116 -0.0902  0.0428
 6124TIP3    H139787   5.129   5.812   4.481  1.2101  1.8853 -1.0909
 6124TIP3    H239788   5.164   5.928   4.571  0.3298 -0.1609  2.0327
 6125TIP3   OH239789   3.038   2.401   3.193  0.2419  0.2069 -0.3157
 6125TIP3    H139790   3.028   2.484   3.239  0.4688  0.5095 -0.8048
 6125TIP3    H239791   2.966   2.347   3.225  0.0533  0.6167 -0.0433
 6126TIP3   OH239792   5.334   2.735   2.970 -0.1165  0.7858 -0.0165
 6126TIP3    H139793   5.298   2.798   2.907  1.2813  0.3205 -1.3482
 6126TIP3    H239794   5.404   2.784   3.014 -2.3011  1.7560  2.7055
 6127TIP3   OH239795   1.859   1.326   4.301  0.5119  0.2282  0.0566
 6127TIP3    H139796   1.812   1.350   4.221 -1.5169 -1.2126  0.7402
 6127TIP3    H239797   1.914   1.252   4.275  0.4257  0.2357 -0.1440
 6128TIP3   OH239798   6.241   3.243  12.648 -0.6040  0.6160  0.4626
 6128TIP3    H139799   6.229   3.240  12.553  0.4106  0.9419  0.3115
 6128TIP3    H239800   6.221   3.155  12.678  0.1450  0.2123 -0.1997
 6129TIP3   OH239801   2.221   4.913  12.691 -0.2270 -0.0387  0.3735
 6129TIP3    H139802   2.267   4.848  12.639  0.9836  0.1919  1.1188
 6129TIP3    H239803   2.177   4.863  12.760  0.9066 -0.0610  1.0939
 6130TIP3   OH239804   2.055   1.931   1.806  0.1524 -0.6813  0.8292
 6130TIP3    H139805   1.978   1.987   1.802 -1.3041 -2.6021  0.9172
 6130TIP3    H239806   2.033   1.854   1.754  2.1836 -1.1118  0.5063
 6131TIP3   OH239807   2.369   6.048   0.910  0.0968 -0.1845  0.2306
 6131TIP3    H139808   2.432   5.981   0.935 -0.3374 -0.6412  0.1042
 6131TIP3    H239809   2.284   6.003   0.908 -0.8444  1.0977  3.6317
 6132TIP3   OH239810   0.055   4.835   4.049  0.0373 -0.0621  0.3767
 6132TIP3    H139811  -0.015   4.897   4.027  1.3491  1.7838  1.1006
 6132TIP3    H239812   0.073   4.852   4.142  2.1575  0.3334 -0.0542
 6133TIP3   OH239813   5.625   0.081   5.823 -0.5348 -0.1837 -0.0228
 6133TIP3    H139814   5.621   0.063   5.729 -1.8386  1.3864 -0.3180
 6133TIP3    H239815   5.711   0.123   5.834  0.2736 -1.7000 -0.2047
 6134TIP3   OH239816   3.633   4.005  16.358 -0.5249 -0.6956  0.3524
 6134TIP3    H139817   3.600   3.954  16.284  0.1494 -0.5843 -0.0347
 6134TIP3    H239818   3.569   4.075  16.369 -0.0530 -0.0183 -0.8946
 6135TIP3   OH239819   6.246   1.917   1.256 -0.1445  0.6488 -0.2551
 6135TIP3    H139820   6.323   1.957   1.217  2.7085 -1.4445  2.7603
 6135TIP3    H239821   6.189   1.991   1.279  2.1899  2.5228 -0.1403
 6136TIP3   OH239822   6.393   4.113   5.132 -0.3792  0.0499 -0.3576
 6136TIP3    H139823   6.346   4.070   5.061 -1.1794 -0.5820  0.5279
 6136TIP3    H239824   6.422   4.196   5.095  0.1019 -0.6961 -1.7207
 6137TIP3   OH239825   6.651   1.206   1.596  0.5486 -0.0487 -0.5322
 6137TIP3    H139826   6.739   1.180   1.569  1.1088 -0.3981  1.5018
 6137TIP3    H239827   6.664   1.288   1.645  0.1035 -1.3062  1.8250
 6138TIP3   OH239828   2.219   2.303  14.921  0.1645 -0.7310 -0.3695
 6138TIP3    H139829   2.188   2.381  14.967  3.5372 -0.2120  1.3758
 6138TIP3    H239830   2.271   2.338  14.848 -0.0802 -1.4245 -0.8837
 6139TIP3   OH239831   2.842   3.642  13.962  0.0490  0.5696  0.1083
 6139TIP3    H139832   2.763   3.599  13.930 -0.3798  1.3276  0.1056
 6139TIP3    H239833   2.909   3.574  13.963 -0.5195  0.0002 -0.2167
 6140TIP3   OH239834   3.097   2.213  14.500 -0.5685 -0.3155  0.0599
 6140TIP3    H139835   3.180   2.256  14.479 -0.6617 -0.1800 -0.0324
 6140TIP3    H239836   3.101   2.130  14.454 -0.6766 -0.1152 -0.3161
 6141TIP3   OH239837   0.574   6.579   2.583 -0.2691  0.2649 -0.2658
 6141TIP3    H139838   0.642   6.518   2.554 -0.0953 -0.1733  0.9973
 6141TIP3    H239839   0.529   6.604   2.503 -0.0161 -1.1250 -0.8739
 6142TIP3   OH239840   0.199   3.979  15.759 -0.3950  0.2943  0.1499
 6142TIP3    H139841   0.152   4.043  15.812 -1.7373 -1.0571  0.6940
 6142TIP3    H239842   0.291   4.004  15.766 -0.5842  0.6078  2.5632
 6143TIP3   OH239843   3.423   4.855  15.056  0.0892 -0.0803  0.0282
 6143TIP3    H139844   3.433   4.937  15.103 -3.4928  1.2695 -1.2690
 6143TIP3    H239845   3.406   4.880  14.966  2.6353 -2.4739 -1.2855
 6144TIP3   OH239846   0.980   5.467   1.376 -0.3525  0.8712  0.8392
 6144TIP3    H139847   1.064   5.482   1.332  0.4078 -1.1496  1.5028
 6144TIP3    H239848   0.964   5.548   1.425 -0.0870  2.2749 -1.2232
 6145TIP3   OH239849   5.685   4.893  14.482 -0.6652  0.0766 -0.2220
 6145TIP3    H139850   5.658   4.805  14.457 -4.4190  0.9316  0.1941
 6145TIP3    H239851   5.692   4.891  14.577  1.8980 -0.3003 -0.3391
 6146TIP3   OH239852   4.928   1.900   1.333  0.1396  0.2992  0.4412
 6146TIP3    H139853   5.005   1.855   1.298 -0.0439 -1.1045  1.7383
 6146TIP3    H239854   4.854   1.858   1.289 -0.0103 -0.3472  1.2932
 6147TIP3   OH239855   6.460   3.914   0.349  0.3400 -0.2417 -0.3330
 6147TIP3    H139856   6.531   3.953   0.401  1.3021  0.8167 -2.3256
 6147TIP3    H239857   6.441   3.831   0.393  1.2120  0.5097  1.5834
 6148TIP3   OH239858   0.469   3.108  14.480 -0.0730 -0.1781  0.2658
 6148TIP3    H139859   0.423   3.140  14.402  1.5564 -2.3755 -1.7462
 6148TIP3    H239860   0.411   3.041  14.516 -0.0182 -0.4618 -0.1647
 6149TIP3   OH239861   2.937   4.987   4.773 -0.1645 -0.0826  0.2534
 6149TIP3    H139862   2.928   4.900   4.811 -1.6448 -0.0326  0.0964
 6149TIP3    H239863   3.026   5.014   4.794 -0.1456 -1.0626  1.5320
 6150TIP3   OH239864   4.483   5.266  12.181  0.3186  0.2267  0.1284
 6150TIP3    H139865   4.454   5.208  12.252 -0.7618  0.7231  0.1154
 6150TIP3    H239866   4.425   5.341  12.187  0.3996  0.4073 -1.1104
 6151TIP3   OH239867   1.497   1.011   4.028  0.6046  0.0447 -0.6376
 6151TIP3    H139868   1.499   1.015   4.124 -0.5505  0.6072 -0.6180
 6151TIP3    H239869   1.562   0.944   4.006  1.8252  0.7993  0.4661
 6152TIP3   OH239870   5.754   6.147  13.597  0.4420  0.5724  0.5281
 6152TIP3    H139871   5.694   6.074  13.607  0.3281  0.2963 -1.6489
 6152TIP3    H239872   5.705   6.211  13.546 -0.2615  3.2393  4.1280
 6153TIP3   OH239873   5.669   4.345   3.390 -0.0870 -0.5194 -0.2834
 6153TIP3    H139874   5.582   4.384   3.386 -0.0207 -0.1031  1.4383
 6153TIP3    H239875   5.688   4.319   3.300 -0.4044  2.7918 -1.4207
 6154TIP3   OH239876   0.741   5.396  13.328 -0.6096  0.1091  0.1281
 6154TIP3    H139877   0.753   5.452  13.251 -1.7696  0.5963  0.2734
 6154TIP3    H239878   0.745   5.307  13.295 -1.0874  0.3178 -0.5125
 6155TIP3   OH239879   2.061   0.316  13.474  0.6501  0.1075 -0.3022
 6155TIP3    H139880   2.042   0.325  13.567 -0.1834  1.4245 -0.5802
 6155TIP3    H239881   2.145   0.361  13.462  0.7840 -0.1084 -0.1950
 6156TIP3   OH239882   2.056   2.584   1.315 -0.0647  0.7217 -0.3504
 6156TIP3    H139883   2.071   2.532   1.236 -0.6643  0.1840 -0.1202
 6156TIP3    H239884   1.964   2.567   1.338 -0.1457  1.5556 -0.0331
 6157TIP3   OH239885   3.984   4.441   5.930  0.1092 -0.1313 -0.6630
 6157TIP3    H139886   4.062   4.408   5.974 -0.0324 -0.4239 -0.6319
 6157TIP3    H239887   3.949   4.506   5.991 -1.0497 -1.7432  0.4669
 6158TIP3   OH239888   2.539   2.282   1.461 -0.1730  0.3604 -0.0771
 6158TIP3    H139889   2.476   2.350   1.436 -1.1039 -0.5420 -0.2438
 6158TIP3    H239890   2.531   2.275   1.556 -1.4825 -0.8331 -0.2513
 6159TIP3   OH239891   4.052   5.860   4.264  0.3753 -0.2005  0.6104
 6159TIP3    H139892   4.013   5.902   4.340  0.4143  1.6605 -0.3370
 6159TIP3    H239893   4.005   5.897   4.189  1.4542 -0.7136 -0.3572
 6160TIP3   OH239894   3.818   3.356  11.949  0.0798  0.6810 -0.0695
 6160TIP3    H139895   3.896   3.326  11.901 -0.5703  1.2252 -1.5275
 6160TIP3    H239896   3.800   3.443  11.914  0.5360  1.8636  2.3989
 6161TIP3   OH239897   4.588   5.026  16.129 -0.0417  0.1332  0.0626
 6161TIP3    H139898   4.644   5.102  16.143  0.2537 -0.1900  0.6622
 6161TIP3    H239899   4.609   4.967  16.201  0.1302 -0.7520 -0.6945
 6162TIP3   OH239900   2.825   0.655  13.241  0.4670  0.5149  0.0850
 6162TIP3    H139901   2.761   0.586  13.226  0.4306  0.3123  1.0751
 6162TIP3    H239902   2.904   0.626  13.195  0.6126 -0.4475  0.9032
 6163TIP3   OH239903   3.734   3.244   4.540  0.4329  0.6008  0.5039
 6163TIP3    H139904   3.772   3.321   4.498  0.7687  0.9688  1.4434
 6163TIP3    H239905   3.778   3.240   4.625  0.8198 -0.9461  0.2685
 6164TIP3   OH239906   5.229   6.629   0.298  0.2672 -0.1908  0.1369
 6164TIP3    H139907   5.299   6.573   0.266 -1.1860 -1.5427 -0.8372
 6164TIP3    H239908   5.272   6.689   0.359  1.9969 -1.9661  0.7722
 6165TIP3   OH239909   2.595   4.816   4.596 -0.8647 -0.2176 -0.1698
 6165TIP3    H139910   2.591   4.768   4.678 -1.0192  2.7121  1.6919
 6165TIP3    H239911   2.686   4.844   4.588 -1.1151  0.5997 -0.2900
 6166TIP3   OH239912   5.871   3.086  11.188 -0.6323  0.2283 -0.7433
 6166TIP3    H139913   5.864   3.004  11.236 -0.6929  0.4583 -0.3499
 6166TIP3    H239914   5.882   3.060  11.096  0.0458 -0.2261 -0.5424
 6167TIP3   OH239915   6.818   5.430  11.931 -0.1997 -0.1889  0.4398
 6167TIP3    H139916   6.792   5.450  12.021 -0.8373 -1.4850  0.5763
 6167TIP3    H239917   6.842   5.514  11.893 -3.2626  0.9326  0.7499
 6168TIP3   OH239918   2.633   5.345  14.877  0.0817  0.3055 -0.2947
 6168TIP3    H139919   2.697   5.393  14.824 -1.0825  2.3400  0.0253
 6168TIP3    H239920   2.575   5.413  14.911 -0.6315 -1.1911  1.6511
 6169TIP3   OH239921   4.723   0.071   2.542  1.0642  0.2919 -0.4755
 6169TIP3    H139922   4.724   0.030   2.456 -0.0539 -1.2268  0.1912
 6169TIP3    H239923   4.634   0.102   2.553  0.7072 -1.0788  0.7949
 6170TIP3   OH239924   5.984   1.564   2.460 -0.3207 -0.2357  0.1705
 6170TIP3    H139925   5.944   1.615   2.530  1.3199 -0.2074  1.1460
 6170TIP3    H239926   6.069   1.537   2.495  0.7783  0.1972 -1.9723
 6171TIP3   OH239927   2.890   3.962   5.086  0.2624  0.2681 -0.2428
 6171TIP3    H139928   2.797   3.977   5.072  0.4058  2.3308  0.6768
 6171TIP3    H239929   2.897   3.938   5.178  0.7690  1.7597  0.1291
 6172TIP3   OH239930   0.935   6.799   3.712 -0.3195 -0.0343  0.0754
 6172TIP3    H139931   0.933   6.881   3.663 -1.4980 -0.5241 -0.7324
 6172TIP3    H239932   1.025   6.793   3.744  1.2127 -0.7282 -3.8335
 6173TIP3   OH239933   3.226   6.274  15.527  0.2678  0.4750  0.1713
 6173TIP3    H139934   3.314   6.298  15.500 -0.2490  0.7115 -1.3935
 6173TIP3    H239935   3.201   6.202  15.468  0.6594 -2.0191  2.7897
 6174TIP3   OH239936   0.413   1.771  11.228 -0.3388  0.3602  0.6860
 6174TIP3    H139937   0.403   1.855  11.185 -0.4876  0.8534  1.6639
 6174TIP3    H239938   0.386   1.786  11.318 -0.1941 -0.6898  0.9231
 6175TIP3   OH239939   5.769   4.634  15.373  0.1179 -0.0357 -0.3797
 6175TIP3    H139940   5.726   4.694  15.312  0.5681  2.2137  1.3975
 6175TIP3    H239941   5.702   4.612  15.436  0.8242  1.5156  0.9901
 6176TIP3   OH239942   0.596   1.349   1.379  0.9131  0.1558 -0.0622
 6176TIP3    H139943   0.579   1.303   1.462 -1.6896  2.4814  0.8350
 6176TIP3    H239944   0.578   1.284   1.312 -1.8733 -0.5170  1.1647
 6177TIP3   OH239945   1.474   1.787  14.459 -0.3852 -0.0598 -0.0180
 6177TIP3    H139946   1.532   1.728  14.411 -1.1405  0.3134 -1.4572
 6177TIP3    H239947   1.397   1.734  14.478 -0.3423 -0.0295  0.2421
 6178TIP3   OH239948   5.422   3.589   5.279  0.0927 -0.5115 -0.7078
 6178TIP3    H139949   5.512   3.556   5.287 -0.2849 -1.8492 -1.5402
 6178TIP3    H239950   5.431   3.674   5.237  0.9777 -0.5848 -0.6877
 6179TIP3   OH239951   4.589   1.355   2.500  0.9234 -0.3003  0.1618
 6179TIP3    H139952   4.545   1.350   2.415 -0.4068 -0.2503  0.8069
 6179TIP3    H239953   4.617   1.266   2.517  1.9602 -0.1542 -0.6970
 6180TIP3   OH239954   1.323   5.622  16.613  0.6910  0.0821  0.0646
 6180TIP3    H139955   1.331   5.696  16.553 -0.5935  1.2601  1.2917
 6180TIP3    H239956   1.278   5.554  16.563 -1.6511  1.5521  0.0451
 6181TIP3   OH239957   2.578   5.539   0.804  0.6050 -0.4122  0.6602
 6181TIP3    H139958   2.504   5.526   0.745  1.2544 -0.1658 -0.2141
 6181TIP3    H239959   2.537   5.559   0.889 -0.3707 -2.3142  0.7173
 6182TIP3   OH239960   4.900   4.244  14.614  0.0043 -0.2938  0.3593
 6182TIP3    H139961   4.994   4.260  14.606 -0.1641 -0.0367 -1.5424
 6182TIP3    H239962   4.865   4.325  14.653  0.3221  0.5125 -0.9524
 6183TIP3   OH239963   1.880   6.261  13.808 -0.0684 -0.1427 -0.1040
 6183TIP3    H139964   1.847   6.182  13.767 -0.5919  0.8540 -1.7160
 6183TIP3    H239965   1.970   6.270  13.775 -0.3374  0.4188 -0.7264
 6184TIP3   OH239966   0.012   3.336  12.863  0.4959  0.2845 -0.4128
 6184TIP3    H139967  -0.051   3.265  12.851  1.9496 -0.9826 -0.8678
 6184TIP3    H239968  -0.036   3.402  12.913 -0.2685 -1.9265  1.9776
 6185TIP3   OH239969   4.672   1.635   5.085 -0.2281 -0.2854 -0.1423
 6185TIP3    H139970   4.656   1.561   5.027  0.1093  0.0027 -0.6066
 6185TIP3    H239971   4.668   1.712   5.028  1.4769 -0.0952 -0.0593
 6186TIP3   OH239972   5.048   2.389   0.160 -0.0169 -0.2783 -0.3025
 6186TIP3    H139973   5.124   2.333   0.146  0.0086 -0.0363 -1.1210
 6186TIP3    H239974   5.082   2.464   0.208 -0.0058 -0.8332  0.5856
 6187TIP3   OH239975   6.734   3.987  13.842 -0.3610  0.1387 -0.2915
 6187TIP3    H139976   6.789   3.962  13.916  1.5972 -0.0218 -1.7234
 6187TIP3    H239977   6.757   4.079  13.825 -2.6581  1.0034  0.8035
 6188TIP3   OH239978   2.064   1.816  13.418  0.1983 -0.4208  0.2964
 6188TIP3    H139979   2.032   1.903  13.398  0.3285 -0.7423 -1.4972
 6188TIP3    H239980   2.107   1.825  13.503 -0.5022  1.0536  0.5282
 6189TIP3   OH239981   5.691   0.611  12.327  0.1948 -0.5534  0.0720
 6189TIP3    H139982   5.699   0.559  12.247  1.1518 -0.9298  0.3971
 6189TIP3    H239983   5.775   0.599  12.371 -0.0418  0.2701  0.7609
 6190TIP3   OH239984   1.634   5.903   6.406 -0.1084 -0.2087  0.3924
 6190TIP3    H139985   1.548   5.944   6.406 -0.6895 -1.3476 -1.1160
 6190TIP3    H239986   1.633   5.843   6.331  1.4529 -1.3929  1.2514
 6191TIP3   OH239987   6.634   0.104  13.691 -0.2931 -0.1167 -0.3808
 6191TIP3    H139988   6.699   0.147  13.745 -0.4961 -0.2736 -0.0083
 6191TIP3    H239989   6.601   0.032  13.745  0.3254 -0.9956 -1.1319
 6192TIP3   OH239990   4.613   0.058  15.694 -0.2555  0.1650 -0.1495
 6192TIP3    H139991   4.553   0.133  15.693 -0.5833 -0.0247  1.4243
 6192TIP3    H239992   4.684   0.082  15.635 -0.8753  1.2722 -0.4708
 6193TIP3   OH239993   5.193   5.428   5.553  0.9513 -0.2136 -0.5740
 6193TIP3    H139994   5.225   5.340   5.534  2.1720  0.0112  0.2829
 6193TIP3    H239995   5.133   5.448   5.481  2.4878 -0.8065 -2.0932
 6194TIP3   OH239996   2.605   2.915   3.127  0.0053 -0.0575  0.0255
 6194TIP3    H139997   2.548   2.985   3.158  1.9713  1.9863 -0.6318
 6194TIP3    H239998   2.659   2.892   3.202  1.2992  1.2523 -0.4509
 6195TIP3   OH239999   6.259   2.120   5.271 -0.2768  0.0606  0.5522
 6195TIP3    H140000   6.286   2.065   5.197 -2.8471 -0.6685  0.0646
 6195TIP3    H240001   6.309   2.085   5.346 -0.4539 -1.7266 -0.1142
 6196TIP3   OH240002   6.009   4.035  14.802 -0.0108  0.2470  0.4787
 6196TIP3    H140003   6.040   4.082  14.880  1.7102  0.1199 -0.0833
 6196TIP3    H240004   5.940   3.978  14.835 -0.5376  1.4698  1.5908
 6197TIP3   OH240005   0.714   6.419  16.953  0.8120 -0.2526 -0.5728
 6197TIP3    H140006   0.759   6.502  16.941 -0.4301  0.5513  0.0334
 6197TIP3    H240007   0.699   6.413  17.048  0.9095 -1.1862 -0.5985
 6198TIP3   OH240008   3.469   6.034   3.878 -0.5653  0.0467  0.7936
 6198TIP3    H140009   3.535   6.102   3.892  0.2121 -0.4883 -0.1424
 6198TIP3    H240010   3.448   6.041   3.785 -2.4014  0.7026  1.2196
 6199TIP3   OH240011   3.355   4.919  12.432 -0.1483  0.5146  0.5037
 6199TIP3    H140012   3.334   4.848  12.492 -0.2343  1.1272  1.2071
 6199TIP3    H240013   3.414   4.976  12.481 -0.1290  0.9673 -0.0279
 6200TIP3   OH240014   5.232   5.583  14.493 -0.6439 -0.0848  0.5709
 6200TIP3    H140015   5.139   5.602  14.505 -0.7743  0.3160 -0.8827
 6200TIP3    H240016   5.261   5.644  14.426  0.6857 -0.1989  1.0080
 6201TIP3   OH240017   3.314   6.515  16.069 -0.0837 -0.0107  0.1447
 6201TIP3    H140018   3.410   6.508  16.065  0.0148  1.6040 -2.2301
 6201TIP3    H240019   3.297   6.554  16.155  1.4340  0.0378  0.4609
 6202TIP3   OH240020   0.377   2.770  13.005 -0.1132 -0.6897  0.0139
 6202TIP3    H140021   0.283   2.765  12.986 -0.2965  0.9474  0.2829
 6202TIP3    H240022   0.411   2.833  12.940  0.5978 -0.5093  0.5445
 6203TIP3   OH240023   5.719   4.461  15.155  0.0620 -0.3652 -0.0302
 6203TIP3    H140024   5.732   4.530  15.220  0.0743  1.0089 -1.4204
 6203TIP3    H240025   5.807   4.436  15.127  0.0645  1.1480 -1.5692
 6204TIP3   OH240026   5.686   1.218   6.299  0.5196  0.3075 -0.0725
 6204TIP3    H140027   5.660   1.167   6.376 -0.8328  2.2053  0.8247
 6204TIP3    H240028   5.731   1.156   6.243 -0.3749 -1.6719  1.2791
 6205TIP3   OH240029   0.819   6.560  14.834 -0.0375  0.3174 -0.3363
 6205TIP3    H140030   0.772   6.492  14.786 -1.4575  0.3147  0.9814
 6205TIP3    H240031   0.831   6.522  14.922 -2.2895  2.3053  0.9428
 6206TIP3   OH240032   5.193   3.076  13.650  0.1429  0.3746 -0.0376
 6206TIP3    H140033   5.177   3.099  13.558  1.3881  1.0451 -0.1017
 6206TIP3    H240034   5.261   3.009  13.646 -3.1751 -3.3784  0.1595
 6207TIP3   OH240035   2.062   1.884   4.435 -0.3903 -0.1618  0.2428
 6207TIP3    H140036   2.158   1.885   4.435 -0.2869  3.1309 -1.5475
 6207TIP3    H240037   2.038   1.926   4.517 -0.1006  1.8601 -0.6271
 6208TIP3   OH240038   5.433   5.191  13.822  0.2898 -0.1642  0.4300
 6208TIP3    H140039   5.491   5.174  13.897  0.5079 -0.0477  0.2889
 6208TIP3    H240040   5.377   5.113  13.817 -0.3749  0.2432  1.3014
 6209TIP3   OH240041   5.414   2.268  12.845  0.2211  0.1326 -0.6616
 6209TIP3    H140042   5.343   2.204  12.839 -0.9232  1.1998  0.8188
 6209TIP3    H240043   5.421   2.288  12.939  0.8099  1.8830 -1.0420
 6210TIP3   OH240044   2.862   2.395   1.082 -0.3035  0.8104  0.0973
 6210TIP3    H140045   2.801   2.344   1.028 -1.9242  2.8909 -0.1879
 6210TIP3    H240046   2.924   2.330   1.116 -1.0248 -1.0203 -1.8137
 6211TIP3   OH240047   1.918   2.042  14.304  0.3231  0.3056 -0.3467
 6211TIP3    H140048   1.925   2.083  14.218  1.1007  0.7309 -0.0924
 6211TIP3    H240049   1.847   2.088  14.348 -2.2964 -2.0011 -1.8728
 6212TIP3   OH240050   4.290   5.113  15.241 -0.7188  0.0667 -0.3859
 6212TIP3    H140051   4.217   5.145  15.295 -0.9421 -1.6855  0.4232
 6212TIP3    H240052   4.300   5.021  15.267  3.0427  0.6834  0.9602
 6213TIP3   OH240053   5.250   1.407  17.040  0.4938  0.0241  0.2930
 6213TIP3    H140054   5.189   1.344  17.078  1.2942  0.4572  2.4654
 6213TIP3    H240055   5.242   1.395  16.946 -2.8825  0.0145  0.4510
 6214TIP3   OH240056   2.804   1.344   0.671 -0.0998  0.2250  0.0278
 6214TIP3    H140057   2.875   1.402   0.698  1.0796 -2.2378  2.7468
 6214TIP3    H240058   2.724   1.391   0.694  0.5941  2.3548 -1.5852
 6215TIP3   OH240059   3.925   5.911  11.938  0.1355  0.0625 -0.2309
 6215TIP3    H140060   3.992   5.949  11.881  0.6921 -0.3689  0.1160
 6215TIP3    H240061   3.973   5.885  12.017 -0.5496  0.2812  0.2712
 6216TIP3   OH240062   4.199   2.739  16.384  0.2247 -0.3636  0.0327
 6216TIP3    H140063   4.270   2.703  16.331  0.0793  0.8766 -1.0624
 6216TIP3    H240064   4.122   2.735  16.328 -0.1079  0.2646  0.4241
 6217TIP3   OH240065   5.049   4.074  15.391 -0.1642  0.3285  0.3218
 6217TIP3    H140066   4.990   4.085  15.317  1.6755  1.5410 -1.0636
 6217TIP3    H240067   5.098   4.157  15.396  0.9466 -0.3518  1.8200
 6218TIP3   OH240068   4.978   5.555   5.397  0.0745 -0.3501  0.4106
 6218TIP3    H140069   4.957   5.645   5.423 -2.8419 -0.8244 -0.0231
 6218TIP3    H240070   5.003   5.563   5.304  1.6520  0.1732  0.8351
 6219TIP3   OH240071   3.123   4.819  16.234 -0.0518 -0.6236  0.3916
 6219TIP3    H140072   3.093   4.731  16.209 -1.8854 -0.0956  0.5614
 6219TIP3    H240073   3.109   4.872  16.156 -1.6338  0.0866  1.1137
 6220TIP3   OH240074   1.795   3.540  15.447 -0.2189  0.2486  0.3649
 6220TIP3    H140075   1.807   3.623  15.400 -1.2228  0.6968  0.8600
 6220TIP3    H240076   1.785   3.567  15.539  0.3749 -0.5022  0.6533
 6221TIP3   OH240077   2.354   0.674  14.035 -0.3375 -0.3261 -0.0468
 6221TIP3    H140078   2.275   0.728  14.031 -0.1682  0.0991  1.4178
 6221TIP3    H240079   2.388   0.675  13.946 -2.6736 -1.6157 -1.0541
 6222TIP3   OH240080   0.469   6.266  11.076 -0.8292 -0.4210 -0.0922
 6222TIP3    H140081   0.422   6.221  11.147 -0.1383  0.4271  0.9380
 6222TIP3    H240082   0.474   6.201  11.006  0.6899 -2.2133  1.5743
 6223TIP3   OH240083   0.828   0.113  11.989  0.3601  0.0750  0.6462
 6223TIP3    H140084   0.789   0.163  11.917  0.5524 -1.4085 -0.5429
 6223TIP3    H240085   0.842   0.177  12.059 -1.9247  1.1464  0.2182
 6224TIP3   OH240086   0.474   1.043  16.424  0.6834 -0.2555 -0.0127
 6224TIP3    H140087   0.399   1.102  16.432  1.5023  0.8604 -0.3228
 6224TIP3    H240088   0.477   0.997  16.508 -0.7965 -0.8858 -0.2865
 6225TIP3   OH240089   6.762   4.967  15.978  0.3341  0.5915  0.0850
 6225TIP3    H140090   6.669   4.991  15.978  0.5370  1.3925 -0.6311
 6225TIP3    H240091   6.805   5.037  16.027  0.4413 -0.3122  1.3238
 6226TIP3   OH240092   3.240   4.493   5.948 -0.0767 -0.1092 -0.7186
 6226TIP3    H140093   3.178   4.564   5.931 -1.2758 -0.6206  1.2031
 6226TIP3    H240094   3.288   4.521   6.026  0.4415 -0.7671 -0.7927
 6227TIP3   OH240095   2.389   0.017   2.250 -0.3763 -0.8436 -0.3874
 6227TIP3    H140096   2.346  -0.015   2.171 -1.5271  2.7421 -1.4259
 6227TIP3    H240097   2.320   0.021   2.316  0.1370 -1.9831  0.2443
 6228TIP3   OH240098   4.612   0.501   6.068 -0.1375  0.1326  0.0664
 6228TIP3    H140099   4.648   0.556   6.137 -1.1950  1.4404 -0.3920
 6228TIP3    H240100   4.569   0.429   6.114  1.4985 -0.5067  0.6628
 6229TIP3   OH240101   2.862   3.723   2.457  0.1766 -0.6599 -0.2882
 6229TIP3    H140102   2.768   3.741   2.457  0.3163  0.2863  1.3574
 6229TIP3    H240103   2.884   3.709   2.365 -2.0666 -3.8053 -0.5054
 6230TIP3   OH240104   0.011   1.417  14.438 -0.7202  0.0504  0.3243
 6230TIP3    H140105   0.089   1.470  14.427 -0.6283 -0.3729 -1.2368
 6230TIP3    H240106   0.039   1.327  14.420 -2.0892  0.1876 -3.4586
 6231TIP3   OH240107   0.047   3.326  13.197 -0.2438 -0.0905 -0.1640
 6231TIP3    H140108   0.015   3.416  13.190 -1.7220 -0.6283 -0.7571
 6231TIP3    H240109   0.125   3.324  13.140 -1.1270  0.4325 -1.4521
 6232TIP3   OH240110   6.628   6.610  11.164 -0.2587  0.2511 -0.2805
 6232TIP3    H140111   6.692   6.680  11.170  0.8885 -0.8757  2.3976
 6232TIP3    H240112   6.548   6.646  11.203  0.5505 -0.0488  1.8097
 6233TIP3   OH240113   2.789   1.385  14.262  0.2166 -0.5014  0.3803
 6233TIP3    H140114   2.772   1.292  14.247 -0.4889 -0.1817 -0.9562
 6233TIP3    H240115   2.796   1.423  14.174  0.8964  0.6408  0.9044
 6234TIP3   OH240116   4.180   0.513  10.737  0.2962  0.2811  0.1353
 6234TIP3    H140117   4.129   0.440  10.701 -0.4295 -0.6283  2.7419
 6234TIP3    H240118   4.261   0.514  10.686 -0.1366 -1.6674 -0.6802
 6235TIP3   OH240119   3.701   0.074  14.673  0.7058  0.5874 -0.2731
 6235TIP3    H140120   3.774   0.014  14.662  0.1622 -0.1758  0.1478
 6235TIP3    H240121   3.628   0.033  14.627  0.6683  1.6058 -1.1612
 6236TIP3   OH240122   4.237   5.233   1.572  0.0047 -0.0889  0.0254
 6236TIP3    H140123   4.309   5.236   1.634  0.2277 -1.4440 -0.1379
 6236TIP3    H240124   4.169   5.183   1.616 -1.0855  1.6019  0.3820
 6237TIP3   OH240125   0.173   0.947  13.458 -0.6415 -0.1878  0.3228
 6237TIP3    H140126   0.238   0.999  13.412 -1.7466  1.7280  0.7866
 6237TIP3    H240127   0.109   0.924  13.391 -0.3315 -0.6437  0.1835
 6238TIP3   OH240128   0.486   6.128  14.939 -0.5570  0.4663 -0.0097
 6238TIP3    H140129   0.416   6.170  14.988  0.2715  2.3728 -0.3762
 6238TIP3    H240130   0.564   6.179  14.961  0.1823  0.1707 -1.8178
 6239TIP3   OH240131   2.586   5.935  13.396  0.0986 -0.3692  0.3130
 6239TIP3    H140132   2.644   6.011  13.395  1.0860 -1.0935 -1.8156
 6239TIP3    H240133   2.515   5.958  13.335  0.2689 -1.0427 -0.1466
 6240TIP3   OH240134   1.473   0.878  16.469 -0.1555 -0.0380 -0.2226
 6240TIP3    H140135   1.499   0.902  16.558  1.5122  0.3515 -0.7747
 6240TIP3    H240136   1.538   0.813  16.442  0.1742  0.8350 -1.6194
 6241TIP3   OH240137   5.971   2.476   2.679 -0.3194  0.8594 -0.0858
 6241TIP3    H140138   6.045   2.418   2.696  0.4251  1.0672 -2.3192
 6241TIP3    H240139   5.957   2.523   2.761  0.7534 -0.5875  0.9559
 6242TIP3   OH240140   3.547   2.621   3.763  0.2338 -0.0158  0.2194
 6242TIP3    H140141   3.584   2.646   3.678  0.0844 -1.6819 -0.3562
 6242TIP3    H240142   3.452   2.635   3.753  0.2989  0.6113  0.4193
 6243TIP3   OH240143   1.069   6.229  14.634  0.1140  0.5730  0.3016
 6243TIP3    H140144   1.163   6.213  14.645  0.2184  1.3867  0.6908
 6243TIP3    H240145   1.060   6.261  14.544 -0.0035 -0.9449 -0.2417
 6244TIP3   OH240146   3.723   2.604   2.712  0.4939 -0.6819  0.5461
 6244TIP3    H140147   3.709   2.691   2.749 -0.0781 -1.3322  1.9154
 6244TIP3    H240148   3.648   2.589   2.654  0.9531 -0.0060 -0.2501
 6245TIP3   OH240149   3.800   6.447   1.967  0.5101 -0.0810  0.1909
 6245TIP3    H140150   3.879   6.466   2.018 -0.2809  1.3085  0.9681
 6245TIP3    H240151   3.778   6.531   1.925 -1.4683  0.0312  1.3336
 6246TIP3   OH240152   3.830   3.660   2.805 -0.1262 -0.1907  0.2621
 6246TIP3    H140153   3.822   3.692   2.715 -1.8627  0.8075  0.7214
 6246TIP3    H240154   3.807   3.736   2.860 -1.2036 -1.3509  1.4797
 6247TIP3   OH240155   0.854   5.607   3.969 -0.8194 -0.1175  0.2241
 6247TIP3    H140156   0.793   5.545   4.008  0.5146 -0.9335  1.1275
 6247TIP3    H240157   0.934   5.597   4.022 -0.2790  1.7270 -0.1898
 6248TIP3   OH240158   1.969   2.470  14.318  0.5801  0.1404  0.0454
 6248TIP3    H140159   1.909   2.403  14.351  1.8291 -0.9537  0.1638
 6248TIP3    H240160   1.913   2.544  14.297 -0.8743 -1.0231 -0.3122
 6249TIP3   OH240161   5.754   4.647  16.214 -0.0919 -0.2589  0.2100
 6249TIP3    H140162   5.688   4.604  16.269 -2.0337  0.9634 -1.0147
 6249TIP3    H240163   5.757   4.593  16.134  0.9987 -0.7332  0.5544
 6250TIP3   OH240164   2.241   5.032   4.643  1.0714  0.0712  0.1469
 6250TIP3    H140165   2.288   4.978   4.580  1.5480  0.7062 -0.0488
 6250TIP3    H240166   2.290   5.023   4.724  0.9817 -0.0249  0.1902
 6251TIP3   OH240167   1.483   3.428  11.215  0.0482  0.2765 -0.1730
 6251TIP3    H140168   1.431   3.414  11.136  1.9703  2.0571 -1.8671
 6251TIP3    H240169   1.467   3.519  11.239  1.2796  0.4515  0.0752
 6252TIP3   OH240170   0.605   5.802   1.429 -0.6898 -0.1259  0.6725
 6252TIP3    H140171   0.642   5.871   1.484 -2.1081  1.4761 -0.2621
 6252TIP3    H240172   0.595   5.843   1.343 -3.2954 -0.8631  0.5344
 6253TIP3   OH240173   4.952   4.950  13.879  0.6836 -0.6674 -0.3587
 6253TIP3    H140174   5.002   4.932  13.959  0.1247 -0.1291  0.1178
 6253TIP3    H240175   4.935   4.863  13.842 -1.5549 -1.1914  1.6520
 6254TIP3   OH240176   3.411   2.198   2.438 -0.0509  0.0789  0.0408
 6254TIP3    H140177   3.322   2.225   2.416  0.2453  2.2390  1.2133
 6254TIP3    H240178   3.402   2.107   2.467 -1.7733  0.0826 -0.3687
 6255TIP3   OH240179   2.640   4.342   4.945 -0.2567  0.3982 -0.3169
 6255TIP3    H140180   2.597   4.322   5.029  0.0395 -1.0608 -0.4903
 6255TIP3    H240181   2.728   4.369   4.969 -0.5706  1.2638 -0.0941
 6256TIP3   OH240182   0.843   1.460   2.528 -0.0467 -0.4189 -0.4010
 6256TIP3    H140183   0.925   1.427   2.565  0.2637 -0.5571 -1.1890
 6256TIP3    H240184   0.841   1.424   2.439 -1.9243 -2.0899  0.2475
 6257TIP3   OH240185   5.790   2.839  11.038 -0.6853  0.0185  0.1366
 6257TIP3    H140186   5.853   2.794  11.094 -0.2548  0.0936 -0.2723
 6257TIP3    H240187   5.716   2.779  11.032 -0.3500 -0.3923  0.0527
 6258TIP3   OH240188   1.415   0.351   5.458 -0.8547  0.4336 -0.1384
 6258TIP3    H140189   1.387   0.285   5.394 -2.0040  0.4824  0.2900
 6258TIP3    H240190   1.368   0.430   5.432 -0.5875  0.7012  0.1943
 6259TIP3   OH240191   1.680   1.461   6.617 -0.1859 -0.2833 -0.1703
 6259TIP3    H140192   1.768   1.423   6.618 -1.5378 -3.9144 -1.4489
 6259TIP3    H240193   1.678   1.514   6.537  0.5827 -0.8761 -0.5963
 6260TIP3   OH240194   5.541   0.909   5.847 -0.4019  0.0263 -0.0330
 6260TIP3    H140195   5.628   0.869   5.846 -0.5937 -0.4032  0.2676
 6260TIP3    H240196   5.553   0.992   5.893  0.3483  1.1485 -2.1152
 6261TIP3   OH240197   5.658   0.509   4.821  0.8689 -0.5959  0.4071
 6261TIP3    H140198   5.609   0.484   4.900  0.5393 -0.3170  0.2967
 6261TIP3    H240199   5.590   0.531   4.757  1.1062 -1.7386 -0.2685
 6262TIP3   OH240200   4.369   4.615  12.703  0.2523  0.0241  0.5501
 6262TIP3    H140201   4.372   4.662  12.620 -0.8589  0.7503  0.8938
 6262TIP3    H240202   4.285   4.570  12.702  1.2324 -1.8782  0.2918
 6263TIP3   OH240203   2.683   5.048  13.020  0.0583  0.9772 -0.0995
 6263TIP3    H140204   2.706   5.037  12.928 -0.8497 -1.2995 -0.1205
 6263TIP3    H240205   2.766   5.043  13.067  0.2667 -1.1976 -0.5983
 6264TIP3   OH240206   5.979   0.534  14.883  0.3212 -0.2859  0.1985
 6264TIP3    H140207   5.951   0.478  14.810  1.9970 -2.6636  1.2430
 6264TIP3    H240208   6.071   0.513  14.895  0.5374  1.3861  1.8674
 6265TIP3   OH240209   3.568   3.551  13.675  0.7634  0.0998  0.0571
 6265TIP3    H140210   3.593   3.464  13.705  2.0075 -0.1101 -1.4356
 6265TIP3    H240211   3.641   3.579  13.619 -0.4452  1.3280 -0.9918
 6266TIP3   OH240212   2.278   4.625   3.904 -0.0164 -0.5767 -0.6754
 6266TIP3    H140213   2.309   4.624   3.995 -0.8839 -1.8184 -0.3638
 6266TIP3    H240214   2.346   4.672   3.857 -0.5141  1.9292  0.9208
 6267TIP3   OH240215   5.073   3.178  11.020 -0.0245  0.0744 -0.3792
 6267TIP3    H140216   5.024   3.209  11.096 -0.9012 -1.9730 -0.0430
 6267TIP3    H240217   5.151   3.137  11.057 -0.3674 -0.7710 -0.5690
 6268TIP3   OH240218   0.982   0.557   5.251 -0.0741 -0.5849  0.1630
 6268TIP3    H140219   0.996   0.481   5.308  0.7481 -0.0861  0.6407
 6268TIP3    H240220   1.026   0.534   5.169 -0.1466 -0.7759  0.1777
 6269TIP3   OH240221   5.410   4.444  11.006 -0.2041 -0.3071 -0.0469
 6269TIP3    H140222   5.398   4.349  11.003 -0.2323 -0.2981 -0.3007
 6269TIP3    H240223   5.431   4.468  10.915 -2.1757  0.1831 -0.4332
 6270TIP3   OH240224   6.368   4.078  12.825 -0.1368  0.2401  0.7752
 6270TIP3    H140225   6.429   4.005  12.815  0.7684  1.1901 -1.0773
 6270TIP3    H240226   6.421   4.149  12.862  0.0420  1.1806 -1.1614
 6271TIP3   OH240227   4.917   5.231  13.058 -0.2010 -0.2432 -0.1587
 6271TIP3    H140228   4.832   5.194  13.032 -0.0400  0.5049 -1.8648
 6271TIP3    H240229   4.907   5.248  13.152 -1.2366 -1.9880  0.1017
 6272TIP3   OH240230   0.894   5.339   2.891 -0.0219 -0.3501  0.2402
 6272TIP3    H140231   0.988   5.337   2.910 -0.1101 -0.2893  0.7140
 6272TIP3    H240232   0.888   5.378   2.804  0.2662  2.0834  1.2170
 6273TIP3   OH240233   4.767   6.638  14.166  0.3456 -0.2404 -0.2636
 6273TIP3    H140234   4.673   6.631  14.148  0.2140 -0.0447  0.3099
 6273TIP3    H240235   4.782   6.577  14.238  0.1891  1.4151  1.2488
 6274TIP3   OH240236   3.631   4.427   4.366  0.4679  0.4626 -0.2157
 6274TIP3    H140237   3.630   4.333   4.345  2.6698  0.3773 -0.1744
 6274TIP3    H240238   3.580   4.434   4.446  0.6943 -0.7840  0.0600
 6275TIP3   OH240239   1.327   0.865   0.149  0.1471 -0.1501 -0.3509
 6275TIP3    H140240   1.265   0.793   0.144  1.0313 -0.8517 -1.7447
 6275TIP3    H240241   1.273   0.942   0.167 -1.0993 -0.7682 -1.2940
 6276TIP3   OH240242   1.955   1.907   3.838 -0.4156  0.3537  0.1232
 6276TIP3    H140243   2.016   1.877   3.907 -1.9396 -0.5651  1.1261
 6276TIP3    H240244   1.883   1.948   3.886 -0.9294  0.8093 -1.0057
 6277TIP3   OH240245   2.867   1.628   4.354  0.5730 -0.6686 -0.2872
 6277TIP3    H140246   2.953   1.656   4.385 -0.4792  1.0289  1.2754
 6277TIP3    H240247   2.849   1.547   4.402  1.3972 -1.1829 -0.8292
 6278TIP3   OH240248   0.816   6.144   4.302  0.6474 -0.6596 -0.0177
 6278TIP3    H140249   0.883   6.122   4.236  0.0407 -0.8318 -0.5897
 6278TIP3    H240250   0.819   6.071   4.364  1.3855 -0.3826  0.2832
 6279TIP3   OH240251   4.576   0.811  16.950  0.4027 -0.4855  0.5023
 6279TIP3    H140252   4.613   0.732  16.912  0.3620  0.3598 -1.4446
 6279TIP3    H240253   4.621   0.883  16.905 -2.6150  0.5966 -1.1357
 6280TIP3   OH240254   4.129   1.535  15.806  0.3008  0.6002  0.1118
 6280TIP3    H140255   4.115   1.539  15.900  0.5194  0.1025  0.1647
 6280TIP3    H240256   4.224   1.539  15.795  0.4898 -2.0800  0.0769
 6281TIP3   OH240257   4.646   5.309   6.121  0.4064  0.4451 -0.0287
 6281TIP3    H140258   4.686   5.226   6.096 -0.5131  0.3065 -1.1367
 6281TIP3    H240259   4.679   5.372   6.056 -1.0655  0.3423 -0.9149
 6282TIP3   OH240260   5.268   0.935  15.673  0.8921  0.4610  0.4400
 6282TIP3    H140261   5.265   0.840  15.687  2.3213  0.5031  1.1869
 6282TIP3    H240262   5.329   0.947  15.600  0.5811  0.8153  0.2290
 6283TIP3   OH240263   4.419   1.205  12.583  0.2479  0.2971 -0.1071
 6283TIP3    H140264   4.426   1.297  12.607  1.0723 -0.2292  1.8943
 6283TIP3    H240265   4.365   1.204  12.503 -2.5540  2.2482  1.6032
 6284TIP3   OH240266   4.369   2.465  11.258 -0.6064  0.0669  0.2131
 6284TIP3    H140267   4.332   2.408  11.326  0.2702  0.4807  1.0655
 6284TIP3    H240268   4.380   2.408  11.182  0.3037 -0.9242  1.0615
 6285TIP3   OH240269   4.982   4.519   0.819 -0.4511  0.6015 -0.3567
 6285TIP3    H140270   5.070   4.540   0.786  0.3174 -1.5083  0.2251
 6285TIP3    H240271   4.923   4.558   0.754  0.9689 -0.3939 -2.3626
 6286TIP3   OH240272   0.962   2.555  11.052  0.2333 -0.2261  0.1609
 6286TIP3    H140273   0.883   2.599  11.083 -0.5853  0.3500 -2.4771
 6286TIP3    H240274   0.933   2.467  11.028  0.7040 -0.4634  0.4442
 6287TIP3   OH240275   3.519   4.462  11.264  0.2460  0.5191 -0.1013
 6287TIP3    H140276   3.523   4.512  11.346  3.9881 -0.7274  0.6506
 6287TIP3    H240277   3.446   4.501  11.216  0.0367  3.5684  2.3827
 6288TIP3   OH240278   1.469   1.214   1.514 -0.3321 -0.0276  0.5393
 6288TIP3    H140279   1.383   1.219   1.555 -0.3508  0.6343  0.4308
 6288TIP3    H240280   1.488   1.304   1.487 -0.3070 -0.4188 -0.8542
 6289TIP3   OH240281   2.015   4.051  13.581 -0.1547  0.6158 -0.1439
 6289TIP3    H140282   2.004   3.975  13.524 -1.8681  1.2890 -0.7812
 6289TIP3    H240283   2.071   4.111  13.531  0.3875  0.1986 -0.0496
 6290TIP3   OH240284   5.823   0.651   3.339  0.2434 -0.5495 -0.2184
 6290TIP3    H140285   5.847   0.566   3.303  1.5623  1.2273 -4.1076
 6290TIP3    H240286   5.728   0.650   3.342  0.2045 -1.9076 -1.0214
 6291TIP3   OH240287   6.009   6.281  15.401  0.0682 -0.3314  0.1571
 6291TIP3    H140288   5.938   6.226  15.366 -0.6822  1.1102 -0.6456
 6291TIP3    H240289   6.086   6.255  15.350  0.3580 -2.4323  1.5245
 6292TIP3   OH240290   6.514   0.431  16.365  0.1267  0.1646 -0.4680
 6292TIP3    H140291   6.565   0.399  16.290  1.8348  0.0631  0.6946
 6292TIP3    H240292   6.455   0.496  16.327  0.3722 -0.4746 -2.0280
 6293TIP3   OH240293   3.504   2.097  16.956  0.4501 -0.0949  0.0345
 6293TIP3    H140294   3.590   2.128  16.983  0.9430 -0.8942 -0.5791
 6293TIP3    H240295   3.522   2.030  16.891 -0.6418 -0.2826 -0.0921
 6294TIP3   OH240296   4.567   4.757   0.100  0.2043  0.0449 -0.4154
 6294TIP3    H140297   4.637   4.781   0.039  1.8794 -1.3185  0.8752
 6294TIP3    H240298   4.546   4.666   0.078  0.7975 -0.4469  0.9632
 6295TIP3   OH240299   2.206   6.394  16.042  0.3742  0.0544  0.4953
 6295TIP3    H140300   2.263   6.469  16.026 -0.0563  0.1342 -0.7476
 6295TIP3    H240301   2.236   6.359  16.126 -0.0097  2.1616  1.5775
 6296TIP3   OH240302   1.489   1.165   0.388 -0.1854  0.2621 -0.1789
 6296TIP3    H140303   1.526   1.231   0.330 -0.4045  0.2656 -0.3161
 6296TIP3    H240304   1.450   1.214   0.460  1.3562  0.2145  0.7512
 6297TIP3   OH240305   6.589   6.292  11.519  0.7437  0.3757 -0.0714
 6297TIP3    H140306   6.545   6.353  11.460  0.5350  1.5346  1.2106
 6297TIP3    H240307   6.517   6.243  11.560  0.9323 -1.1208 -1.4464
 6298TIP3   OH240308   0.186   5.440  15.165 -0.0582  0.3466  0.0897
 6298TIP3    H140309   0.211   5.510  15.106  1.1650 -1.5265 -1.7595
 6298TIP3    H240310   0.097   5.415  15.136 -0.2022  0.6578  0.2674
 6299TIP3   OH240311   4.353   5.150  13.102  0.0700 -0.2425 -0.0309
 6299TIP3    H140312   4.392   5.222  13.152  0.1324 -0.2444 -0.0763
 6299TIP3    H240313   4.259   5.160  13.115  0.0779 -0.1479 -0.0434
 6300TIP3   OH240314   4.806   5.916  14.389  0.4631  0.2073 -0.1016
 6300TIP3    H140315   4.711   5.925  14.403  0.8259  1.9340  1.6776
 6300TIP3    H240316   4.845   5.978  14.450  2.9590 -3.2422  2.2009
 6301TIP3   OH240317   2.339   1.878   4.465 -0.8962 -0.0264 -0.0927
 6301TIP3    H140318   2.362   1.951   4.408  2.1248 -0.9835 -0.2761
 6301TIP3    H240319   2.366   1.908   4.553 -2.0729  0.0267  0.2664
 6302TIP3   OH240320   1.380   6.274   6.806 -0.1248 -0.4260 -0.6188
 6302TIP3    H140321   1.292   6.310   6.816 -0.6043 -1.2505 -1.6463
 6302TIP3    H240322   1.436   6.350   6.798 -0.6690  0.1251  0.5507
 6303TIP3   OH240323   5.020   3.996  14.748  0.3810  0.0655  0.1482
 6303TIP3    H140324   5.101   4.046  14.761  0.3911  0.2503 -0.6063
 6303TIP3    H240325   4.992   4.017  14.659 -0.3090 -0.2787  0.2748
 6304TIP3   OH240326   2.296   4.810   5.839  0.0011  0.2058 -0.3182
 6304TIP3    H140327   2.352   4.734   5.854 -0.1993 -0.0482 -0.8342
 6304TIP3    H240328   2.249   4.823   5.922  2.2534  1.6523  0.8461
 6305TIP3   OH240329   5.883   4.261   5.452  0.7016  0.1669  0.2121
 6305TIP3    H140330   5.887   4.180   5.401 -0.9480  0.5429 -0.5961
 6305TIP3    H240331   5.860   4.232   5.540 -0.5518 -0.2401 -0.2207
 6306TIP3   OH240332   0.027   0.677  10.545 -0.2816  0.5447 -0.3574
 6306TIP3    H140333   0.002   0.767  10.527 -2.3991 -0.1024 -0.8475
 6306TIP3    H240334   0.053   0.642  10.460 -2.5267 -0.1846 -0.7916
 6307TIP3   OH240335   1.581   0.964   4.279  0.2749  0.2478 -0.1581
 6307TIP3    H140336   1.568   1.005   4.364  0.7201  0.2850 -0.1056
 6307TIP3    H240337   1.674   0.976   4.260  0.1293  0.4662 -0.7649
 6308TIP3   OH240338   1.095   3.995  13.612  0.2879 -0.0219  0.4204
 6308TIP3    H140339   1.100   3.995  13.517 -0.8406 -0.5298  0.3382
 6308TIP3    H240340   1.020   4.051  13.632  1.6625  1.6631  1.1265
 6309TIP3   OH240341   3.780   4.917   5.692 -0.0022  0.1207 -0.1812
 6309TIP3    H140342   3.872   4.942   5.693  0.0191  0.1145 -0.9939
 6309TIP3    H240343   3.741   4.964   5.766  0.8751 -0.7987  0.8774
 6310TIP3   OH240344   5.197   2.027   5.090  0.8086 -0.4220  0.5080
 6310TIP3    H140345   5.214   1.967   5.018  2.0544 -0.0499  0.4764
 6310TIP3    H240346   5.244   1.989   5.165  2.9441  1.2584  0.1140
 6311TIP3   OH240347   0.969   1.535  12.492  0.3406 -0.0827  0.5842
 6311TIP3    H140348   0.873   1.544  12.492  0.3202 -0.2623  0.1434
 6311TIP3    H240349   0.993   1.541  12.399  0.7406 -0.1934  0.6817
 6312TIP3   OH240350   3.352   2.296  13.657 -0.4122  0.3673  0.3023
 6312TIP3    H140351   3.337   2.346  13.577  1.5414 -0.7955 -0.8801
 6312TIP3    H240352   3.315   2.210  13.639 -0.7591  0.3568  1.0213
 6313TIP3   OH240353   0.890   5.814   3.350 -0.0907  0.1893 -0.0563
 6313TIP3    H140354   0.926   5.893   3.389  0.5379 -0.8949  1.6508
 6313TIP3    H240355   0.963   5.776   3.301  0.8969 -1.3529  2.3897
 6314TIP3   OH240356   1.565   1.462  13.140 -0.4979 -0.0124  0.0347
 6314TIP3    H140357   1.659   1.470  13.124 -0.2114 -1.7667  0.6077
 6314TIP3    H240358   1.558   1.390  13.203 -2.2327  0.0361 -0.0699
 6315TIP3   OH240359   6.337   5.102   3.915  0.4039  0.8533  0.1825
 6315TIP3    H140360   6.411   5.154   3.947  2.4064 -1.4770 -0.2924
 6315TIP3    H240361   6.368   5.066   3.832 -1.5149  0.2392 -0.3039
 6316TIP3   OH240362   6.429   4.049  10.958 -0.4580  0.3243 -0.4454
 6316TIP3    H140363   6.460   4.129  11.002  0.2610 -0.6244  0.8599
 6316TIP3    H240364   6.503   4.021  10.905  0.7864 -1.4699  2.0097
 6317TIP3   OH240365   1.763   1.723  11.753 -0.0700  0.5081 -0.6573
 6317TIP3    H140366   1.852   1.692  11.770 -0.6511 -0.7080  0.3515
 6317TIP3    H240367   1.768   1.818  11.764  1.0225  0.4142 -0.2548
 6318TIP3   OH240368   4.335   4.212  13.251 -0.1421  0.6823  0.6417
 6318TIP3    H140369   4.392   4.136  13.237 -0.2999  0.4008  1.4719
 6318TIP3    H240370   4.348   4.236  13.343  0.8233  2.4308  0.1038
 6319TIP3   OH240371   1.557   2.842   4.963  0.1608  0.4413  0.5182
 6319TIP3    H140372   1.543   2.913   4.900  2.7605  0.1407 -0.5436
 6319TIP3    H240373   1.478   2.789   4.957 -0.5067  1.5287 -1.0352
 6320TIP3   OH240374   4.564   0.206  14.931  0.3685  0.4754 -0.0236
 6320TIP3    H140375   4.508   0.136  14.963 -0.7648  0.3765 -2.0042
 6320TIP3    H240376   4.629   0.163  14.876  1.5692  0.7337  1.1354
 6321TIP3   OH240377   1.619   4.005  16.025 -0.2100 -0.2490 -0.2907
 6321TIP3    H140378   1.623   4.097  16.050 -2.0802  0.0832 -1.0662
 6321TIP3    H240379   1.568   3.963  16.095  2.7479 -1.3008  1.4490
 6322TIP3   OH240380   4.213   1.104   0.595 -0.0604 -0.3006 -0.2934
 6322TIP3    H140381   4.198   1.146   0.510  0.8827 -0.8162 -0.7380
 6322TIP3    H240382   4.244   1.016   0.573 -0.5106 -0.6989  0.6014
 6323TIP3   OH240383   4.501   4.052  12.443 -0.5202  0.1149  0.1247
 6323TIP3    H140384   4.542   4.122  12.494  0.2810 -0.6222  0.5249
 6323TIP3    H240385   4.572   3.991  12.425 -1.3513 -1.0111  0.4983
 6324TIP3   OH240386   2.927   5.506  13.557 -0.2917 -0.2597  0.2700
 6324TIP3    H140387   2.975   5.486  13.637 -2.0254 -0.1177  1.3925
 6324TIP3    H240388   2.846   5.456  13.564 -2.0264  2.3723  0.2735
 6325TIP3   OH240389   0.654   4.721  15.201 -0.1677  0.0366 -0.1675
 6325TIP3    H140390   0.680   4.639  15.243  1.4810  0.0968 -0.9810
 6325TIP3    H240391   0.610   4.693  15.120 -0.1805 -0.0389 -0.1345
 6326TIP3   OH240392   2.285   4.244  15.803  0.0367 -0.3602  0.3497
 6326TIP3    H140393   2.189   4.236  15.804 -0.0741  0.7355  0.4571
 6326TIP3    H240394   2.303   4.298  15.726  0.5842 -0.7312  0.2167
 6327TIP3   OH240395   1.826   1.085  16.619  0.2639 -0.2881 -0.1422
 6327TIP3    H140396   1.875   1.058  16.697  0.7344 -1.3599 -0.7803
 6327TIP3    H240397   1.891   1.122  16.560  0.2927 -1.4315 -0.8671
 6328TIP3   OH240398   5.078   2.854  15.445  0.3917  0.3827 -0.2624
 6328TIP3    H140399   5.095   2.790  15.514 -1.6786  0.3498  0.2617
 6328TIP3    H240400   5.014   2.914  15.483 -0.4061  0.6632 -1.9625
 6329TIP3   OH240401   3.304   3.874   3.430 -0.1929  0.0186 -0.0883
 6329TIP3    H140402   3.397   3.862   3.447  0.2372  0.6360 -1.7680
 6329TIP3    H240403   3.278   3.795   3.383  0.7430  1.7857 -4.0107
 6330TIP3   OH240404   5.640   4.418  15.613  0.3094  0.2926  0.2041
 6330TIP3    H140405   5.592   4.394  15.534  2.5459 -0.1298 -1.1077
 6330TIP3    H240406   5.710   4.353  15.619  0.3584  0.4741  2.4106
 6331TIP3   OH240407   4.725   6.076   5.266  0.0794 -0.1876  1.0737
 6331TIP3    H140408   4.720   5.986   5.298 -0.0608 -0.2272  0.9401
 6331TIP3    H240409   4.649   6.086   5.210  0.3824 -0.1511  0.6628
 6332TIP3   OH240410   2.228   1.150   5.709  0.3649 -0.2078  0.0235
 6332TIP3    H140411   2.153   1.172   5.764  0.5563 -1.3630  0.7922
 6332TIP3    H240412   2.232   1.220   5.645  0.3238  1.3794  1.6715
 6333TIP3   OH240413   4.269   3.537  14.018 -0.1738  0.1462  0.1341
 6333TIP3    H140414   4.243   3.465  13.962  1.6468 -0.7828  0.3937
 6333TIP3    H240415   4.189   3.562  14.064 -1.0141 -1.1633 -0.5519
 6334TIP3   OH240416   6.656   0.555  10.829  0.0193  0.5163 -0.3056
 6334TIP3    H140417   6.667   0.632  10.886 -1.0036  0.9240 -0.6373
 6334TIP3    H240418   6.566   0.527  10.844  0.5213 -0.9411  0.1764
 6335TIP3   OH240419   0.125   2.881  12.038  0.3184 -0.1779  0.2860
 6335TIP3    H140420   0.174   2.841  12.109  1.9628  0.2018 -0.5845
 6335TIP3    H240421   0.160   2.970  12.032  0.0383 -0.1246 -0.8349
 6336TIP3   OH240422   6.185   4.709   3.946  0.1408  0.0646 -0.0338
 6336TIP3    H140423   6.180   4.638   3.882 -1.8614 -0.7052  0.9103
 6336TIP3    H240424   6.175   4.666   4.030 -1.4005  1.4689  0.5522
 6337TIP3   OH240425   1.573   4.648  12.097  0.4258 -0.0149 -0.9241
 6337TIP3    H140426   1.504   4.594  12.058  1.1700 -2.2431  0.6575
 6337TIP3    H240427   1.565   4.732  12.052 -2.6612 -0.4842 -1.5064
 6338TIP3   OH240428   0.917   0.223  11.581 -0.0082  0.0660  0.5560
 6338TIP3    H140429   0.981   0.269  11.527 -0.4933  0.9444  0.7109
 6338TIP3    H240430   0.840   0.280  11.580 -0.4032 -0.4473  1.2709
 6339TIP3   OH240431   4.599   3.546   0.803 -0.7597 -0.0065 -0.3608
 6339TIP3    H140432   4.554   3.580   0.726  1.6916  0.2541 -1.8097
 6339TIP3    H240433   4.654   3.474   0.769 -0.8477 -1.0082  1.4574
 6340TIP3   OH240434   5.946   0.250   1.899  0.2793  0.6089  0.5647
 6340TIP3    H140435   5.896   0.238   1.818 -1.7461  0.9713  1.6705
 6340TIP3    H240436   6.030   0.209   1.882 -0.8826 -1.3390 -0.9888
 6341TIP3   OH240437   2.066   5.267   3.300 -0.3981 -0.4506  0.0053
 6341TIP3    H140438   2.067   5.307   3.214  0.0898 -1.1395 -0.3259
 6341TIP3    H240439   2.153   5.285   3.336  0.0028 -1.5645 -0.3392
 6342TIP3   OH240440   6.767   5.211  12.540 -0.3968  0.0636 -0.8714
 6342TIP3    H140441   6.816   5.265  12.603 -0.1269 -0.1438 -0.9031
 6342TIP3    H240442   6.828   5.196  12.468  0.2298 -1.9517  0.0201
 6343TIP3   OH240443   6.471   1.098  13.556 -0.3304  0.6742  0.2969
 6343TIP3    H140444   6.483   1.152  13.478 -0.3930  1.7452  1.0065
 6343TIP3    H240445   6.533   1.025  13.544  1.8645  2.3637  0.5849
 6344TIP3   OH240446   1.676   4.038   5.387 -0.1513 -0.3920  0.6539
 6344TIP3    H140447   1.707   4.128   5.392  0.2323 -0.3751 -1.3062
 6344TIP3    H240448   1.604   4.041   5.324  0.2439 -1.5385  0.1258
 6345TIP3   OH240449   0.526   2.808   6.118 -0.4944  0.3203 -0.0968
 6345TIP3    H140450   0.577   2.733   6.087 -0.6645  0.3446 -0.4440
 6345TIP3    H240451   0.437   2.790   6.089 -0.7097  0.2330  0.5906
 6346TIP3   OH240452   6.711   1.860  15.222 -0.0597 -0.3172  0.1580
 6346TIP3    H140453   6.736   1.796  15.156 -0.4511 -0.7822  0.4453
 6346TIP3    H240454   6.755   1.831  15.302  0.8570  0.5557 -0.0129
 6347TIP3   OH240455   4.845   5.481  16.401 -0.4253 -0.2814 -0.0286
 6347TIP3    H140456   4.932   5.463  16.365 -0.5406 -0.6545 -0.1292
 6347TIP3    H240457   4.841   5.429  16.482  0.2653  1.4335  1.1683
 6348TIP3   OH240458   0.494   1.584  16.655 -0.3653 -0.0829  0.5161
 6348TIP3    H140459   0.579   1.627  16.671 -0.0262 -0.4095 -0.3310
 6348TIP3    H240460   0.488   1.580  16.560 -1.6128  0.4623  0.5562
 6349TIP3   OH240461   0.458   1.083  14.753  0.1402 -0.4817 -0.3418
 6349TIP3    H140462   0.504   1.047  14.677 -0.2451 -1.0251 -0.3206
 6349TIP3    H240463   0.522   1.141  14.794  0.6069 -0.7756 -0.6434
 6350TIP3   OH240464   5.581   0.473   1.147 -0.5758 -0.1341 -0.3654
 6350TIP3    H140465   5.593   0.466   1.052 -1.7494  0.4144 -0.5727
 6350TIP3    H240466   5.511   0.410   1.167 -1.2226  0.6594 -0.0704
 6351TIP3   OH240467   4.211   1.635   4.617  0.4243 -0.3018  0.1790
 6351TIP3    H140468   4.220   1.546   4.583 -1.3544 -0.7556  0.7930
 6351TIP3    H240469   4.156   1.626   4.695  0.3122  1.3296  0.3313
 6352TIP3   OH240470   1.481   4.443   2.849  0.0854 -0.0520  0.4511
 6352TIP3    H140471   1.485   4.404   2.937 -0.6428  3.1046  2.0464
 6352TIP3    H240472   1.409   4.396   2.806 -1.0369 -0.2213  2.3819
 6353TIP3   OH240473   6.556   4.403  11.947 -0.9631 -0.5733 -0.7327
 6353TIP3    H140474   6.603   4.351  12.012 -2.4967 -1.9217 -0.6535
 6353TIP3    H240475   6.508   4.468  11.999  1.1301  1.1953 -0.8456
 6354TIP3   OH240476   2.478   5.870  15.467 -0.0027 -0.0528 -0.7832
 6354TIP3    H140477   2.542   5.843  15.532 -0.5697  0.0138 -0.1854
 6354TIP3    H240478   2.467   5.964  15.480 -1.6810 -0.3610  0.5013
 6355TIP3   OH240479   2.363   6.801   3.762 -0.4410  0.0737  0.0719
 6355TIP3    H140480   2.385   6.893   3.779 -2.4579  0.0500  4.0260
 6355TIP3    H240481   2.439   6.752   3.792 -0.7927  0.3892  1.5529
 6356TIP3   OH240482   3.816   1.264  14.360  0.2566  0.6337 -0.0539
 6356TIP3    H140483   3.846   1.180  14.395  0.1054  1.1347  1.3812
 6356TIP3    H240484   3.869   1.279  14.282 -1.0918 -1.7218 -1.5317
 6357TIP3   OH240485   4.296   1.964  15.893  0.7579 -0.3634  0.1416
 6357TIP3    H140486   4.299   1.981  15.987 -0.6583 -0.2689  0.1934
 6357TIP3    H240487   4.236   1.890  15.884 -1.3432  1.3553 -0.8600
 6358TIP3   OH240488   5.396   4.650   3.962  0.4818  0.4841 -0.9609
 6358TIP3    H140489   5.486   4.621   3.947  0.8715  2.6232 -3.6941
 6358TIP3    H240490   5.394   4.676   4.054  2.1424 -1.1351 -0.4048
 6359TIP3   OH240491   3.817   3.372  13.244 -0.2873  0.0193 -0.1211
 6359TIP3    H140492   3.904   3.348  13.276 -1.0092 -0.2290  1.7410
 6359TIP3    H240493   3.757   3.311  13.288 -1.3198 -0.7070 -2.3666
 6360TIP3   OH240494   2.108   2.416  16.152 -0.0474  0.3282 -0.6635
 6360TIP3    H140495   2.100   2.498  16.103 -1.9482  0.9237  0.5436
 6360TIP3    H240496   2.035   2.362  16.122  0.5453 -0.5058 -0.6549
 6361TIP3   OH240497   0.987   1.727   2.053 -0.3960  0.2516  0.1796
 6361TIP3    H140498   0.903   1.706   2.094 -1.0039 -0.3562 -1.2998
 6361TIP3    H240499   1.017   1.805   2.099 -1.9197  0.6687  0.5296
 6362TIP3   OH240500   4.993   3.566   5.735 -0.8593 -0.7012 -0.1820
 6362TIP3    H140501   5.078   3.569   5.779 -0.6673  0.5319 -0.6067
 6362TIP3    H240502   4.985   3.476   5.705  0.3479 -0.8091 -0.2259
 6363TIP3   OH240503   3.835   6.493   3.705  0.3111 -0.4445 -0.0392
 6363TIP3    H140504   3.906   6.551   3.732 -2.6611  2.4371  2.5246
 6363TIP3    H240505   3.872   6.405   3.712  4.1959  0.9038 -1.1422
 6364TIP3   OH240506   2.605   6.664   2.429 -0.2353 -0.4548 -0.2753
 6364TIP3    H140507   2.566   6.584   2.395  1.2998 -1.8916  1.1623
 6364TIP3    H240508   2.531   6.717   2.459 -1.1940 -2.0662  0.2760
 6365TIP3   OH240509   3.311   5.550  14.680 -0.6260  0.4257  0.5348
 6365TIP3    H140510   3.255   5.576  14.607  0.1911  0.5200 -0.0723
 6365TIP3    H240511   3.346   5.465  14.653  1.3748  1.4314 -0.1897
 6366TIP3   OH240512   2.332   6.069  11.885  0.0322  0.0055  0.3106
 6366TIP3    H140513   2.370   6.050  11.971  0.4759 -2.2669 -0.3328
 6366TIP3    H240514   2.301   5.985  11.853 -0.4375  0.8597 -1.6333
 6367TIP3   OH240515   3.267   2.990  11.891  0.3868 -0.0140  0.3011
 6367TIP3    H140516   3.247   2.947  11.808  0.2095 -1.0253  0.8572
 6367TIP3    H240517   3.187   2.980  11.943  0.4281  0.7762  0.5380
 6368TIP3   OH240518   6.043   2.894  14.164 -0.4329 -0.1880  0.3789
 6368TIP3    H140519   6.025   2.819  14.221 -1.1252 -0.0450  0.3464
 6368TIP3    H240520   6.033   2.970  14.221 -0.9782 -0.0529  0.1009
 6369TIP3   OH240521   5.119   6.480   5.252 -0.4484 -0.5670 -0.0251
 6369TIP3    H140522   5.042   6.497   5.306  0.7369  2.2173  1.0251
 6369TIP3    H240523   5.134   6.386   5.260 -3.2596 -1.0668  0.3379
 6370TIP3   OH240524   5.207   2.416   1.483 -0.4076  0.0321  0.2532
 6370TIP3    H140525   5.247   2.463   1.410 -1.8553  2.0062  0.6649
 6370TIP3    H240526   5.117   2.448   1.487 -0.4603 -0.1857  2.7179
 6371TIP3   OH240527   0.786   4.929   3.192  0.3006  0.8361  1.0580
 6371TIP3    H140528   0.837   4.961   3.118 -0.2985 -0.0011  0.2486
 6371TIP3    H240529   0.819   4.841   3.208 -0.4651  0.5098  0.9109
 6372TIP3   OH240530   2.352   1.422   4.316 -0.1711  0.4222  0.1509
 6372TIP3    H140531   2.344   1.333   4.350  1.1323  0.7009  1.2570
 6372TIP3    H240532   2.280   1.470   4.357 -0.6141 -0.0002 -0.1118
 6373TIP3   OH240533   1.564   2.376   1.833  0.9604 -0.6110 -0.6813
 6373TIP3    H140534   1.604   2.300   1.790  3.9317  0.5892 -0.2868
 6373TIP3    H240535   1.584   2.449   1.775  1.6129  0.4259  0.7772
 6374TIP3   OH240536   5.412   1.903   0.703 -0.1608  0.0892 -0.1560
 6374TIP3    H140537   5.480   1.910   0.771  0.0745 -2.2473 -0.0689
 6374TIP3    H240538   5.454   1.937   0.624  0.4899  0.3732  0.3043
 6375TIP3   OH240539   0.171   6.510  13.356  0.9789  0.5425  0.3507
 6375TIP3    H140540   0.168   6.507  13.451  0.8000 -0.1064  0.3304
 6375TIP3    H240541   0.095   6.562  13.330  0.3729 -0.2427  0.5235
 6376TIP3   OH240542   1.287   3.029   5.444 -0.6305  0.4893  0.0164
 6376TIP3    H140543   1.247   3.073   5.520  0.3087 -1.5863  1.8422
 6376TIP3    H240544   1.364   2.986   5.480 -0.1408 -0.5831 -2.1660
 6377TIP3   OH240545   4.920   3.893   4.124  0.2527 -0.8548  0.1960
 6377TIP3    H140546   4.928   3.976   4.172 -0.1113 -0.2701 -0.7182
 6377TIP3    H240547   4.845   3.849   4.164 -1.9768  0.9748 -1.7081
 6378TIP3   OH240548   5.748   0.482  15.015  0.7558  0.1269  0.0237
 6378TIP3    H140549   5.824   0.515  14.967  0.4022  0.7942 -0.0867
 6378TIP3    H240550   5.726   0.552  15.077  1.6476 -1.0009  1.6880
 6379TIP3   OH240551   3.666   1.477   3.556 -0.0061 -0.5314 -0.5319
 6379TIP3    H140552   3.623   1.522   3.629  0.4903  1.5783 -1.4772
 6379TIP3    H240553   3.759   1.485   3.574  0.2597  2.3789 -2.6188
 6380TIP3   OH240554   5.051   3.734  15.086 -0.2650 -0.1630 -0.0691
 6380TIP3    H140555   5.006   3.809  15.049  0.4537  0.3655  0.0973
 6380TIP3    H240556   5.108   3.771  15.153 -1.0939 -1.0270  1.1712
 6381TIP3   OH240557   0.966   5.335  13.498  0.1069  0.3030  0.1082
 6381TIP3    H140558   0.976   5.242  13.478  0.2239  0.3183  0.0950
 6381TIP3    H240559   0.877   5.356  13.471  0.3860  0.4115 -0.7466
 6382TIP3   OH240560   1.728   2.546  11.981  0.3858  0.3260  0.4775
 6382TIP3    H140561   1.797   2.529  11.917 -0.3840 -2.0019  0.1599
 6382TIP3    H240562   1.701   2.459  12.011 -1.7359  1.1909  1.3063
 6383TIP3   OH240563   4.600   5.288  14.906 -0.1633 -1.2868 -0.3189
 6383TIP3    H140564   4.512   5.307  14.874  0.2198  0.1963 -0.5671
 6383TIP3    H240565   4.624   5.365  14.957  1.2078 -1.4151 -0.7357
 6384TIP3   OH240566   2.011   0.672  16.423  0.6209  0.2232 -0.1309
 6384TIP3    H140567   2.048   0.738  16.481  0.4374 -0.6863  1.0528
 6384TIP3    H240568   2.052   0.689  16.338  0.5401  1.8721  0.1257
 6385TIP3   OH240569   5.226   3.538   0.736 -0.3716 -0.0353 -0.3648
 6385TIP3    H140570   5.295   3.570   0.680 -1.4168  0.7622 -1.2344
 6385TIP3    H240571   5.248   3.446   0.751  1.0827  0.3078 -0.2577
 6386TIP3   OH240572   1.033   6.815   4.018  0.1833  0.3029 -0.3889
 6386TIP3    H140573   0.953   6.844   3.975  0.8292  1.1104 -1.0700
 6386TIP3    H240574   1.098   6.808   3.948  0.4759 -1.3305 -0.0171
 6387TIP3   OH240575   1.664   3.641   5.303  0.2748 -0.1623 -0.3703
 6387TIP3    H140576   1.603   3.659   5.232  1.0131  2.1522 -0.4982
 6387TIP3    H240577   1.706   3.558   5.278  0.4807  0.5603 -2.6164
 6388TIP3   OH240578   6.042   4.553   2.981 -0.3227  0.0997  0.0584
 6388TIP3    H140579   6.053   4.459   2.997 -1.0250  0.2152  1.3534
 6388TIP3    H240580   6.009   4.588   3.063  0.4267  1.5915 -0.2360
 6389TIP3   OH240581   1.099   3.162   0.723 -0.5041  0.6216 -0.2981
 6389TIP3    H140582   1.007   3.145   0.706 -0.0655 -0.6456 -1.5421
 6389TIP3    H240583   1.124   3.096   0.788  0.0478 -0.5440 -1.6443
 6390TIP3   OH240584   0.274   5.194   0.138  0.5212 -0.0550 -0.2301
 6390TIP3    H140585   0.252   5.284   0.113  1.8156 -0.1353 -1.8722
 6390TIP3    H240586   0.189   5.152   0.154 -0.1490  1.1959 -0.3670
 6391TIP3   OH240587   1.083   6.132  13.071 -0.1008  0.3156  0.2060
 6391TIP3    H140588   1.063   6.223  13.053  0.8299  0.2301 -1.3858
 6391TIP3    H240589   1.029   6.082  13.010 -0.7040 -0.2193  1.1544
 6392TIP3   OH240590   5.943   1.053  15.299 -0.0413 -0.0415 -0.0366
 6392TIP3    H140591   5.889   1.087  15.228 -1.8428  0.1235  1.3455
 6392TIP3    H240592   5.994   0.982  15.258  0.1003  1.0205 -1.8003
 6393TIP3   OH240593   3.037   0.402  14.211 -0.1456  0.0358 -0.3731
 6393TIP3    H140594   3.064   0.337  14.274  0.7714 -0.3818 -1.1793
 6393TIP3    H240595   2.979   0.461  14.260  0.9844  0.0486  0.9766
 6394TIP3   OH240596   5.608   1.674  10.830 -0.0573  0.2807  0.0391
 6394TIP3    H140597   5.552   1.699  10.903  1.6818  0.2900  1.4066
 6394TIP3    H240598   5.695   1.705  10.853  0.8473 -1.0525 -1.3384
 6395TIP3   OH240599   6.700   2.185   1.176 -0.2852 -0.4575 -0.9028
 6395TIP3    H140600   6.675   2.244   1.105  0.8143  0.2682 -0.7202
 6395TIP3    H240601   6.667   2.227   1.255 -0.0926 -0.4250 -0.8382
 6396TIP3   OH240602   2.799   1.247   1.526  0.1203 -0.4780  0.5062
 6396TIP3    H140603   2.718   1.206   1.557  0.0704 -2.4103 -1.9242
 6396TIP3    H240604   2.820   1.202   1.444  1.2477  2.9389 -1.3191
 6397TIP3   OH240605   0.627   0.820   5.628 -0.2451  0.3500 -0.2616
 6397TIP3    H140606   0.687   0.757   5.588  0.7341  1.5007 -0.6520
 6397TIP3    H240607   0.660   0.833   5.717  0.4848  1.4402 -0.6682
 6398TIP3   OH240608   5.002   5.005  15.457  0.1393  0.3210  0.0166
 6398TIP3    H140609   5.062   4.946  15.412 -0.1836 -0.6158  0.7787
 6398TIP3    H240610   4.928   5.014  15.396  0.4690  0.4386 -0.3689
 6399TIP3   OH240611   5.184   5.657   1.483 -0.5503 -0.0861  0.1364
 6399TIP3    H140612   5.272   5.647   1.519  0.8516 -1.3357 -3.2386
 6399TIP3    H240613   5.184   5.745   1.445 -0.9153  0.0646  0.4818
 6400TIP3   OH240614   4.654   5.047  15.577 -0.0603  0.5691  0.0797
 6400TIP3    H140615   4.655   4.988  15.502 -3.4051 -0.3669  0.6413
 6400TIP3    H240616   4.621   5.130  15.542  0.4596  0.8179  0.1547
 6401TIP3   OH240617   2.096   5.436  14.135  0.5867 -0.6479 -0.1401
 6401TIP3    H140618   2.129   5.477  14.215  1.5047  0.9545 -1.2963
 6401TIP3    H240619   2.167   5.380  14.105  1.3248  0.8267 -1.2455
 6402TIP3   OH240620   4.126   2.790   5.630 -0.0040 -0.8533 -0.1225
 6402TIP3    H140621   4.198   2.758   5.685  0.3753  0.7367  0.3501
 6402TIP3    H240622   4.065   2.716   5.626  0.4712 -1.3802  1.5445
 6403TIP3   OH240623   1.053   0.077   0.966  0.7477  0.4832 -0.3668
 6403TIP3    H140624   1.114   0.051   0.897  0.4176  0.6244 -0.7138
 6403TIP3    H240625   1.065   0.172   0.974  2.4085  0.1872  1.3336
 6404TIP3   OH240626   2.447   5.675   5.774  0.2063 -0.3437  0.0224
 6404TIP3    H140627   2.450   5.768   5.750 -0.1158  0.6333  3.2656
 6404TIP3    H240628   2.360   5.646   5.747 -0.4396  0.8820  0.6986
 6405TIP3   OH240629   3.356   3.453  13.541  0.1221  0.9851 -0.0971
 6405TIP3    H140630   3.402   3.415  13.467  0.1194  0.1275  0.3366
 6405TIP3    H240631   3.424   3.471  13.606 -0.2865 -2.9066  1.7289
 6406TIP3   OH240632   4.579   2.543   6.131  0.6350 -0.0056 -0.3637
 6406TIP3    H140633   4.629   2.587   6.062 -0.1723 -0.7494 -1.4654
 6406TIP3    H240634   4.494   2.524   6.090 -1.4721  3.1577  2.0248
 6407TIP3   OH240635   6.106   2.043  14.329 -0.4009 -0.4531  0.4833
 6407TIP3    H140636   6.088   1.956  14.293 -0.0634 -1.6461  2.9425
 6407TIP3    H240637   6.026   2.093  14.311 -1.4945 -1.9631  0.8872
 6408TIP3   OH240638   2.749   1.562   3.256  0.3903 -0.2258 -0.1962
 6408TIP3    H140639   2.661   1.526   3.245 -1.5933  3.3831  1.9069
 6408TIP3    H240640   2.784   1.517   3.333 -1.0518  0.4976  0.9406
 6409TIP3   OH240641   3.954   1.977  16.541 -0.4502 -0.3148  0.3780
 6409TIP3    H140642   3.922   1.917  16.609  1.4770  0.5346  2.1306
 6409TIP3    H240643   4.025   1.928  16.499 -1.9069 -1.0012 -1.3904
 6410TIP3   OH240644   5.568   6.219   4.401  0.1611  0.2678 -0.1767
 6410TIP3    H140645   5.487   6.243   4.356 -0.3317 -2.6360 -1.0017
 6410TIP3    H240646   5.543   6.210   4.493 -1.3156 -3.4664 -0.7795
 6411TIP3   OH240647   0.112   5.597  11.723  0.8614  0.1398 -0.8965
 6411TIP3    H140648   0.200   5.602  11.760  0.8275  0.8016 -0.9072
 6411TIP3    H240649   0.124   5.612  11.629  0.3988  3.6250 -0.5126
 6412TIP3   OH240650   0.350   0.394   0.693  0.1798  0.4242  0.7653
 6412TIP3    H140651   0.270   0.380   0.743 -0.2582  0.0532 -0.0114
 6412TIP3    H240652   0.342   0.335   0.618  0.0377  2.1062 -0.6197
 6413TIP3   OH240653   2.591   5.095   4.499  0.2930  0.6826 -0.2627
 6413TIP3    H140654   2.586   5.010   4.544 -0.2596  0.4763 -0.7017
 6413TIP3    H240655   2.679   5.127   4.518  0.8653 -0.4483 -0.8923
 6414TIP3   OH240656   3.702   6.398  14.583  0.4261  0.1248 -0.1439
 6414TIP3    H140657   3.630   6.442  14.629  0.1756 -0.1532 -0.2706
 6414TIP3    H240658   3.777   6.408  14.642  0.0856 -0.3014  0.3686
 6415TIP3   OH240659   1.334   6.137  12.535  0.8481 -0.3254  0.0752
 6415TIP3    H140660   1.338   6.137  12.440 -0.9455  0.3112 -0.0482
 6415TIP3    H240661   1.416   6.098  12.563  1.4110 -0.5176 -1.7271
 6416TIP3   OH240662   0.762   5.565  16.797 -0.3462  0.3427 -0.2027
 6416TIP3    H140663   0.803   5.576  16.883  1.2339 -0.2488 -0.8538
 6416TIP3    H240664   0.689   5.505  16.813  0.7408 -0.8356  0.5184
 6417TIP3   OH240665   0.739   4.376   4.517  0.0145  0.4651 -0.1717
 6417TIP3    H140666   0.726   4.465   4.547  0.0720  0.6823 -0.7735
 6417TIP3    H240667   0.705   4.375   4.427  0.0882 -0.0935 -0.2003
 6418TIP3   OH240668   0.516   1.524   2.885 -0.1173 -0.0075 -0.4202
 6418TIP3    H140669   0.536   1.617   2.874  0.8743  0.0952  1.7111
 6418TIP3    H240670   0.590   1.479   2.846  0.1944  0.1613 -0.0370
 6419TIP3   OH240671   1.362   4.955  12.071 -0.0464  0.7839 -0.2760
 6419TIP3    H140672   1.297   4.992  12.011 -1.1809 -0.8871 -0.1384
 6419TIP3    H240673   1.420   4.903  12.016 -0.7179 -0.2522 -0.0213
 6420TIP3   OH240674   3.515   6.029   0.833  0.1204 -0.0642  0.2898
 6420TIP3    H140675   3.609   6.014   0.829  0.2007  0.2745  0.8339
 6420TIP3    H240676   3.489   5.998   0.919 -0.4247 -1.0078 -0.2008
 6421TIP3   OH240677   2.864   2.431  13.680  0.0904  0.5479  0.3521
 6421TIP3    H140678   2.896   2.511  13.722 -2.5997  0.9328  1.8637
 6421TIP3    H240679   2.823   2.381  13.750 -1.0800 -0.6991 -1.1361
 6422TIP3   OH240680   1.000   2.389  16.588  0.1989 -0.2464  0.1405
 6422TIP3    H140681   1.089   2.402  16.556 -0.8197  0.8662 -2.6062
 6422TIP3    H240682   0.962   2.325  16.528 -1.1921  0.2454  0.4383
 6423TIP3   OH240683   2.681   4.631   5.764  0.4746 -0.5442 -0.3762
 6423TIP3    H140684   2.607   4.597   5.814 -0.3483 -2.7372 -2.8999
 6423TIP3    H240685   2.755   4.578   5.792  0.0670 -1.6034 -1.2676
 6424TIP3   OH240686   2.952   5.771   5.672  0.0757  0.3389 -0.5789
 6424TIP3    H140687   3.043   5.746   5.687  0.4715  1.6035 -0.7723
 6424TIP3    H240688   2.915   5.784   5.760  0.5579  1.4231 -0.5248
 6425TIP3   OH240689   4.147   0.111  11.485  0.4551 -0.0526  0.2869
 6425TIP3    H140690   4.141   0.199  11.521  0.8657  0.1788 -0.2007
 6425TIP3    H240691   4.091   0.113  11.407  0.5030 -0.2139  0.2489
 6426TIP3   OH240692   5.964   3.500   1.654  0.0430 -0.3317  0.6573
 6426TIP3    H140693   5.983   3.410   1.677  5.1336  0.2389 -0.2423
 6426TIP3    H240694   6.009   3.552   1.721 -1.0603  1.5403  0.0179
 6427TIP3   OH240695   5.018   1.754  10.410 -0.9134 -0.2338  0.0743
 6427TIP3    H140696   4.931   1.778  10.378 -0.9552 -0.4568  0.0160
 6427TIP3    H240697   5.052   1.833  10.451 -1.2305 -0.2053  0.2821
 6428TIP3   OH240698   3.450   6.707   0.797 -0.7804 -0.3529  0.2235
 6428TIP3    H140699   3.535   6.662   0.798  0.9438  2.6251 -0.6897
 6428TIP3    H240700   3.464   6.786   0.850 -2.1082  1.5732 -2.0666
 6429TIP3   OH240701   2.146   0.263  12.111  0.1867 -0.4996  0.0346
 6429TIP3    H140702   2.129   0.200  12.041  0.1824  0.8993 -1.2604
 6429TIP3    H240703   2.126   0.348  12.073 -0.9833  0.2305  2.1227
 6430TIP3   OH240704   5.050   2.265   1.721 -0.0382  0.4819  0.2847
 6430TIP3    H140705   5.115   2.332   1.700  0.7295 -0.1591  0.5231
 6430TIP3    H240706   5.000   2.253   1.641 -0.0765  1.2159  0.1926
 6431TIP3   OH240707   5.897   5.027  11.446  0.1808 -0.2150  0.4417
 6431TIP3    H140708   5.820   5.081  11.428  0.7116  0.6261  0.6707
 6431TIP3    H240709   5.971   5.085  11.433  0.7911 -1.0435  0.1492
 6432TIP3   OH240710   4.253   3.050   3.194 -0.2974  0.3153 -0.2489
 6432TIP3    H140711   4.298   2.980   3.147  1.2753  1.0757  0.0405
 6432TIP3    H240712   4.199   3.093   3.128 -0.8107 -0.7722 -0.5579
 6433TIP3   OH240713   2.440   5.935   5.910  0.1323  0.2948 -0.0677
 6433TIP3    H140714   2.377   5.878   5.953  0.6298  0.0236  0.3024
 6433TIP3    H240715   2.395   6.019   5.902 -0.2516  0.1211  0.2528
 6434TIP3   OH240716   2.865   5.175  14.401  0.3006 -0.3717 -0.6431
 6434TIP3    H140717   2.872   5.136  14.488  1.1503 -1.1451 -1.0443
 6434TIP3    H240718   2.857   5.269  14.417  2.6877 -0.2623  0.2018
 6435TIP3   OH240719   2.217   1.625   6.079 -0.5286 -0.2361 -0.1995
 6435TIP3    H140720   2.223   1.572   6.000  0.5103 -2.1909  1.0932
 6435TIP3    H240721   2.129   1.609   6.113 -1.0530  0.7773 -1.0284
 6436TIP3   OH240722   1.114   2.008   1.765 -0.3206  0.7151 -0.5427
 6436TIP3    H140723   1.057   2.030   1.839 -1.0689  0.7886 -1.1283
 6436TIP3    H240724   1.057   2.013   1.689  0.1914 -0.3727 -1.0193
 6437TIP3   OH240725   4.753   5.202  14.685 -0.3677  0.0446 -0.6500
 6437TIP3    H140726   4.701   5.241  14.754 -0.1372  2.1814 -1.6126
 6437TIP3    H240727   4.690   5.171  14.620 -0.5040  1.2591 -1.1104
 6438TIP3   OH240728   6.770   6.314  14.879 -0.0143 -0.1456  0.1105
 6438TIP3    H140729   6.731   6.230  14.856 -1.2260  0.4164  0.0434
 6438TIP3    H240730   6.755   6.323  14.973  4.3596 -2.1443  1.2570
 6439TIP3   OH240731   1.084   5.918  15.993 -0.5406  0.1181  0.0074
 6439TIP3    H140732   1.067   6.006  16.027 -1.0873  0.2293 -0.5266
 6439TIP3    H240733   1.145   5.932  15.920 -0.1808 -0.0115  0.2780
 6440TIP3   OH240734   5.896   5.837   1.647  0.3238 -0.6456  0.4988
 6440TIP3    H140735   5.818   5.878   1.684  0.3500  2.1819 -2.1621
 6440TIP3    H240736   5.897   5.864   1.555  2.2051 -4.1325 -0.7170
 6441TIP3   OH240737   5.332   6.001  12.657 -0.0542  0.3841  0.2295
 6441TIP3    H140738   5.310   6.059  12.584 -2.6969  0.1932  0.7598
 6441TIP3    H240739   5.314   5.913  12.624  1.7803  0.0130  0.1442
 6442TIP3   OH240740   0.981   0.793   6.327 -0.3005  0.6845  0.3554
 6442TIP3    H140741   1.010   0.855   6.394 -0.1121 -0.2808  1.1868
 6442TIP3    H240742   1.022   0.824   6.246  2.1698  0.0230  1.2769
 6443TIP3   OH240743   3.772   2.398  14.453 -0.0950  0.8611 -0.2138
 6443TIP3    H140744   3.827   2.329  14.490  0.7253  1.3707 -0.4580
 6443TIP3    H240745   3.736   2.444  14.530  2.2257  2.4143  0.0346
 6444TIP3   OH240746   1.028   1.349   1.574 -0.2349 -0.1630  0.0165
 6444TIP3    H140747   1.005   1.411   1.642  2.1078  1.5538 -0.6428
 6444TIP3    H240748   1.123   1.339   1.581  0.1739  0.4597 -3.2600
 6445TIP3   OH240749   2.822   4.469  14.651  0.0625 -0.2551 -0.0375
 6445TIP3    H140750   2.827   4.527  14.575  0.7660 -1.3482 -0.8489
 6445TIP3    H240751   2.912   4.444  14.668 -0.2716 -1.4469  0.0297
 6446TIP3   OH240752   1.390   4.855  16.607  0.2416  0.1990 -0.2226
 6446TIP3    H140753   1.347   4.778  16.571 -0.5339  0.2701  0.5092
 6446TIP3    H240754   1.345   4.871  16.690 -0.6056  2.3005 -1.0111
 6447TIP3   OH240755   4.617   3.692   5.487 -0.0567  0.0847  0.2105
 6447TIP3    H140756   4.622   3.675   5.393  0.5763  0.5547  0.1551
 6447TIP3    H240757   4.707   3.713   5.513 -0.2546  0.1220  0.8888
 6448TIP3   OH240758   4.434   5.540   4.218  0.0416  0.8897 -0.5699
 6448TIP3    H140759   4.341   5.557   4.210  0.0857  1.8334  0.6992
 6448TIP3    H240760   4.443   5.447   4.194 -1.0839  0.9963 -1.4976
 6449TIP3   OH240761   3.765   6.177   1.559  0.4390 -0.4408  0.1109
 6449TIP3    H140762   3.741   6.269   1.557 -1.4917 -0.8665  0.8876
 6449TIP3    H240763   3.690   6.134   1.601  0.7536 -2.4986 -1.2877
 6450TIP3   OH240764   0.291   0.428   3.019  0.5513 -0.0497 -0.4247
 6450TIP3    H140765   0.247   0.408   3.102  0.0282  0.2764 -0.6119
 6450TIP3    H240766   0.377   0.462   3.044  0.3581  0.1431 -0.0092
 6451TIP3   OH240767   3.451   5.606   0.920 -0.4473  0.2679  0.2358
 6451TIP3    H140768   3.371   5.655   0.938 -0.3781  0.6367 -0.4143
 6451TIP3    H240769   3.421   5.523   0.882 -0.5292  0.3750  0.0631
 6452TIP3   OH240770   4.464   5.390   0.481  0.2854 -0.9616  0.7225
 6452TIP3    H140771   4.526   5.319   0.463  1.7751  0.3322  0.5667
 6452TIP3    H240772   4.440   5.377   0.573 -0.2438 -2.2282  0.4295
 6453TIP3   OH240773   3.723   6.075  14.882  0.2292  0.1716 -0.2854
 6453TIP3    H140774   3.789   6.082  14.813  0.3730 -1.2363 -0.3104
 6453TIP3    H240775   3.767   6.106  14.961  0.6199  0.1103 -0.4781
 6454TIP3   OH240776   0.411   1.824  10.932  0.3199 -0.2727  0.1983
 6454TIP3    H140777   0.350   1.860  10.996  2.2218  1.1218  1.3447
 6454TIP3    H240778   0.368   1.746  10.898 -1.4829 -0.0991  1.9515
 6455TIP3   OH240779   3.454   1.930  11.855  0.0878 -0.2668  0.3724
 6455TIP3    H140780   3.529   1.988  11.862 -0.0056 -0.2808  1.7347
 6455TIP3    H240781   3.466   1.866  11.925 -1.4582  0.0553  0.9659
 6456TIP3   OH240782   6.166   2.606  10.841 -0.7157 -0.1866 -0.6845
 6456TIP3    H140783   6.160   2.693  10.882 -1.1275  0.2004 -1.5379
 6456TIP3    H240784   6.200   2.623  10.753 -0.3130 -0.9497 -0.6869
 6457TIP3   OH240785   1.716   2.683  15.547 -0.5279  0.1594 -0.3611
 6457TIP3    H140786   1.663   2.760  15.529 -0.5915 -0.0020 -0.8916
 6457TIP3    H240787   1.690   2.656  15.635 -1.3581  0.0571 -0.6294
 6458TIP3   OH240788   4.359   5.408  17.010  0.1842 -0.8028  0.9397
 6458TIP3    H140789   4.382   5.321  16.977  0.1783 -0.8713  1.1164
 6458TIP3    H240790   4.265   5.403  17.029 -0.0504 -0.4349 -0.0543
 6459TIP3   OH240791   1.256   3.259  10.411  0.0427  0.0513 -0.1980
 6459TIP3    H140792   1.315   3.333  10.402 -0.1413  0.1369 -0.8299
 6459TIP3    H240793   1.312   3.182  10.406  0.0398  0.1092 -1.6603
 6460TIP3   OH240794   4.231   4.309  16.849 -0.0895  0.0616  0.1483
 6460TIP3    H140795   4.163   4.255  16.889  1.3121 -0.8786  1.3659
 6460TIP3    H240796   4.213   4.303  16.755 -1.5350 -0.3389  0.4246
 6461TIP3   OH240797   0.739   3.150  15.985 -0.0180 -0.7030 -0.5086
 6461TIP3    H140798   0.811   3.094  16.013 -1.1012 -1.8742  0.0260
 6461TIP3    H240799   0.758   3.169  15.893  1.7466  0.2899  0.0094
 6462TIP3   OH240800   5.716   3.516  11.323 -0.6287 -0.2923  0.0817
 6462TIP3    H140801   5.799   3.486  11.361  1.1650  2.2719 -1.4526
 6462TIP3    H240802   5.720   3.486  11.232  0.1137  2.3481 -0.8256
 6463TIP3   OH240803   3.367   1.711  14.122 -0.1395  0.6409  0.3402
 6463TIP3    H140804   3.341   1.755  14.203 -0.1880 -0.4750  0.9519
 6463TIP3    H240805   3.437   1.652  14.148  2.5672  2.9701 -1.1355
 6464TIP3   OH240806   5.560   5.422  16.449  0.3495 -0.2285  0.3509
 6464TIP3    H140807   5.490   5.381  16.398  0.5207  0.2403 -0.2649
 6464TIP3    H240808   5.523   5.506  16.477  0.3874 -0.3232  0.6902
 6465TIP3   OH240809   5.330   3.473   1.742 -0.2700  0.3949  0.1226
 6465TIP3    H140810   5.323   3.429   1.657  0.1795  0.1370  0.2179
 6465TIP3    H240811   5.251   3.448   1.789 -0.7598  0.9286 -0.3985
 6466TIP3   OH240812   6.209   4.393   4.371  0.1656 -0.5754 -0.2747
 6466TIP3    H140813   6.201   4.298   4.361  1.0104 -0.8176  1.0165
 6466TIP3    H240814   6.265   4.404   4.449 -0.5164  0.9782  0.0380
 6467TIP3   OH240815   2.300   4.167   5.695 -0.2901 -0.4689 -0.3210
 6467TIP3    H140816   2.288   4.244   5.749 -0.1053  2.3388 -3.8963
 6467TIP3    H240817   2.211   4.133   5.681 -0.4185 -0.6455  0.8427
 6468TIP3   OH240818   6.328   5.566   4.225  0.4072  0.2840 -0.4006
 6468TIP3    H140819   6.377   5.559   4.307  0.1796 -0.6864 -0.3395
 6468TIP3    H240820   6.328   5.660   4.205 -2.7680  1.1448  2.6747
 6469TIP3   OH240821   6.207   3.732  14.823  0.1385  0.4184  0.2767
 6469TIP3    H140822   6.134   3.685  14.863 -0.3491  0.2492 -0.7596
 6469TIP3    H240823   6.202   3.820  14.859 -1.9111  1.0452 -1.3224
 6470TIP3   OH240824   5.722   5.835   1.287 -0.0430 -0.0412 -0.0996
 6470TIP3    H140825   5.814   5.810   1.289  0.2444  0.8784 -0.9708
 6470TIP3    H240826   5.716   5.902   1.218 -1.4231 -0.3494 -0.3263
 6471TIP3   OH240827   5.345   1.844   2.544  0.1360  0.1119  0.3070
 6471TIP3    H140828   5.359   1.824   2.452  0.0562  0.2281  0.2699
 6471TIP3    H240829   5.392   1.926   2.559  0.7101 -0.2470  0.5293
 6472TIP3   OH240830   2.875   2.652   3.897  0.4053  0.1393 -0.2109
 6472TIP3    H140831   2.836   2.670   3.983  2.1531 -0.1099  0.6776
 6472TIP3    H240832   2.879   2.557   3.892 -0.9597  0.1048 -1.2059
 6473TIP3   OH240833   5.545   0.016  16.816 -0.3388  0.1447 -0.6412
 6473TIP3    H140834   5.584   0.098  16.847 -2.3224  0.9916 -0.2212
 6473TIP3    H240835   5.521  -0.031  16.897 -0.8281 -0.0259 -0.8835
 6474TIP3   OH240836   3.057   4.516  14.465  0.2301 -0.1367 -0.0726
 6474TIP3    H140837   3.064   4.425  14.494  2.2761 -0.8930 -2.5824
 6474TIP3    H240838   3.000   4.513  14.389  1.2203  0.4558 -0.8666
 6475TIP3   OH240839   0.108   5.271   3.373  0.6256 -0.5168  0.0392
 6475TIP3    H140840   0.015   5.256   3.384  0.0236  2.7155  0.4055
 6475TIP3    H240841   0.139   5.195   3.324 -2.3858 -1.2016 -1.0166
 6476TIP3   OH240842   6.805   6.123   4.431 -0.0401  0.3231  0.5253
 6476TIP3    H140843   6.712   6.136   4.414 -0.9888 -1.5143  3.4025
 6476TIP3    H240844   6.816   6.143   4.524  2.1261 -0.8278  0.6123
 6477TIP3   OH240845   0.785   4.121   5.554 -0.4188 -0.8479  0.2787
 6477TIP3    H140846   0.836   4.197   5.582  1.1056 -2.0521  0.9721
 6477TIP3    H240847   0.775   4.069   5.634 -2.6227 -0.7460  0.1132
 6478TIP3   OH240848   6.803   5.214  17.062  0.2276 -0.3490 -0.1585
 6478TIP3    H140849   6.821   5.158  17.137  1.0031  1.1468  0.8303
 6478TIP3    H240850   6.759   5.291  17.100 -0.1609  0.0313 -1.3518
 6479TIP3   OH240851   5.034   2.477  16.992 -0.1418  0.2084 -0.3323
 6479TIP3    H140852   5.098   2.549  16.990  1.7425 -1.3858 -1.8455
 6479TIP3    H240853   5.020   2.461  17.086  0.3192  1.7408  0.0303
 6480TIP3   OH240854   6.314   6.329  15.757 -0.6362 -0.3254  0.5170
 6480TIP3    H140855   6.232   6.320  15.806 -1.3269  2.2773  0.0105
 6480TIP3    H240856   6.287   6.366  15.673  1.0353  0.7522  0.4065
 6481TIP3   OH240857   6.546   5.338  12.774 -0.0499  0.1755  0.1585
 6481TIP3    H140858   6.492   5.270  12.815  0.2080  0.5180  1.0969
 6481TIP3    H240859   6.589   5.381  12.848 -0.8866  1.9553 -0.3378
 6482TIP3   OH240860   1.754   4.909  14.994 -0.0599  0.2695  0.3213
 6482TIP3    H140861   1.811   4.836  15.020 -1.5568 -0.9904  0.2658
 6482TIP3    H240862   1.694   4.919  15.068  1.0061  2.4625  0.9610
 6483TIP3   OH240863   3.981   2.672   0.022  1.3428 -0.0568  0.2583
 6483TIP3    H140864   4.066   2.705  -0.008  0.6631 -0.0124 -1.7526
 6483TIP3    H240865   3.956   2.606  -0.043  0.0537 -0.4351  1.0941
 6484TIP3   OH240866   1.780   1.584   5.609 -0.1525 -0.0928 -0.3617
 6484TIP3    H140867   1.840   1.637   5.662  0.2031 -0.6603 -0.1833
 6484TIP3    H240868   1.698   1.584   5.658  0.2069 -0.7113  0.2663
 6485TIP3   OH240869   5.416   2.186  11.031  0.3976 -0.0198  0.1384
 6485TIP3    H140870   5.362   2.234  10.968 -0.4630  0.5037  1.2234
 6485TIP3    H240871   5.460   2.255  11.082 -0.6087 -0.3410  1.5101
 6486TIP3   OH240872   2.259   4.647   1.538 -0.6986  0.5160  0.6852
 6486TIP3    H140873   2.297   4.683   1.617  1.4957  0.2532 -0.1746
 6486TIP3    H240874   2.243   4.723   1.482  0.2824  0.5033  0.3691
 6487TIP3   OH240875   1.996   0.728  14.935 -0.1762 -0.0671  0.0890
 6487TIP3    H140876   2.028   0.810  14.897  0.1367 -1.1446 -2.0898
 6487TIP3    H240877   2.074   0.674  14.946 -0.7876 -1.5969 -2.4444
 6488TIP3   OH240878   0.667   5.646  16.394  0.0285  0.0186  0.3564
 6488TIP3    H140879   0.667   5.551  16.400  0.8327  0.0240  0.5558
 6488TIP3    H240880   0.707   5.675  16.476 -0.2922  0.5341  0.3357
 6489TIP3   OH240881   4.484   2.447   5.222 -0.6639  0.2399  0.2183
 6489TIP3    H140882   4.412   2.490   5.267 -0.4850  0.6125  0.1472
 6489TIP3    H240883   4.545   2.422   5.291 -0.7307  0.1667  0.2510
 6490TIP3   OH240884   3.065   6.335  14.839 -0.9581  0.2693  0.6475
 6490TIP3    H140885   3.009   6.408  14.813  1.3766  1.4242 -1.4983
 6490TIP3    H240886   3.121   6.371  14.908 -0.2864  0.2738  0.0976
 6491TIP3   OH240887   5.499   3.157   3.049  0.8838  0.1368  0.0483
 6491TIP3    H140888   5.574   3.215   3.065  1.8637 -1.1681  0.3761
 6491TIP3    H240889   5.539   3.075   3.022 -0.5102 -0.1715 -1.1402
 6492TIP3   OH240890   1.507   6.093  13.470 -0.0323  0.4828 -0.3021
 6492TIP3    H140891   1.543   6.157  13.408 -0.2018 -0.3886 -1.3308
 6492TIP3    H240892   1.514   6.136  13.555  1.5532  1.1657 -0.7236
 6493TIP3   OH240893   6.047   5.881   1.886 -0.1227 -0.3254  0.2630
 6493TIP3    H140894   6.142   5.875   1.879  0.0046  0.9060  0.6317
 6493TIP3    H240895   6.015   5.880   1.795  0.2805 -0.3537  0.1224
 6494TIP3   OH240896   6.608   4.643  15.986 -0.7753 -0.1252  0.5660
 6494TIP3    H140897   6.628   4.682  16.071  0.8972  0.1487  0.0893
 6494TIP3    H240898   6.694   4.633  15.944 -1.6483  0.9576 -1.6251
 6495TIP3   OH240899   1.972   4.782  14.785 -0.3605  0.6323  0.2161
 6495TIP3    H140900   2.056   4.739  14.796 -0.4845  0.7360  1.7537
 6495TIP3    H240901   1.909   4.725  14.830 -1.4337 -0.2878 -2.2501
 6496TIP3   OH240902   4.401   3.782   5.246 -0.0789 -0.1996 -0.1060
 6496TIP3    H140903   4.324   3.734   5.217 -0.7047  0.2380  0.7735
 6496TIP3    H240904   4.401   3.773   5.341  0.3534  0.6851 -0.0095
 6497TIP3   OH240905   3.126   4.012   1.798  0.5571 -0.2986 -0.4281
 6497TIP3    H140906   3.124   3.946   1.868 -0.0332  0.1882  0.0316
 6497TIP3    H240907   3.054   4.071   1.820  1.5889  0.9745 -0.3688
 6498TIP3   OH240908   0.643   6.459  12.378 -0.0342 -0.3067 -0.2814
 6498TIP3    H140909   0.555   6.477  12.345  0.5071  2.2156 -0.5480
 6498TIP3    H240910   0.689   6.542  12.369  2.1058 -1.3110  0.7593
 6499TIP3   OH240911   5.463   2.069   0.942 -0.0688  0.0409  0.7024
 6499TIP3    H140912   5.411   2.075   1.021  0.3566  2.7110  0.8757
 6499TIP3    H240913   5.405   2.100   0.872  1.4382  4.7241  1.1258
 6500TIP3   OH240914   5.748   3.666   0.808  0.4542  0.4223  0.2126
 6500TIP3    H140915   5.800   3.727   0.754  0.3180  1.1300  0.8686
 6500TIP3    H240916   5.671   3.717   0.834  0.7296  0.2383  1.4385
 6501TIP3   OH240917   2.182   3.278  13.945  0.5169  0.0044  0.0824
 6501TIP3    H140918   2.249   3.319  13.891  0.5478  1.0817  0.8930
 6501TIP3    H240919   2.147   3.207  13.891  2.7967 -1.0801 -0.1021
 6502TIP3   OH240920   6.438   2.625  13.917  0.2519  0.3966 -0.0867
 6502TIP3    H140921   6.360   2.578  13.947  0.3704  0.8550  0.9733
 6502TIP3    H240922   6.483   2.651  13.997  0.9981  0.9725 -0.6752
 6503TIP3   OH240923   1.096   0.463  13.269  0.1311  0.7568  0.4153
 6503TIP3    H140924   1.002   0.479  13.255  0.2370  1.4189  0.4049
 6503TIP3    H240925   1.102   0.369  13.285 -0.7080  0.8910  1.7331
 6504TIP3   OH240926   6.422   3.893  11.594  0.1033 -0.2319  0.0201
 6504TIP3    H140927   6.480   3.969  11.599 -2.1695  1.5701  1.3241
 6504TIP3    H240928   6.445   3.839  11.670  0.3374  0.2704  0.3065
 6505TIP3   OH240929   4.175   6.415  11.510 -0.4574  0.1187  0.4160
 6505TIP3    H140930   4.166   6.510  11.515 -0.4010  0.2250 -1.0124
 6505TIP3    H240931   4.162   6.394  11.417 -0.7201 -1.2973  0.7405
 6506TIP3   OH240932   2.077   1.381   3.294 -0.5694  0.3888 -1.1528
 6506TIP3    H140933   2.092   1.326   3.217 -2.4631  0.9258 -1.9370
 6506TIP3    H240934   1.988   1.415   3.284 -0.6319  1.0189  0.9397
 6507TIP3   OH240935   0.620   2.903   5.410  0.4803  0.7896  0.5027
 6507TIP3    H140936   0.603   2.816   5.375  0.7192  0.1330  1.9701
 6507TIP3    H240937   0.655   2.952   5.335 -1.5083  0.2563 -0.8646
 6508TIP3   OH240938   0.019   3.852  14.105 -0.6609  0.0148 -0.2451
 6508TIP3    H140939  -0.044   3.785  14.132 -0.6105 -0.2242 -0.7016
 6508TIP3    H240940   0.103   3.805  14.101 -0.5521  0.2017 -0.1692
 6509TIP3   OH240941   6.563   0.596   0.532  0.3063  0.4549 -0.1220
 6509TIP3    H140942   6.619   0.653   0.480 -0.4628  0.2279 -1.2433
 6509TIP3    H240943   6.492   0.572   0.472 -0.0333 -0.6854  0.7128
 6510TIP3   OH240944   3.310   0.818   1.516  0.1222 -0.4705 -0.1095
 6510TIP3    H140945   3.290   0.729   1.547  0.3893 -1.2677 -2.1161
 6510TIP3    H240946   3.404   0.828   1.533  0.1277 -0.6240 -0.0427
 6511TIP3   OH240947   4.245   2.957  16.588 -0.0339  0.5259  0.4918
 6511TIP3    H140948   4.239   2.888  16.522  0.1029 -0.4025  1.4309
 6511TIP3    H240949   4.186   2.929  16.658 -0.8656  1.9424  0.3885
 6512TIP3   OH240950   1.091   2.563   2.035 -0.6350 -0.2297  0.5132
 6512TIP3    H140951   1.106   2.657   2.026 -0.8961 -0.1835  0.5375
 6512TIP3    H240952   1.176   2.523   2.019 -0.5680 -0.0011  0.2945
 6513TIP3   OH240953   4.261   2.629   2.437  0.2195 -0.0845 -0.0443
 6513TIP3    H140954   4.174   2.661   2.460 -0.0682 -0.1267 -1.0059
 6513TIP3    H240955   4.252   2.599   2.346  0.8248 -1.5980  0.3573
 6514TIP3   OH240956   0.355   0.567  13.065 -0.1426 -0.1428 -0.5018
 6514TIP3    H140957   0.445   0.583  13.094 -0.0806 -1.7427  0.3115
 6514TIP3    H240958   0.364   0.503  12.995 -0.5580  0.9713 -1.6039
 6515TIP3   OH240959   3.280   5.803   5.747 -0.0030 -0.0539 -0.2344
 6515TIP3    H140960   3.281   5.797   5.651  0.2493  0.6896 -0.2909
 6515TIP3    H240961   3.367   5.774   5.774 -0.5941 -1.8130 -0.0982
 6516TIP3   OH240962   2.989   6.593   3.725 -0.2947 -0.2632 -0.5369
 6516TIP3    H140963   2.982   6.642   3.807  0.1655  0.5128 -0.9518
 6516TIP3    H240964   3.019   6.506   3.752 -0.8883 -0.2551  0.1848
 6517TIP3   OH240965   2.295   5.417   5.670 -0.4649 -0.8819  0.4577
 6517TIP3    H140966   2.379   5.397   5.630 -0.6057 -0.2588 -0.1657
 6517TIP3    H240967   2.293   5.364   5.750  0.7350 -0.5137  0.7536
 6518TIP3   OH240968   2.731   5.911   2.729 -0.0248 -0.7081  0.3535
 6518TIP3    H140969   2.689   5.836   2.686 -1.2360  0.9825 -1.6374
 6518TIP3    H240970   2.769   5.961   2.657  0.6066  0.6865  1.6072
 6519TIP3   OH240971   6.717   1.091   4.854  0.5002 -0.5758 -0.1664
 6519TIP3    H140972   6.798   1.058   4.893 -0.1744 -1.0971  0.8051
 6519TIP3    H240973   6.733   1.085   4.760  2.6254  1.8345 -0.0808
 6520TIP3   OH240974   6.127   1.788   2.417  0.5571  0.0166  0.0752
 6520TIP3    H140975   6.154   1.780   2.509  0.5182 -2.0367 -0.0523
 6520TIP3    H240976   6.078   1.707   2.399  1.7048 -0.2608 -2.1196
 6521TIP3   OH240977   5.240   2.575  15.736 -0.0109 -0.6317 -0.0099
 6521TIP3    H140978   5.255   2.598  15.645  3.0037 -2.4748 -0.0963
 6521TIP3    H240979   5.194   2.491  15.733 -1.0755 -0.0773  0.2236
 6522TIP3   OH240980   4.817   0.232   1.404  0.1218  0.3715  0.2139
 6522TIP3    H140981   4.859   0.148   1.388  1.2943  0.7132  1.3501
 6522TIP3    H240982   4.835   0.284   1.326  0.6609  0.0663  0.1325
 6523TIP3   OH240983   4.171   6.703   4.046  0.3382 -0.2989  0.3428
 6523TIP3    H140984   4.158   6.748   4.130  1.5480  0.7166  0.0103
 6523TIP3    H240985   4.257   6.661   4.054  0.0949 -0.8965 -0.0909
 6524TIP3   OH240986   4.978   1.611  13.003 -0.2284 -0.0987  1.0903
 6524TIP3    H140987   4.985   1.683  13.066 -1.8134  3.3807 -2.3295
 6524TIP3    H240988   5.065   1.606  12.962 -0.9700  2.5422 -1.0836
 6525TIP3   OH240989   2.379   2.295  13.984 -0.3085  0.5184 -0.5553
 6525TIP3    H140990   2.291   2.333  13.983 -1.2498 -1.4520  0.8118
 6525TIP3    H240991   2.436   2.366  14.014 -1.5425  1.6140 -0.7406
 6526TIP3   OH240992   5.329   6.446  14.508 -0.5472  0.0916  0.0662
 6526TIP3    H140993   5.304   6.426  14.598  1.8312  0.0191  0.7855
 6526TIP3    H240994   5.321   6.541  14.501 -2.1890 -0.0332 -0.1745
 6527TIP3   OH240995   6.442   1.178  12.010 -0.0568 -0.0699 -0.4154
 6527TIP3    H140996   6.488   1.119  12.071  0.0703 -0.1086 -0.5478
 6527TIP3    H240997   6.492   1.260  12.015 -0.9044  0.4075  0.6344
 6528TIP3   OH240998   4.400   3.516   4.919 -0.8281  0.0125 -0.6589
 6528TIP3    H140999   4.379   3.423   4.920 -1.5089  0.1320  1.7356
 6528TIP3    H241000   4.340   3.554   4.855 -1.7603 -0.9444 -0.3774
 6529TIP3   OH241001   6.091   4.780   6.227 -0.3550  0.3455 -0.5103
 6529TIP3    H141002   6.180   4.754   6.202 -0.4868  0.4739 -1.1391
 6529TIP3    H241003   6.087   4.873   6.206 -0.1662  0.6894  0.9090
 6530TIP3   OH241004   1.889   0.258  14.806 -0.0296  0.5640 -0.2147
 6530TIP3    H141005   1.826   0.329  14.797 -1.3819 -0.5830 -0.0936
 6530TIP3    H241006   1.850   0.184  14.760  0.8621 -0.4099  0.5252
 6531TIP3   OH241007   4.437   1.127   0.366 -0.1325 -0.4016 -0.2884
 6531TIP3    H141008   4.373   1.166   0.306  1.4064  1.0957 -1.0248
 6531TIP3    H241009   4.521   1.162   0.338  0.9029 -1.4090  1.3868
 6532TIP3   OH241010   4.887   5.691  15.688  0.3712  0.0452  0.1962
 6532TIP3    H141011   4.886   5.756  15.618  0.7371  0.8314  0.8963
 6532TIP3    H241012   4.835   5.731  15.758  0.8096 -0.3116  0.7302
 6533TIP3   OH241013   4.812   3.234  15.836 -0.2670  0.6975 -0.6494
 6533TIP3    H141014   4.839   3.153  15.879 -0.2809  1.3170  0.5576
 6533TIP3    H241015   4.888   3.291  15.842 -0.6324  1.1760 -0.4473
 6534TIP3   OH241016   6.697   5.940  11.958 -0.0071  0.0058  0.2208
 6534TIP3    H141017   6.698   5.999  11.883 -0.7739 -0.3366 -0.0656
 6534TIP3    H241018   6.693   5.997  12.034 -1.2341  0.3311 -0.0669
 6535TIP3   OH241019   2.227   5.115   2.325  0.5004  0.1302  0.1249
 6535TIP3    H141020   2.257   5.201   2.355  0.3980  0.1777  0.0940
 6535TIP3    H241021   2.234   5.059   2.402  1.2788 -0.0217 -0.0448
 6536TIP3   OH241022   5.927   6.722  14.881 -0.2543  0.8317  0.5186
 6536TIP3    H141023   5.999   6.675  14.922 -0.6024  0.9165  1.2343
 6536TIP3    H241024   5.894   6.662  14.814  0.1458  0.5853  0.5455
 6537TIP3   OH241025   1.561   0.891   5.144 -0.6394 -0.2933 -0.3417
 6537TIP3    H141026   1.540   0.956   5.212 -1.1651  0.5186 -1.2655
 6537TIP3    H241027   1.581   0.943   5.067  0.6476 -1.1907 -0.6394
 6538TIP3   OH241028   6.701   4.008   6.126  0.2195  0.2621 -0.3105
 6538TIP3    H141029   6.747   4.082   6.086  0.9806  0.0273  0.1282
 6538TIP3    H241030   6.664   3.960   6.052  1.3233  0.0318 -0.7351
 6539TIP3   OH241031   0.775   2.919  13.212 -0.0951 -0.3373 -0.3989
 6539TIP3    H141032   0.853   2.869  13.237 -0.1191 -0.0172  0.3439
 6539TIP3    H241033   0.736   2.869  13.141 -0.2839 -1.5587  0.5247
 6540TIP3   OH241034   3.263   1.711  16.118  0.4805  0.2638  0.3107
 6540TIP3    H141035   3.220   1.645  16.171 -0.0914  1.7095  1.7426
 6540TIP3    H241036   3.259   1.677  16.028 -0.2476 -1.3622  0.9222
 6541TIP3   OH241037   3.768   2.957   3.246  0.2762 -0.2687 -0.2861
 6541TIP3    H141038   3.794   2.867   3.226 -0.6298 -0.1199 -2.4532
 6541TIP3    H241039   3.850   3.006   3.251  0.7057 -0.7258 -1.9799
 6542TIP3   OH241040   3.424   3.562  15.011  0.6743  0.2950 -0.3602
 6542TIP3    H141041   3.345   3.589  14.964  0.5352  1.8990  0.7331
 6542TIP3    H241042   3.495   3.602  14.961  0.5733  1.3871  0.3408
 6543TIP3   OH241043   3.895   3.122   2.811  0.3089  0.1622 -0.5369
 6543TIP3    H141044   3.822   3.134   2.872  0.1802  0.0641 -0.6735
 6543TIP3    H241045   3.901   3.206   2.764  1.3594  0.7847  0.6506
 6544TIP3   OH241046   1.204   5.250  16.302 -0.7276 -0.0841 -0.4234
 6544TIP3    H141047   1.130   5.198  16.271  0.1136 -0.4863 -1.8369
 6544TIP3    H241048   1.182   5.339  16.277 -1.1210 -0.0740 -0.0587
 6545TIP3   OH241049   4.687   0.896  11.131 -0.1187  0.1347  0.2156
 6545TIP3    H141050   4.714   0.832  11.065 -0.8460 -1.1528  1.1278
 6545TIP3    H241051   4.602   0.927  11.101 -0.2387 -0.0996  0.3176
 6546TIP3   OH241052   2.445   1.803  13.269  0.3174  0.3692  0.0056
 6546TIP3    H141053   2.416   1.824  13.180  0.7043 -0.0002 -0.2122
 6546TIP3    H241054   2.383   1.736  13.299  0.6136 -0.0184 -0.2507
 6547TIP3   OH241055   3.780   5.455  11.377 -1.1447  0.8170 -0.2567
 6547TIP3    H141056   3.867   5.496  11.381 -0.9334  0.5920 -1.7930
 6547TIP3    H241057   3.798   5.362  11.390 -0.8211  0.4730 -2.5945
 6548TIP3   OH241058   2.540   4.155   2.414 -0.1950  0.3544 -0.1468
 6548TIP3    H141059   2.579   4.239   2.387  0.6046 -0.3722 -1.3501
 6548TIP3    H241060   2.521   4.166   2.507  1.4941  1.2891  0.1381
 6549TIP3   OH241061   4.014   1.743  16.298  0.0750  0.2436  0.1342
 6549TIP3    H141062   3.936   1.770  16.347  0.1566 -2.4142  1.9341
 6549TIP3    H241063   4.078   1.720  16.365  1.1042 -1.1430 -1.2657
 6550TIP3   OH241064   5.549   1.962  12.945 -0.6221  0.5331  0.5288
 6550TIP3    H141065   5.521   1.964  13.036  0.7822 -1.4594  1.0734
 6550TIP3    H241066   5.493   1.896  12.904  0.3401 -0.3248  0.5638
 6551TIP3   OH241067   3.991   0.750  12.689 -0.0660  0.2681 -0.7072
 6551TIP3    H141068   4.041   0.715  12.762  0.3550 -1.6622 -1.8487
 6551TIP3    H241069   3.905   0.769  12.726 -0.3707 -2.1900 -0.0025
 6552TIP3   OH241070   4.359   2.011   2.805 -0.7489  0.2230 -0.4691
 6552TIP3    H141071   4.433   2.068   2.785 -0.1338  0.5403  2.3308
 6552TIP3    H241072   4.386   1.925   2.775  1.2790  0.1273  1.4104
 6553TIP3   OH241073   3.197   2.120  11.788 -0.5235  0.0058  0.0801
 6553TIP3    H141074   3.266   2.059  11.814 -1.2302 -0.8428 -0.0099
 6553TIP3    H241075   3.118   2.084  11.827 -1.0864  0.4256 -0.6603
 6554TIP3   OH241076   2.287   6.192   5.111 -0.1383  0.1118 -0.2683
 6554TIP3    H141077   2.246   6.126   5.167 -0.0041 -1.9127 -2.4063
 6554TIP3    H241078   2.282   6.273   5.162 -0.9557 -1.3704  2.1830
 6555TIP3   OH241079   4.704   2.737   0.855 -0.1620 -0.0015  0.2259
 6555TIP3    H141080   4.708   2.832   0.861 -0.1104  0.1285 -1.4499
 6555TIP3    H241081   4.613   2.718   0.833  0.0696 -0.2354 -0.5808
 6556TIP3   OH241082   3.570   0.524  11.984  0.1662  0.0802  0.0768
 6556TIP3    H141083   3.587   0.591  12.050 -0.1466 -0.1904  0.4396
 6556TIP3    H241084   3.599   0.563  11.902 -0.9970  1.0944  0.1127
 6557TIP3   OH241085   0.165   3.028  11.483  0.2226  0.0736 -0.1008
 6557TIP3    H141086   0.184   3.030  11.390 -1.8985 -0.8833 -0.6290
 6557TIP3    H241087   0.246   2.997  11.524  0.8386 -0.5823 -1.7393
 6558TIP3   OH241088   4.900   0.508   6.031 -0.3391 -0.2165 -0.4258
 6558TIP3    H141089   4.938   0.427   5.995 -2.0735 -1.7035  0.9050
 6558TIP3    H241090   4.810   0.509   5.998 -1.1100 -0.1906  1.5868
 6559TIP3   OH241091   1.707   4.504   0.764  0.4639  0.3730 -0.3175
 6559TIP3    H141092   1.737   4.594   0.778  1.4114  0.0862 -0.4402
 6559TIP3    H241093   1.709   4.464   0.851 -0.2951  0.5545 -0.2035
 6560TIP3   OH241094   4.502   0.296   0.003 -0.8544  0.4279  0.4053
 6560TIP3    H141095   4.488   0.315   0.095 -1.1239  2.6181 -0.0354
 6560TIP3    H241096   4.483   0.378  -0.042 -1.6582 -0.8246 -1.7057
 6561TIP3   OH241097   4.402   3.466   6.562 -0.1552  0.0511  0.0774
 6561TIP3    H141098   4.390   3.384   6.514 -0.3760  0.9823 -1.5341
 6561TIP3    H241099   4.476   3.509   6.518 -0.5559  1.0801  0.3765
 6562TIP3   OH241100   1.173   2.721   2.573 -0.1875 -0.5615  0.1312
 6562TIP3    H141101   1.155   2.739   2.480 -0.0973 -0.2141  0.1794
 6562TIP3    H241102   1.116   2.648   2.594 -0.2611 -0.5976 -0.1823
 6563TIP3   OH241103   6.127   3.785   1.553 -0.0701 -0.3860  0.4693
 6563TIP3    H141104   6.144   3.772   1.646  1.5219 -1.5972  0.0649
 6563TIP3    H241105   6.040   3.825   1.549 -1.0304 -2.0989  2.3803
 6564TIP3   OH241106   3.009   6.022  11.226  0.5830 -0.2651 -0.5040
 6564TIP3    H141107   3.072   6.085  11.191  1.5746 -1.2925 -0.6267
 6564TIP3    H241108   2.942   6.016  11.158 -0.8888  2.4730  0.5477
 6565TIP3   OH241109   2.134   1.020  12.219 -0.3649 -0.5203 -0.0167
 6565TIP3    H141110   2.151   0.996  12.311  1.4381  0.0972 -0.1418
 6565TIP3    H241111   2.145   1.115  12.217 -0.6193 -0.5028 -0.8280
 6566TIP3   OH241112   5.598   4.933   2.070 -0.1374  0.0594 -0.4640
 6566TIP3    H141113   5.666   5.000   2.058 -2.1627  2.3631  0.0179
 6566TIP3    H241114   5.543   4.967   2.141 -1.5776 -1.8785 -0.5591
 6567TIP3   OH241115   1.805   2.880   0.934 -0.3426  0.0042  0.4699
 6567TIP3    H141116   1.761   2.800   0.961  0.5645 -0.1829  1.4425
 6567TIP3    H241117   1.797   2.939   1.009  0.9055  0.0195  0.6156
 6568TIP3   OH241118   6.526   2.793  12.830  0.2406  0.4607 -0.3448
 6568TIP3    H141119   6.591   2.738  12.874 -0.6990  1.1300  2.0677
 6568TIP3    H241120   6.562   2.881  12.833 -0.8090  0.8815  1.2571
 6569TIP3   OH241121   0.243   2.074  16.098 -0.9446  0.2026 -0.1351
 6569TIP3    H141122   0.320   2.037  16.055  0.8672  2.2113  1.1830
 6569TIP3    H241123   0.171   2.019  16.069  0.9865 -1.8724 -1.3197
 6570TIP3   OH241124   2.219   5.442  13.094 -0.1660  0.4294  0.2856
 6570TIP3    H141125   2.309   5.436  13.060  0.3027 -0.9158  1.6424
 6570TIP3    H241126   2.212   5.531  13.127  1.3213  0.0449  1.7753
 6571TIP3   OH241127   1.822   4.677   2.947  0.5378 -0.1158 -0.3061
 6571TIP3    H141128   1.730   4.678   2.975  0.0832 -0.5359 -1.7012
 6571TIP3    H241129   1.851   4.587   2.961  0.3884 -0.2618 -0.9111
 6572TIP3   OH241130   3.282   6.157   4.785  0.0740 -0.6519 -0.6155
 6572TIP3    H141131   3.199   6.117   4.812 -0.0218  1.4383  2.7560
 6572TIP3    H241132   3.260   6.202   4.703 -2.4303  0.4776  0.5476
 6573TIP3   OH241133   1.319   2.851  10.252 -0.2220  0.1838 -0.0033
 6573TIP3    H141134   1.374   2.905  10.309  1.7133 -2.0800  0.4429
 6573TIP3    H241135   1.231   2.886  10.264  0.7968  2.6811  0.8392
 6574TIP3   OH241136   0.794   6.126  11.059  0.1285 -0.6560 -0.3375
 6574TIP3    H141137   0.846   6.167  10.990  0.6789 -0.4094  0.2117
 6574TIP3    H241138   0.708   6.113  11.020  0.4844 -0.6935 -1.1295
 6575TIP3   OH241139   3.874   5.530  13.616 -0.2698  0.0953  0.0186
 6575TIP3    H141140   3.857   5.549  13.709 -1.4344  1.0382 -0.3641
 6575TIP3    H241141   3.798   5.479  13.588  0.8354 -1.6000 -0.0430
 6576TIP3   OH241142   0.583   6.126   5.057 -0.5223  0.2295 -0.2535
 6576TIP3    H141143   0.513   6.102   5.118 -0.7800  0.9275 -0.2619
 6576TIP3    H241144   0.576   6.062   4.986 -0.5691 -0.2538  0.1828
 6577TIP3   OH241145   5.210   2.498  12.235 -0.3464 -0.3689 -0.8592
 6577TIP3    H141146   5.213   2.454  12.320 -1.0972  0.4538 -0.3752
 6577TIP3    H241147   5.263   2.444  12.177 -1.8063 -2.3119 -0.4925
 6578TIP3   OH241148   3.361   1.532  12.776 -0.2016  0.1787 -0.0230
 6578TIP3    H141149   3.447   1.575  12.774 -0.4815  0.7644  0.1951
 6578TIP3    H241150   3.378   1.448  12.819  0.3440  0.0919 -0.3890
 6579TIP3   OH241151   6.561   4.588  14.630  0.6576 -0.9684 -0.3546
 6579TIP3    H141152   6.535   4.677  14.607  0.2047 -1.0857 -0.3178
 6579TIP3    H241153   6.486   4.534  14.604  0.5600 -1.2289  0.4426
 6580TIP3   OH241154   4.032   5.905   3.068  0.1811 -0.0990  0.1468
 6580TIP3    H141155   4.012   5.997   3.055 -1.8742 -0.4454  0.5939
 6580TIP3    H241156   4.046   5.897   3.163 -0.3455 -0.3635  0.2042
 6581TIP3   OH241157   0.020   2.013  15.021 -0.4740  0.1645  0.3082
 6581TIP3    H141158  -0.043   1.961  15.071 -1.7652 -0.8786 -2.2134
 6581TIP3    H241159   0.102   1.966  15.031 -0.8871 -0.4771  0.7741
 6582TIP3   OH241160   2.155   2.937   5.817 -0.8199 -0.4842 -0.0940
 6582TIP3    H141161   2.224   2.991   5.855 -0.7189 -0.8655  0.2657
 6582TIP3    H241162   2.128   2.878   5.888 -1.7541 -0.1075 -0.1243
 6583TIP3   OH241163   2.062   4.498  15.961 -0.8707  0.5756 -0.6847
 6583TIP3    H141164   2.011   4.444  15.902 -1.1608  0.1040 -0.0217
 6583TIP3    H241165   2.120   4.549  15.904 -1.3629  0.3676 -1.3791
 6584TIP3   OH241166   5.167   3.164   5.394 -0.1396  0.1929  0.9218
 6584TIP3    H141167   5.103   3.235   5.383  0.8365  1.0565  0.6656
 6584TIP3    H241168   5.156   3.110   5.316  0.0561  0.8509  0.4242
 6585TIP3   OH241169   6.064   5.899  11.038 -0.0036  0.0468  0.5915
 6585TIP3    H141170   6.141   5.911  10.982  0.7056  0.3556  1.6020
 6585TIP3    H241171   6.050   5.804  11.037  0.4464 -0.0247  0.4592
 6586TIP3   OH241172   6.226   6.504   2.039  0.1003  0.1221 -0.3783
 6586TIP3    H141173   6.251   6.439   2.105 -0.4428  1.1738  0.9344
 6586TIP3    H241174   6.308   6.534   2.001  0.3981 -0.7952 -0.4637
 6587TIP3   OH241175   3.042   6.394   4.319  0.3052 -0.0959 -1.0921
 6587TIP3    H141176   3.014   6.414   4.408  0.0396 -0.4980 -1.0785
 6587TIP3    H241177   3.119   6.448   4.304 -0.1058  0.5498 -0.8932
 6588TIP3   OH241178   1.714   5.520  11.278 -0.2064 -0.3350  0.1200
 6588TIP3    H141179   1.683   5.578  11.348  2.0032  0.7528  0.2814
 6588TIP3    H241180   1.688   5.564  11.197  0.0552  0.0721  0.2541
 6589TIP3   OH241181   4.290   5.634   2.119  0.1174  0.8197  0.1614
 6589TIP3    H141182   4.233   5.607   2.047  0.9870  1.5229 -0.8128
 6589TIP3    H241183   4.337   5.554   2.144 -1.2047  0.2490  0.9296
 6590TIP3   OH241184   2.828   0.911  13.310  0.3864 -0.0360 -0.8882
 6590TIP3    H141185   2.842   0.816  13.306  0.0255 -0.0737 -1.4242
 6590TIP3    H241186   2.876   0.944  13.233  0.4584  0.2086 -0.7373
 6591TIP3   OH241187   0.240   5.486   1.295 -0.1069  0.0870 -0.2504
 6591TIP3    H141188   0.210   5.401   1.263  0.9319 -0.3282 -0.1782
 6591TIP3    H241189   0.275   5.530   1.218  2.1436 -0.8039  0.1567
 6592TIP3   OH241190   4.933   2.139  14.278 -0.5790 -0.0148 -0.5236
 6592TIP3    H141191   4.863   2.087  14.237 -1.8961 -0.4111  2.0445
 6592TIP3    H241192   4.952   2.208  14.214 -2.7073 -0.4219 -1.6822
 6593TIP3   OH241193   5.116   0.980   5.926 -0.2004  0.4893 -0.5210
 6593TIP3    H141194   5.188   0.956   5.867  0.3008  3.0393 -1.0844
 6593TIP3    H241195   5.159   1.014   6.004 -0.8687 -1.7228  0.9078
 6594TIP3   OH241196   5.762   4.202   4.157 -0.2783 -0.2483  0.2627
 6594TIP3    H141197   5.809   4.156   4.087  1.2995  0.9172  0.4974
 6594TIP3    H241198   5.670   4.194   4.133 -0.0016 -2.4775 -0.3118
 6595TIP3   OH241199   2.673   3.152  13.614  0.2089 -0.0637 -0.0007
 6595TIP3    H141200   2.646   3.090  13.547 -0.5639 -0.4204  0.6343
 6595TIP3    H241201   2.697   3.098  13.689  1.1342  0.3278  0.0077
 6596TIP3   OH241202   3.450   0.894  13.166 -0.1962 -0.3867 -0.7750
 6596TIP3    H141203   3.442   0.805  13.200 -0.1724  0.0040  0.2678
 6596TIP3    H241204   3.524   0.932  13.213  0.2790 -0.0475 -1.7537
 6597TIP3   OH241205   5.238   5.075   6.700  0.2837  0.3977  0.1367
 6597TIP3    H141206   5.234   5.144   6.635  2.7115  1.7787  1.3321
 6597TIP3    H241207   5.311   5.019   6.672 -1.0245 -1.1863 -0.2833
 6598TIP3   OH241208   3.477   2.304   4.120 -0.0164  0.1300  0.7441
 6598TIP3    H141209   3.547   2.360   4.088 -1.1975  1.6345  0.6807
 6598TIP3    H241210   3.522   2.228   4.158  1.5085 -1.0536 -3.0242
 6599TIP3   OH241211   0.147   1.137   4.314 -0.0274  0.0803 -0.1069
 6599TIP3    H141212   0.139   1.220   4.266  0.1759 -0.4947 -1.1754
 6599TIP3    H241213   0.091   1.076   4.266 -2.4238  0.2231  2.2689
 6600TIP3   OH241214   1.358   0.204  14.659  0.0900 -0.1223 -0.1030
 6600TIP3    H141215   1.278   0.193  14.607  1.0059  0.0337 -1.5786
 6600TIP3    H241216   1.395   0.287  14.630  1.3828 -0.7318 -0.2758
 6601TIP3   OH241217   0.454   5.157  11.105 -0.2341 -0.5844  0.0509
 6601TIP3    H141218   0.382   5.193  11.053  0.3151  2.4681  1.2159
 6601TIP3    H241219   0.473   5.225  11.170  2.3443 -2.1746  1.1071
 6602TIP3   OH241220   2.197   0.474  16.571 -0.8751  0.3007  0.0017
 6602TIP3    H141221   2.231   0.537  16.635 -1.6952  0.6039  0.1521
 6602TIP3    H241222   2.122   0.518  16.531 -0.0724  0.3129 -1.5508
 6603TIP3   OH241223   1.041   5.121  13.299  0.0344 -0.1921 -0.0757
 6603TIP3    H141224   1.033   5.071  13.217  1.9456  2.1474 -1.8511
 6603TIP3    H241225   1.135   5.137  13.307 -0.1169 -0.3480  2.6419
 6604TIP3   OH241226   6.666   2.231  15.359  0.0561  0.6960  0.3395
 6604TIP3    H141227   6.645   2.161  15.297 -1.1613  0.5772  0.8637
 6604TIP3    H241228   6.656   2.312  15.308 -1.0121  0.6030  0.3791
 6605TIP3   OH241229   5.813   3.029  10.556 -0.0122 -0.1041 -0.1508
 6605TIP3    H141230   5.760   3.008  10.479 -0.5750 -1.2447  0.5079
 6605TIP3    H241231   5.833   2.943  10.595  2.8790  0.2266 -0.7127
 6606TIP3   OH241232   1.167   4.756  16.313 -1.1627 -0.6578  0.6665
 6606TIP3    H141233   1.080   4.746  16.352 -1.0575  0.6534  1.2910
 6606TIP3    H241234   1.182   4.850  16.311 -1.2778 -0.5765 -2.9520
 6607TIP3   OH241235   0.902   0.217   3.598 -0.3211  0.0865  0.0674
 6607TIP3    H141236   0.875   0.250   3.512 -0.2901 -0.8252 -0.3148
 6607TIP3    H241237   0.973   0.274   3.625 -1.2480  1.2517  0.1353
 6608TIP3   OH241238   3.117   2.949   5.999 -0.5056 -0.0192 -0.7050
 6608TIP3    H141239   3.211   2.938   6.014 -0.5459  0.7190  0.2068
 6608TIP3    H241240   3.076   2.921   6.081 -0.9573  1.2636 -0.4561
 6609TIP3   OH241241   5.630   0.023   2.234  0.0106  1.6875 -0.3079
 6609TIP3    H141242   5.589  -0.021   2.160 -0.3910  0.5255  0.5664
 6609TIP3    H241243   5.576   0.100   2.249 -0.5082  1.3888 -0.5961
 6610TIP3   OH241244   0.362   3.562   3.861 -0.6301 -0.0735  0.0963
 6610TIP3    H141245   0.399   3.474   3.858 -0.8229 -0.1570  0.1393
 6610TIP3    H241246   0.407   3.606   3.933 -0.5938 -0.1649  0.1283
 6611TIP3   OH241247   5.116   0.204   0.195  0.1377  0.4345  0.5177
 6611TIP3    H141248   5.201   0.160   0.204 -0.0108 -0.0451 -0.3481
 6611TIP3    H241249   5.066   0.173   0.270  0.0586 -0.8564 -0.0385
 6612TIP3   OH241250   2.519   1.499  11.437  0.4068  0.5394 -0.2866
 6612TIP3    H141251   2.590   1.562  11.448  0.1353  0.9484 -0.8383
 6612TIP3    H241252   2.456   1.522  11.506  0.5906  0.4816 -0.1006
 6613TIP3   OH241253   4.268   3.288  14.293  0.1543 -0.1262 -0.6988
 6613TIP3    H141254   4.249   3.254  14.205 -0.1849 -0.6479 -0.4310
 6613TIP3    H241255   4.191   3.264  14.345  0.3275  0.2294 -0.2737
 6614TIP3   OH241256   1.014   6.144   0.663  0.7975 -0.1708  0.0217
 6614TIP3    H141257   0.958   6.145   0.585  0.1048  0.4573  0.5104
 6614TIP3    H241258   0.957   6.112   0.732  1.3189 -0.4176  0.3439
 6615TIP3   OH241259   2.688   0.609   6.139 -0.4083 -0.6284 -0.1536
 6615TIP3    H141260   2.644   0.547   6.197 -0.3522 -1.3250 -0.8361
 6615TIP3    H241261   2.632   0.612   6.061 -1.2783  1.4076  0.4866
 6616TIP3   OH241262   4.864   0.612   2.963  0.6269 -0.7899  0.3461
 6616TIP3    H141263   4.905   0.542   2.913 -0.1219 -1.1643  0.2476
 6616TIP3    H241264   4.834   0.674   2.898  0.5752 -0.7687  0.3902
 6617TIP3   OH241265   6.287   6.556   0.499  0.5866  0.1866 -0.3018
 6617TIP3    H141266   6.336   6.599   0.569 -1.0622  2.2354 -0.2997
 6617TIP3    H241267   6.262   6.628   0.440 -0.7874 -1.0390 -1.2792
 6618TIP3   OH241268   6.477   4.682   1.512  0.1487  0.6021  0.2828
 6618TIP3    H141269   6.383   4.692   1.501  0.0114 -1.2707 -0.7061
 6618TIP3    H241270   6.486   4.625   1.589  0.4570  0.4516  0.1365
 6619TIP3   OH241271   5.632   4.394  14.247  1.0344  0.0670 -0.5315
 6619TIP3    H141272   5.687   4.329  14.291  2.1554  0.6594 -1.0053
 6619TIP3    H241273   5.613   4.355  14.161 -1.2191 -1.1234  0.4318
 6620TIP3   OH241274   2.797   2.202  15.725 -0.3017  0.3546  0.3721
 6620TIP3    H141275   2.886   2.220  15.754  0.0602  0.4456 -0.7716
 6620TIP3    H241276   2.769   2.282  15.680 -1.1563  0.5185  1.1420
 6621TIP3   OH241277   6.543   4.784   4.306 -0.0743  0.4953  0.2136
 6621TIP3    H141278   6.613   4.722   4.325 -0.2047 -0.2947 -1.6700
 6621TIP3    H241279   6.478   4.768   4.374 -0.8080 -2.6232 -1.0425
 6622TIP3   OH241280   0.652   1.597   3.829  0.3502  0.1172 -0.1551
 6622TIP3    H141281   0.618   1.687   3.837  2.4408  0.9298  0.1675
 6622TIP3    H241282   0.637   1.574   3.737 -0.4800  0.6507 -0.1712
 6623TIP3   OH241283   2.705   5.130  11.168 -0.3378  0.8026  0.6460
 6623TIP3    H141284   2.730   5.054  11.117 -1.1507  1.2730 -0.5064
 6623TIP3    H241285   2.647   5.096  11.237  3.0905 -0.2735  3.2572
 6624TIP3   OH241286   0.517   2.685  11.225  0.6929  0.4220 -0.0422
 6624TIP3    H141287   0.483   2.623  11.289 -0.1386  1.1281  0.2262
 6624TIP3    H241288   0.456   2.681  11.152  1.9219 -0.7646 -1.0687
 6625TIP3   OH241289   5.829   2.236   3.846  0.1015 -0.0049  0.1103
 6625TIP3    H141290   5.888   2.303   3.881  0.2175 -1.3064  2.5432
 6625TIP3    H241291   5.742   2.272   3.860  0.2031  0.2691  0.0486
 6626TIP3   OH241292   5.310   2.397  16.879 -0.8434  0.2725 -0.9916
 6626TIP3    H141293   5.255   2.412  16.957  2.0223 -0.3902  1.3287
 6626TIP3    H241294   5.396   2.432  16.903  0.4870 -1.1349 -3.3857
 6627TIP3   OH241295   5.903   3.345  14.357  0.1234  0.0607 -0.1432
 6627TIP3    H141296   5.853   3.355  14.276  0.1881 -1.0914 -0.3475
 6627TIP3    H241297   5.840   3.362  14.427  0.6255  3.5649 -0.3893
 6628TIP3   OH241298   0.005   6.436  12.780 -0.1137 -0.2618  0.0785
 6628TIP3    H141299  -0.019   6.471  12.866 -0.5094  1.1037 -0.5606
 6628TIP3    H241300  -0.034   6.498  12.718 -0.1828 -1.4487 -1.0926
 6629TIP3   OH241301   2.104   0.748   4.418  0.2461 -0.3138 -0.1915
 6629TIP3    H141302   2.171   0.707   4.363 -0.7909 -0.9914 -0.9907
 6629TIP3    H241303   2.047   0.676   4.443  0.6833 -0.0179  1.8115
 6630TIP3   OH241304   6.434   5.253   2.781 -0.0851 -0.5635  0.7615
 6630TIP3    H141305   6.438   5.158   2.780 -0.5310 -0.6113 -1.7388
 6630TIP3    H241306   6.502   5.279   2.844  0.2457 -2.5055  1.2549
 6631TIP3   OH241307   0.985   3.745   3.497 -0.4311  0.0187  0.4501
 6631TIP3    H141308   1.063   3.731   3.444 -1.3890 -0.9238 -0.7842
 6631TIP3    H241309   0.976   3.840   3.503  0.4225  0.1328  0.0154
 6632TIP3   OH241310   1.102   3.182   3.507 -0.4742 -0.2092 -0.5492
 6632TIP3    H141311   1.189   3.145   3.491 -0.4094 -0.6440  0.6524
 6632TIP3    H241312   1.090   3.174   3.602 -0.6364  2.5086 -0.2604
 6633TIP3   OH241313   0.968   4.657   3.543  0.4571  0.2467  0.2332
 6633TIP3    H141314   1.009   4.727   3.593  1.7451 -0.2767 -0.0703
 6633TIP3    H241315   0.980   4.578   3.597  1.6496 -0.2764 -0.7549
 6634TIP3   OH241316   5.034   0.000  14.534 -0.4264  0.3380  0.1677
 6634TIP3    H141317   5.105  -0.063  14.534  0.2206  0.9482 -2.0827
 6634TIP3    H241318   5.067   0.075  14.582  0.1997  0.3325 -0.2423
 6635TIP3   OH241319   0.837   0.306  11.262  0.5303 -0.2114 -0.1989
 6635TIP3    H141320   0.885   0.353  11.194  0.1589  0.3206 -0.0972
 6635TIP3    H241321   0.795   0.374  11.313 -1.2182 -0.6912 -0.9287
 6636TIP3   OH241322   4.412   4.708  13.213 -0.0926 -0.0747  0.1123
 6636TIP3    H141323   4.352   4.725  13.285 -0.5079 -0.0910 -0.2273
 6636TIP3    H241324   4.484   4.770  13.226 -0.3773  0.2168  0.2941
 6637TIP3   OH241325   4.205   1.160   3.348  0.5905 -0.2264  0.3517
 6637TIP3    H141326   4.146   1.156   3.424  0.3972 -1.4078  0.1573
 6637TIP3    H241327   4.151   1.198   3.279  0.1436 -0.9980  0.2663
 6638TIP3   OH241328   0.689   6.807  15.005  0.6254  0.1419 -0.1460
 6638TIP3    H141329   0.720   6.776  15.090 -0.6584  0.1752  0.3552
 6638TIP3    H241330   0.687   6.729  14.950  0.4909 -0.0722  0.1575
 6639TIP3   OH241331   5.907   4.980   5.213 -0.4406 -0.3550  0.0416
 6639TIP3    H141332   5.883   4.977   5.306  1.0730  0.7382  0.5032
 6639TIP3    H241333   5.825   4.996   5.167 -1.1695 -0.6514  1.2108
 6640TIP3   OH241334   6.027   1.976  16.472 -0.3689 -0.1282 -0.1780
 6640TIP3    H141335   5.975   2.055  16.459  2.3402  1.7490 -0.4094
 6640TIP3    H241336   6.031   1.965  16.567  2.4392  2.4660  0.1484
 6641TIP3   OH241337   3.629   0.961   2.477  0.2819  0.2595  0.4018
 6641TIP3    H141338   3.718   0.940   2.448  0.6872  0.4806  1.4354
 6641TIP3    H241339   3.619   1.054   2.457 -0.2121 -0.0515 -0.9088
 6642TIP3   OH241340   1.765   1.182  13.794 -0.7334 -0.8158 -0.5222
 6642TIP3    H141341   1.785   1.221  13.879 -2.3953 -2.3268  0.6425
 6642TIP3    H241342   1.758   1.257  13.735  0.5653  0.2678  0.6331
 6643TIP3   OH241343   2.862   0.898  12.088  0.4545  0.0194  0.1675
 6643TIP3    H141344   2.788   0.954  12.113 -0.0769 -1.2245  1.5706
 6643TIP3    H241345   2.913   0.888  12.168  1.6529  0.1184 -0.5647
 6644TIP3   OH241346   4.653   2.717   2.191 -0.5513  0.4216  0.3827
 6644TIP3    H141347   4.617   2.631   2.210  0.0329  0.5545  2.1949
 6644TIP3    H241348   4.746   2.710   2.211 -0.2097  1.0874 -0.8490
 6645TIP3   OH241349   6.037   5.679   5.020 -0.3642  0.1762 -1.1585
 6645TIP3    H141350   6.087   5.760   5.017  0.1391 -0.0726  0.0640
 6645TIP3    H241351   6.047   5.642   4.932  0.9889  0.5147 -1.1759
 6646TIP3   OH241352   4.301   2.767   3.981  0.2068 -0.2482 -0.0823
 6646TIP3    H141353   4.306   2.781   4.076  0.8770 -0.1150 -0.1363
 6646TIP3    H241354   4.338   2.846   3.943  0.6395 -0.6263 -0.4465
 6647TIP3   OH241355   4.275   3.026  15.848  0.1727  0.0186  0.2706
 6647TIP3    H141356   4.361   3.064  15.867  0.3781 -0.2377 -0.1469
 6647TIP3    H241357   4.275   3.010  15.754  0.1284 -1.1117  0.4484
 6648TIP3   OH241358   1.325   4.526   3.698  0.6635  0.3285 -0.0810
 6648TIP3    H141359   1.388   4.597   3.687 -0.8114  1.7887  0.4042
 6648TIP3    H241360   1.315   4.517   3.793  0.0777  0.1849 -0.1514
 6649TIP3   OH241361   1.181   2.384   4.171 -0.4003 -0.3523  0.1840
 6649TIP3    H141362   1.257   2.335   4.138  0.4119 -0.1038  1.5986
 6649TIP3    H241363   1.167   2.453   4.106  1.1609  0.1494  0.3314
 6650TIP3   OH241364   2.042   1.378  16.065  0.3529 -0.3709 -0.7038
 6650TIP3    H141365   1.999   1.310  16.013  0.8398 -0.8263 -0.5059
 6650TIP3    H241366   1.994   1.379  16.147  0.9307 -1.1190 -0.3509
 6651TIP3   OH241367   3.659   6.311  16.605 -0.3806 -0.3984 -0.4770
 6651TIP3    H141368   3.626   6.297  16.693  0.5171 -0.6571 -0.1712
 6651TIP3    H241369   3.585   6.349  16.557  0.1048  3.1222  1.2632
 6652TIP3   OH241370   2.008   2.274   2.166  0.3486 -0.0268  0.1917
 6652TIP3    H141371   1.989   2.311   2.252 -2.0020 -1.0171  0.1747
 6652TIP3    H241372   1.988   2.346   2.105 -0.4922 -0.1027  0.3607
 6653TIP3   OH241373   6.127   6.022   0.925  0.1920 -0.3360 -0.0300
 6653TIP3    H141374   6.090   5.933   0.921 -0.9279  0.1114  0.1784
 6653TIP3    H241375   6.104   6.061   0.841  0.4010 -0.1335  0.0068
 6654TIP3   OH241376   2.078   0.204  12.372 -0.0068 -0.1119 -0.4627
 6654TIP3    H141377   2.074   0.227  12.279  0.3698  2.1906  0.0367
 6654TIP3    H241378   2.164   0.165  12.384 -0.6508 -1.9346 -1.3321
 6655TIP3   OH241379   5.184   0.051   2.121  0.3358  0.2693  0.0744
 6655TIP3    H141380   5.201   0.016   2.209 -1.2580  0.2597  0.4163
 6655TIP3    H241381   5.088   0.048   2.113  0.4415  0.6521 -1.5124
 6656TIP3   OH241382   6.364   0.514  11.701 -0.1501 -0.5431  0.2222
 6656TIP3    H141383   6.414   0.595  11.697 -1.5203  0.2827 -2.0727
 6656TIP3    H241384   6.287   0.535  11.755  0.2537 -0.8103  0.9185
 6657TIP3   OH241385   0.881   2.184  15.503  0.0877  0.1046  0.1228
 6657TIP3    H141386   0.970   2.216  15.486  0.4431 -1.1340 -0.4421
 6657TIP3    H241387   0.825   2.257  15.475  0.9112  0.8632  0.3899
 6658TIP3   OH241388   2.395   2.735  14.546  0.0950 -0.1436 -0.1370
 6658TIP3    H141389   2.419   2.812  14.597 -1.4527  0.7982 -0.7502
 6658TIP3    H241390   2.361   2.771  14.464 -1.8540 -1.3946  0.0635
 6659TIP3   OH241391   2.433   0.209  15.008  0.3172 -0.0529 -0.5541
 6659TIP3    H141392   2.443   0.287  14.953  0.2700 -0.4014 -1.0638
 6659TIP3    H241393   2.338   0.194  15.011  0.3183 -0.0316 -0.3643
 6660TIP3   OH241394   4.098   5.741   1.507  0.9013 -0.0036 -0.3571
 6660TIP3    H141395   4.135   5.799   1.441  0.5962 -0.7163 -1.1716
 6660TIP3    H241396   4.056   5.800   1.570  0.1401  0.6432 -1.4392
 6661TIP3   OH241397   5.294   1.050   6.123 -0.1684  0.0850  0.6609
 6661TIP3    H141398   5.283   1.143   6.141  0.8259  0.3365  0.0096
 6661TIP3    H241399   5.300   1.009   6.210 -1.1014  0.5542  0.9544
 6662TIP3   OH241400   0.254   2.318  13.868 -0.0023  0.0005 -0.2258
 6662TIP3    H141401   0.199   2.333  13.791  0.8875  0.1092 -0.8550
 6662TIP3    H241402   0.218   2.375  13.935 -2.4467 -1.9720  0.3080
 6663TIP3   OH241403   1.061   0.367   2.150 -0.0844 -0.1126  0.3259
 6663TIP3    H141404   1.057   0.421   2.071 -0.1483 -1.1743 -0.4098
 6663TIP3    H241405   1.039   0.279   2.121  0.8618 -0.7184  1.3474
 6664TIP3   OH241406   1.328   3.864  12.489 -0.4239 -0.3270 -0.0472
 6664TIP3    H141407   1.237   3.881  12.513  0.2294  0.7446  1.9163
 6664TIP3    H241408   1.362   3.814  12.563  0.2454 -1.9969 -1.4150
 6665TIP3   OH241409   5.699   5.755  16.417 -0.4419  0.1689 -0.1659
 6665TIP3    H141410   5.791   5.726  16.414 -0.3373  0.5925 -2.6199
 6665TIP3    H241411   5.652   5.680  16.453  0.8628  0.0514  1.4243
 6666TIP3   OH241412   1.306   5.096  14.205 -0.0013  0.2576 -0.2868
 6666TIP3    H141413   1.276   5.072  14.293 -0.2628  0.0375 -0.4347
 6666TIP3    H241414   1.299   5.015  14.154  0.1838  0.3756 -0.5029
 6667TIP3   OH241415   6.164   1.197  10.852 -0.7916 -0.0131  0.7548
 6667TIP3    H141416   6.165   1.285  10.815 -2.8689 -0.0017  0.5763
 6667TIP3    H241417   6.222   1.146  10.795 -0.0687  1.0942  0.4770
 6668TIP3   OH241418   4.261   4.678  14.833 -0.2023  0.4116  0.0074
 6668TIP3    H141419   4.339   4.638  14.872 -1.9154 -2.1852  0.9995
 6668TIP3    H241420   4.274   4.772  14.845  3.2159  0.1653 -0.7886
 6669TIP3   OH241421   5.698   0.493   3.873  0.0684  0.3393 -0.4860
 6669TIP3    H141422   5.705   0.495   3.777  1.5810  0.0196 -0.3995
 6669TIP3    H241423   5.685   0.585   3.897 -0.2524  0.4322 -0.9894
 6670TIP3   OH241424   3.870   6.799   5.850  0.1513 -0.6962 -0.5886
 6670TIP3    H141425   3.836   6.888   5.841 -2.1853 -1.6232 -2.0004
 6670TIP3    H241426   3.911   6.781   5.765  1.2304 -0.7608 -0.0681
 6671TIP3   OH241427   4.112   2.103  13.311  0.0455  0.1984  0.3779
 6671TIP3    H141428   4.169   2.086  13.386 -2.8107  0.2487  2.7589
 6671TIP3    H241429   4.074   2.189  13.328 -0.3291  0.4251 -1.4025
 6672TIP3   OH241430   5.660   1.609  14.650  0.3198  0.5864 -0.7572
 6672TIP3    H141431   5.738   1.646  14.691  0.8540 -1.6106  0.3226
 6672TIP3    H241432   5.677   1.615  14.556  2.1067 -0.4526 -0.5283
 6673TIP3   OH241433   0.448   3.270  12.613  0.1617 -0.1934 -0.5774
 6673TIP3    H141434   0.368   3.318  12.632  0.2538 -0.1498 -0.2984
 6673TIP3    H241435   0.451   3.265  12.517 -0.2345 -0.3052 -0.5835
 6674TIP3   OH241436   2.156   1.710   0.699  0.1204  0.2437 -0.7300
 6674TIP3    H141437   2.214   1.680   0.769 -0.7631 -1.4724 -0.6720
 6674TIP3    H241438   2.133   1.630   0.651 -1.8894  0.8965 -0.9553
 6675TIP3   OH241439   2.137   0.322   0.782 -0.1119 -0.1259 -0.4369
 6675TIP3    H141440   2.102   0.269   0.854 -1.5498 -0.3915 -1.2753
 6675TIP3    H241441   2.215   0.275   0.754 -1.2079 -1.7449 -0.9859
 6676TIP3   OH241442   6.398   2.558  12.757 -0.6290  0.7560 -0.3174
 6676TIP3    H141443   6.475   2.502  12.750 -1.6358 -1.0952  1.8427
 6676TIP3    H241444   6.433   2.646  12.769  1.2230 -0.1273  1.4412
 6677TIP3   OH241445   5.353   2.871  13.685  0.2874  0.0128 -0.3847
 6677TIP3    H141446   5.286   2.862  13.752 -1.0249  1.5381 -1.4335
 6677TIP3    H241447   5.426   2.915  13.729  0.9093 -2.1109  0.8954
 6678TIP3   OH241448   5.204   3.209   0.006  0.8490 -0.1585  0.0600
 6678TIP3    H141449   5.184   3.296  -0.028 -1.6087 -0.0544  1.5216
 6678TIP3    H241450   5.122   3.161  -0.004  2.0580 -2.2397 -0.4011
 6679TIP3   OH241451   5.063   4.916   5.240  0.2655  0.1150  0.4539
 6679TIP3    H141452   5.049   4.981   5.171  0.9238  0.8352  0.9798
 6679TIP3    H241453   5.155   4.889   5.229  0.0260 -0.6595  0.3000
 6680TIP3   OH241454   0.153   3.094   1.258  0.2595 -0.0902  0.7554
 6680TIP3    H141455   0.209   3.047   1.196  1.2767  2.1331 -0.1270
 6680TIP3    H241456   0.196   3.080   1.343 -0.1304 -1.6763  0.7207
 6681TIP3   OH241457   5.551   3.979  12.405 -0.1312  1.0688  0.4192
 6681TIP3    H141458   5.558   4.058  12.352  1.1266  0.2801 -0.6660
 6681TIP3    H241459   5.632   3.930  12.386 -2.0098 -1.7540 -1.1183
 6682TIP3   OH241460   1.237   0.919   5.650 -0.7340 -0.3273  0.4656
 6682TIP3    H141461   1.296   0.845   5.669  1.3574  1.0159 -0.4193
 6682TIP3    H241462   1.244   0.976   5.726 -0.0521  0.3145 -0.0562
 6683TIP3   OH241463   4.864   0.792   0.078  0.7046 -0.0645 -0.6664
 6683TIP3    H141464   4.892   0.724   0.139 -0.7646 -0.7825 -0.7516
 6683TIP3    H241465   4.858   0.747  -0.006  0.7086  0.4271 -0.9305
 6684TIP3   OH241466   4.574   3.447   3.493  0.7503  0.1829 -0.2926
 6684TIP3    H141467   4.653   3.411   3.452  0.0143 -0.1953 -1.4557
 6684TIP3    H241468   4.603   3.528   3.534  1.6521  0.3217 -1.1569
 6685TIP3   OH241469   3.711   1.318   0.573  0.3841  0.2350  0.2451
 6685TIP3    H141470   3.686   1.234   0.534  0.0144  0.5460 -0.1869
 6685TIP3    H241471   3.803   1.306   0.598  0.0098 -0.7042  1.2789
 6686TIP3   OH241472   2.275   1.305  16.484 -0.5003  0.4770  0.4768
 6686TIP3    H141473   2.352   1.285  16.538  1.3422  0.2980 -2.0489
 6686TIP3    H241474   2.306   1.373  16.423 -1.8521 -0.6573 -1.5770
 6687TIP3   OH241475   5.502   5.294  12.416  0.0669 -0.4346  0.3917
 6687TIP3    H141476   5.557   5.218  12.433  0.4125  0.0761  1.6524
 6687TIP3    H241477   5.544   5.366  12.464  0.8763  1.0692 -2.3291
 6688TIP3   OH241478   0.854   2.226   4.383 -0.1805  0.1215 -0.0574
 6688TIP3    H141479   0.888   2.279   4.455  0.0984 -2.0876  1.5476
 6688TIP3    H241480   0.760   2.221   4.399 -0.2635  0.4220 -0.4299
 6689TIP3   OH241481   1.104   0.826   4.008  0.1423 -0.5782 -0.3580
 6689TIP3    H141482   1.081   0.795   4.096 -0.4345  0.2933 -0.1840
 6689TIP3    H241483   1.030   0.800   3.954 -0.2582  0.2757 -0.2484
 6690TIP3   OH241484   6.192   1.802   1.508  0.5647  0.6271 -0.5392
 6690TIP3    H141485   6.264   1.759   1.556  0.1147  1.0576  0.5509
 6690TIP3    H241486   6.222   1.803   1.417  0.7328 -1.7320 -0.5925
 6691TIP3   OH241487   3.538   4.448   1.667  0.8199 -0.3440  0.5962
 6691TIP3    H141488   3.591   4.425   1.590 -0.7833 -0.7595 -0.4329
 6691TIP3    H241489   3.457   4.483   1.630  0.1631 -0.1984  2.1198
 6692TIP3   OH241490   2.716   4.611   0.196 -0.0393 -0.0857  0.3946
 6692TIP3    H141491   2.767   4.691   0.208 -0.1103  0.0885 -0.4120
 6692TIP3    H241492   2.770   4.555   0.142  0.2349 -0.8157  1.3935
 6693TIP3   OH241493   2.076   5.634   0.029  0.3393 -0.1671 -0.3263
 6693TIP3    H141494   2.017   5.630   0.105  0.3627  0.8000 -0.2477
 6693TIP3    H241495   2.025   5.679  -0.038  1.2129  1.3392 -0.0234
 6694TIP3   OH241496   2.064   5.460   5.505  0.8603 -0.6395 -0.3988
 6694TIP3    H141497   2.130   5.426   5.566  0.8236 -0.0386 -0.0087
 6694TIP3    H241498   1.985   5.408   5.524  0.4176  0.5024  1.1286
 6695TIP3   OH241499   6.353   6.328   4.977 -0.1532 -0.3774 -0.3474
 6695TIP3    H141500   6.407   6.400   4.943 -1.9960  1.5652  0.6388
 6695TIP3    H241501   6.264   6.362   4.976 -1.2339 -2.9996 -0.6299
 6696TIP3   OH241502   5.443   0.460  16.266  0.7053  0.0699 -0.4284
 6696TIP3    H141503   5.428   0.502  16.351 -1.1360 -0.0829 -0.6548
 6696TIP3    H241504   5.424   0.368  16.280 -0.2322  0.1405 -1.1400
 6697TIP3   OH241505   1.914   4.335   4.724  0.1213  0.1632 -0.7247
 6697TIP3    H141506   1.871   4.296   4.800  2.6041  1.4208  1.4582
 6697TIP3    H241507   1.857   4.407   4.698 -0.2053  0.4325  0.6813
 6698TIP3   OH241508   2.190   0.873  16.520  0.3277  0.1655  0.0229
 6698TIP3    H141509   2.257   0.812  16.487  0.7565  0.9331 -0.5743
 6698TIP3    H241510   2.219   0.958  16.489  0.1386  0.7867  1.4849
 6699TIP3   OH241511   6.566   3.444  16.412  0.3303 -0.2867  0.0492
 6699TIP3    H141512   6.566   3.479  16.323  0.7776 -0.6754 -0.1090
 6699TIP3    H241513   6.542   3.518  16.467 -0.4774 -0.1722 -0.4417
 6700TIP3   OH241514   3.857   3.422  11.279  0.2580  0.1934 -0.4912
 6700TIP3    H141515   3.764   3.399  11.280 -0.1948  1.7072  2.1445
 6700TIP3    H241516   3.902   3.339  11.263 -1.4897 -0.9301  0.0939
 6701TIP3   OH241517   1.541   1.771  15.886  0.0569  0.2032  0.6136
 6701TIP3    H141518   1.537   1.861  15.918 -1.6811  0.0379  0.9520
 6701TIP3    H241519   1.450   1.749  15.867  0.2215 -2.0877  2.1884
 6702TIP3   OH241520   2.484   3.250  15.916 -0.5208 -0.1683 -0.0686
 6702TIP3    H141521   2.553   3.209  15.967  0.0174 -0.0939 -0.7214
 6702TIP3    H241522   2.467   3.333  15.960  1.0288  0.6054 -0.8584
 6703TIP3   OH241523   6.429   4.594  12.392 -0.2178  0.0496 -0.1576
 6703TIP3    H141524   6.429   4.646  12.472  0.1744  0.1341 -0.2100
 6703TIP3    H241525   6.448   4.505  12.421 -1.3029 -0.1539 -0.0191
 6704TIP3   OH241526   3.311   3.226   4.931  0.2515  0.3391 -0.1827
 6704TIP3    H141527   3.373   3.217   4.859 -0.8260 -0.7585 -1.0306
 6704TIP3    H241528   3.332   3.310   4.972  3.7354 -0.9394  1.0060
 6705TIP3   OH241529   1.849   5.641  12.776 -0.7760 -0.5582 -0.0106
 6705TIP3    H141530   1.832   5.589  12.855 -1.8652 -0.8898 -0.4382
 6705TIP3    H241531   1.803   5.594  12.706 -0.9549  0.4410 -0.5897
 6706TIP3   OH241532   2.732   5.111  15.336  0.8652 -0.0074 -0.8434
 6706TIP3    H141533   2.797   5.040  15.334  0.8656 -0.0549  0.2434
 6706TIP3    H241534   2.777   5.184  15.378 -0.2797 -0.6058  1.5910
 6707TIP3   OH241535   1.209   4.074  11.639  0.3756 -0.4094  0.1539
 6707TIP3    H141536   1.281   4.068  11.576  0.8383 -0.0875  0.6515
 6707TIP3    H241537   1.135   4.104  11.587  0.9070  0.4582 -0.1203
 6708TIP3   OH241538   3.001   0.213  12.239 -0.7131  0.2189  0.2802
 6708TIP3    H141539   3.071   0.271  12.209 -1.4463  0.2637 -1.4907
 6708TIP3    H241540   3.040   0.125  12.237 -0.6160  0.2678 -0.4942
 6709TIP3   OH241541   3.607   2.655  16.791  0.1202 -0.2960 -0.1332
 6709TIP3    H141542   3.526   2.604  16.781 -0.3620 -0.1896  2.3547
 6709TIP3    H241543   3.603   2.720  16.721 -1.6186 -0.7251 -0.5000
 6710TIP3   OH241544   4.197   0.570   1.075  0.4543  0.1874  0.4502
 6710TIP3    H141545   4.219   0.650   1.029  0.1762 -0.1028 -0.1998
 6710TIP3    H241546   4.101   0.574   1.084  0.1106 -1.2092 -1.7958
 6711TIP3   OH241547   0.995   4.452   3.738 -0.3325  0.0364  0.6062
 6711TIP3    H141548   0.925   4.424   3.797 -0.6854 -1.7111 -0.5873
 6711TIP3    H241549   1.074   4.409   3.771 -0.2734  0.1060  0.5587
 6712TIP3   OH241550   4.583   5.081   1.351  0.4415  0.2241  0.1301
 6712TIP3    H141551   4.559   5.149   1.414 -0.6067 -0.1445  0.1559
 6712TIP3    H241552   4.502   5.064   1.302  0.1016 -2.3773  1.4173
 6713TIP3   OH241553   6.743   0.968  15.865 -0.4137 -0.2836 -0.0529
 6713TIP3    H141554   6.746   0.937  15.775  0.6817  1.3714 -0.6391
 6713TIP3    H241555   6.799   0.907  15.913 -3.0045 -2.7117  0.0972
 6714TIP3   OH241556   6.419   3.801   2.379 -0.4808  0.8359  0.8714
 6714TIP3    H141557   6.410   3.741   2.453  1.0918 -0.0260  0.4268
 6714TIP3    H241558   6.371   3.879   2.405 -1.6690 -0.1999  1.9371
 6715TIP3   OH241559   0.774   1.005   1.427  0.3493 -0.1115 -0.2848
 6715TIP3    H141560   0.717   0.950   1.373 -0.0312 -0.8076  0.8078
 6715TIP3    H241561   0.827   0.942   1.477  0.7374  0.5232  0.1090
 6716TIP3   OH241562   1.190   4.665  11.808  0.4372  0.3485  0.1903
 6716TIP3    H141563   1.271   4.618  11.787  1.4038  1.8190  0.4373
 6716TIP3    H241564   1.187   4.664  11.904  0.0010  0.0583  0.1761
 6717TIP3   OH241565   5.317   3.095   1.082  0.3098  0.2698 -0.6041
 6717TIP3    H141566   5.384   3.103   1.014  0.4500  1.5003 -0.3396
 6717TIP3    H241567   5.279   3.182   1.089  0.1353  0.1122  0.7173
 6718TIP3   OH241568   6.508   0.122  13.181  0.6555  0.3408 -0.0461
 6718TIP3    H141569   6.508   0.033  13.146  2.0724  0.7731 -1.2933
 6718TIP3    H241570   6.502   0.178  13.103  0.0750  1.3358  0.6947
 6719TIP3   OH241571   2.227   4.320   5.445  0.2503  0.1974  1.0520
 6719TIP3    H141572   2.140   4.280   5.443  0.4968 -0.3164 -0.6478
 6719TIP3    H241573   2.275   4.268   5.510 -0.4033 -0.1388  1.2823
 6720TIP3   OH241574   3.060   3.661  14.161 -0.0523 -0.2515  0.6048
 6720TIP3    H141575   3.067   3.583  14.107 -1.0966 -0.8582  1.3102
 6720TIP3    H241576   3.083   3.733  14.102  1.4234 -1.1079  0.0852
 6721TIP3   OH241577   2.442   4.861   3.459  0.1061 -0.3209 -0.0591
 6721TIP3    H141578   2.393   4.917   3.397  0.2661 -1.4522 -1.2509
 6721TIP3    H241579   2.425   4.772   3.428  0.8480 -0.8667  1.0773
 6722TIP3   OH241580   0.704   1.904  16.141  0.4384 -0.1626  0.1438
 6722TIP3    H141581   0.661   1.951  16.214  1.7533  0.0782  0.7855
 6722TIP3    H241582   0.739   1.825  16.181  0.0010 -0.7129 -0.5301
 6723TIP3   OH241583   6.773   1.399   5.647  0.0254  0.2044  0.1750
 6723TIP3    H141584   6.687   1.400   5.688 -0.3659 -2.0453 -0.4700
 6723TIP3    H241585   6.773   1.320   5.593  2.9286 -0.5560  1.1056
 6724TIP3   OH241586   4.896   3.026   6.291 -0.0711  0.3944  0.1174
 6724TIP3    H141587   4.969   3.080   6.320  0.3886 -0.2622  0.1937
 6724TIP3    H241588   4.935   2.965   6.229 -0.8061  0.9466 -0.9315
 6725TIP3   OH241589   0.166   5.126   0.714 -0.3640 -1.1272 -0.0741
 6725TIP3    H141590   0.248   5.144   0.760  0.5011  0.9956 -2.2458
 6725TIP3    H241591   0.193   5.086   0.632 -1.5038 -0.5570 -0.7485
 6726TIP3   OH241592   2.438   2.965  14.803  0.0555  0.2442 -0.4089
 6726TIP3    H141593   2.493   2.920  14.868 -0.3263 -0.9671 -0.9043
 6726TIP3    H241594   2.494   2.971  14.726  0.0951  0.6139 -0.3533
 6727TIP3   OH241595   5.501   3.870  10.956 -0.1789 -0.0047 -0.4205
 6727TIP3    H141596   5.488   3.780  10.986 -2.1532  0.0512 -0.9214
 6727TIP3    H241597   5.473   3.869  10.864 -0.8749  1.2332 -0.2491
 6728TIP3   OH241598   1.028   6.190  15.172  0.4322 -0.6357 -0.5493
 6728TIP3    H141599   1.041   6.136  15.095 -0.0357 -1.4280 -0.0894
 6728TIP3    H241600   1.019   6.279  15.138 -2.1075 -1.2361 -1.6513
 6729TIP3   OH241601   4.733   5.396   4.343  0.2365  0.2883 -0.2773
 6729TIP3    H141602   4.731   5.353   4.428 -2.4714  2.6532  1.0562
 6729TIP3    H241603   4.684   5.339   4.285 -0.8256  0.2040  0.6824
 6730TIP3   OH241604   5.128   1.960   4.137  0.0217  0.4472  0.6657
 6730TIP3    H141605   5.183   1.890   4.103 -1.7889 -1.2148  0.9923
 6730TIP3    H241606   5.132   1.949   4.232 -1.7636 -0.4795  0.6694
 6731TIP3   OH241607   5.631   2.106   4.151 -0.5722 -0.3208  0.4935
 6731TIP3    H141608   5.644   2.039   4.084 -2.2824 -1.3795  1.1535
 6731TIP3    H241609   5.578   2.063   4.218 -1.8966  1.7365  0.8490
 6732TIP3   OH241610   2.383   0.813   5.593  0.2100 -0.7294  0.0703
 6732TIP3    H141611   2.394   0.815   5.688 -0.6679 -1.3578  0.2034
 6732TIP3    H241612   2.432   0.735   5.565 -0.1261 -0.9549  0.1028
 6733TIP3   OH241613   6.787   3.585   0.559 -0.2020  0.2841 -0.1217
 6733TIP3    H141614   6.850   3.653   0.536  1.0700 -0.9913 -0.5315
 6733TIP3    H241615   6.739   3.621   0.634  1.9412  0.7481  1.0985
 6734TIP3   OH241616   0.418   3.545  14.571  0.5361 -0.3588 -0.7249
 6734TIP3    H141617   0.470   3.514  14.497  1.9522 -0.4549  0.2857
 6734TIP3    H241618   0.482   3.575  14.635 -0.6910  2.4144 -0.6354
 6735TIP3   OH241619   6.108   3.606  13.296  0.5328  0.1839  0.1023
 6735TIP3    H141620   6.015   3.600  13.274  0.2061 -0.0023  1.4080
 6735TIP3    H241621   6.110   3.597  13.391  1.7620  1.7881  0.2608
 6736TIP3   OH241622   3.789   2.101  14.503 -0.1844  0.2927 -0.1096
 6736TIP3    H141623   3.694   2.086  14.504 -0.3622  1.1611  2.0028
 6736TIP3    H241624   3.812   2.100  14.410 -2.0120 -1.3052 -0.6342
 6737TIP3   OH241625   3.490   3.892   3.732 -0.0078 -0.4904 -0.0414
 6737TIP3    H141626   3.528   3.979   3.723  1.0528 -1.0066 -0.7523
 6737TIP3    H241627   3.424   3.901   3.801 -1.0914  1.2428 -1.2276
 6738TIP3   OH241628   5.752   6.678   4.460 -0.2261 -0.3585  0.0515
 6738TIP3    H141629   5.780   6.590   4.485 -1.1512 -1.0801 -1.3327
 6738TIP3    H241630   5.789   6.692   4.373  0.8496  1.0916  0.7095
 6739TIP3   OH241631   0.879   3.238   0.428  0.1857 -0.9797  0.4967
 6739TIP3    H141632   0.928   3.301   0.481  1.5775  0.3628 -2.1992
 6739TIP3    H241633   0.788   3.251   0.455  0.5240  1.5756  0.7024
 6740TIP3   OH241634   4.852   3.632  14.280 -0.2103  0.0439  0.1013
 6740TIP3    H141635   4.888   3.588  14.203 -0.8741 -0.3734  0.0195
 6740TIP3    H241636   4.928   3.672  14.323  0.1986  0.0485 -0.6183
 6741TIP3   OH241637   6.024   4.512  11.503 -0.3004 -0.1994  0.7878
 6741TIP3    H141638   6.099   4.563  11.472 -0.1104  1.3023  3.3649
 6741TIP3    H241639   5.952   4.537  11.445  1.0253 -1.3597 -1.4795
 6742TIP3   OH241640   0.419   2.205   2.530  0.3466  0.2919 -0.3041
 6742TIP3    H141641   0.453   2.292   2.548 -1.8168  1.3509 -0.9637
 6742TIP3    H241642   0.444   2.187   2.439  1.6918 -0.2572  0.1569
 6743TIP3   OH241643   3.998   0.617  13.904  0.0937  0.4813  0.1047
 6743TIP3    H141644   3.946   0.606  13.983 -0.0601 -1.9894 -0.2571
 6743TIP3    H241645   3.966   0.697  13.864 -1.3963  0.5532  1.3933
 6744TIP3   OH241646   5.445   2.648  14.698 -0.1151 -0.5694 -0.0076
 6744TIP3    H141647   5.353   2.640  14.673 -0.2587  2.7666 -1.1224
 6744TIP3    H241648   5.487   2.687  14.622  1.9352 -0.6337  1.0160
 6745TIP3   OH241649   4.329   4.117   3.499 -0.6011 -0.9234 -0.3947
 6745TIP3    H141650   4.392   4.119   3.570 -1.5615 -1.3931  0.5010
 6745TIP3    H241651   4.354   4.040   3.447  0.3586 -0.3346 -0.8370
 6746TIP3   OH241652   5.739   6.257   0.469 -0.3888  0.6402  0.5486
 6746TIP3    H141653   5.646   6.276   0.456 -0.3542  1.4377  1.4262
 6746TIP3    H241654   5.773   6.332   0.517  0.7511  0.4265  0.1148
 6747TIP3   OH241655   0.591   5.134   2.942  0.5160  0.3702  0.7279
 6747TIP3    H141656   0.558   5.151   2.854  0.6462  1.4350  0.8686
 6747TIP3    H241657   0.661   5.069   2.929  0.8843  0.9016 -0.0245
 6748TIP3   OH241658   3.252   6.002   4.465  0.0265 -1.0510 -0.6519
 6748TIP3    H141659   3.227   6.010   4.373  0.6560  0.1012 -0.7400
 6748TIP3    H241660   3.319   5.933   4.466  0.3750 -0.7194 -1.1304
 6749TIP3   OH241661   1.275   1.923   1.524 -1.1662  0.0223 -0.6806
 6749TIP3    H141662   1.198   1.890   1.570  0.6987 -2.0022  1.2245
 6749TIP3    H241663   1.240   1.981   1.456 -4.2422  0.4946  1.1387
 6750TIP3   OH241664   3.755   6.315   2.936  0.5278  0.0379 -0.6812
 6750TIP3    H141665   3.741   6.274   2.851 -0.7031 -1.5118  0.2263
 6750TIP3    H241666   3.689   6.276   2.993 -1.0133  3.5245  0.2142
 6751TIP3   OH241667   6.153   4.199   0.970 -0.0335  0.2461  0.3813
 6751TIP3    H141668   6.244   4.221   0.993 -0.2827  0.4680  1.1858
 6751TIP3    H241669   6.120   4.150   1.046 -0.1152 -1.2083 -0.5426
 6752TIP3   OH241670   1.775   4.466  13.835 -0.3050  0.2723  0.5401
 6752TIP3    H141671   1.765   4.374  13.809 -2.0305  0.6900 -0.4342
 6752TIP3    H241672   1.820   4.507  13.761 -0.8610  0.4910  0.3168
 6753TIP3   OH241673   2.861   4.109   2.116 -0.1145  0.2821  0.4392
 6753TIP3    H141674   2.852   4.049   2.042  2.4514 -0.7665  0.9058
 6753TIP3    H241675   2.877   4.052   2.191 -0.7550  1.4383  1.4849
 6754TIP3   OH241676   3.112   4.982   2.719  0.1014  0.3354 -0.1056
 6754TIP3    H141677   3.018   4.991   2.739  0.1696 -0.3993  0.5755
 6754TIP3    H241678   3.119   4.897   2.675  0.6618 -0.3320  1.2407
 6755TIP3   OH241679   1.858   3.831   0.264  0.0409  0.1977 -0.2770
 6755TIP3    H141680   1.837   3.827   0.171  1.1040  0.3660 -0.5469
 6755TIP3    H241681   1.954   3.837   0.266  0.2147 -1.8738  0.8794
 6756TIP3   OH241682   2.003   1.248  11.683 -0.0236 -0.3842 -0.2421
 6756TIP3    H141683   1.962   1.163  11.698  1.8815 -1.6158 -1.5018
 6756TIP3    H241684   1.970   1.276  11.598 -1.6768  0.8467  0.7494
 6757TIP3   OH241685   2.758   0.205   3.680 -0.0695  0.2806  0.2833
 6757TIP3    H141686   2.717   0.205   3.766  1.0845  0.0408  0.8406
 6757TIP3    H241687   2.835   0.150   3.689 -1.5390 -2.3617 -1.6860
 6758TIP3   OH241688   6.063   2.655   4.120  0.5266  0.1200 -0.1550
 6758TIP3    H141689   6.036   2.694   4.203  1.9754  0.6869  0.0822
 6758TIP3    H241690   6.159   2.664   4.120  0.5648 -0.1169 -1.7668
 6759TIP3   OH241691   5.568   4.714   0.670 -0.2300 -0.0366 -0.0844
 6759TIP3    H141692   5.511   4.643   0.640  0.7026 -0.3196 -1.2546
 6759TIP3    H241693   5.579   4.770   0.594  0.7215  0.2455  0.2495
 6760TIP3   OH241694   4.600   2.279  11.763  0.3415 -0.6215 -0.3841
 6760TIP3    H141695   4.546   2.208  11.731  0.4820 -0.4423 -1.0431
 6760TIP3    H241696   4.674   2.282  11.703 -0.8205  1.5928 -1.8567
 6761TIP3   OH241697   4.485   3.255   5.497  0.6872 -0.1683 -0.2703
 6761TIP3    H141698   4.516   3.273   5.408  0.8393 -1.2907 -0.4640
 6761TIP3    H241699   4.529   3.173   5.521  0.1927 -0.1852  0.6100
 6762TIP3   OH241700   5.956   2.765  12.167 -0.3457  0.5576 -0.3037
 6762TIP3    H141701   6.018   2.694  12.185 -0.8090  0.3215  0.3882
 6762TIP3    H241702   5.907   2.776  12.248 -0.4705  1.4921 -0.4865
 6763TIP3   OH241703   0.375   0.655   1.967  0.0350 -0.3154 -0.1420
 6763TIP3    H141704   0.407   0.734   2.011  0.3865  0.4477 -1.6770
 6763TIP3    H241705   0.287   0.641   2.003 -0.8495  1.9618 -1.2095
 6764TIP3   OH241706   1.674   1.533  11.461  0.5630  0.0477 -0.2723
 6764TIP3    H141707   1.608   1.514  11.394  0.6064 -0.5307 -0.1506
 6764TIP3    H241708   1.736   1.591  11.417  0.4290 -0.0848 -0.6423
 6765TIP3   OH241709   0.539   4.242   0.992  0.5041  0.3369  0.2354
 6765TIP3    H141710   0.448   4.224   0.969  0.5069  1.0992 -0.4348
 6765TIP3    H241711   0.563   4.173   1.053 -1.0334  1.0710  1.7476
 6766TIP3   OH241712   3.092   2.162   0.413  0.3318  0.1851 -0.2176
 6766TIP3    H141713   3.017   2.105   0.429 -0.2818  1.0376  0.0476
 6766TIP3    H241714   3.123   2.138   0.326 -0.1032 -0.3342 -0.2333
 6767TIP3   OH241715   5.470   1.599  12.220  0.4806 -0.6546  0.5664
 6767TIP3    H141716   5.541   1.581  12.158  0.1854 -0.4147  0.1631
 6767TIP3    H241717   5.392   1.562  12.179  0.0630  0.5413  0.2452
 6768TIP3   OH241718   3.468   4.459  11.966 -0.1499 -0.1004  0.6620
 6768TIP3    H141719   3.519   4.424  12.039  0.0352 -0.8885  0.1791
 6768TIP3    H241720   3.529   4.517  11.920 -0.2564  0.3696  1.1022
 6769TIP3   OH241721   3.316   1.044   3.343  0.0721  0.1306  0.2392
 6769TIP3    H141722   3.384   1.081   3.287 -0.4652  0.5279 -0.1519
 6769TIP3    H241723   3.283   1.118   3.394  0.5151 -0.2166  1.0443
 6770TIP3   OH241724   0.658   4.112   4.268 -0.9358  0.1819 -0.0295
 6770TIP3    H141725   0.608   4.068   4.199 -3.1015  1.1057  0.8821
 6770TIP3    H241726   0.628   4.203   4.266  0.8011  0.8118  0.5139
 6771TIP3   OH241727   2.516   6.531  15.179  0.2299  0.2994  0.0473
 6771TIP3    H141728   2.486   6.440  15.177  1.0228  0.0301 -1.6171
 6771TIP3    H241729   2.593   6.531  15.122  0.5304  1.9240  0.4273
 6772TIP3   OH241730   5.265   5.766  14.179  0.0609 -0.4023 -0.1261
 6772TIP3    H141731   5.283   5.742  14.088  0.9064  0.9172 -0.3432
 6772TIP3    H241732   5.170   5.763  14.187  0.0350 -1.5888 -0.7309
 6773TIP3   OH241733   3.298   1.272   1.361 -0.1162 -0.0405  0.3919
 6773TIP3    H141734   3.322   1.224   1.282  0.3305  2.3477 -1.0305
 6773TIP3    H241735   3.247   1.210   1.413 -0.3529 -1.7302 -1.7260
 6774TIP3   OH241736   1.623   4.346   3.671  0.3616  0.2324 -0.6294
 6774TIP3    H141737   1.603   4.379   3.758  0.9823 -1.2916  0.1376
 6774TIP3    H241738   1.664   4.420   3.625 -1.3325  1.5011 -0.1685
 6775TIP3   OH241739   3.278   3.324  15.139  0.3504 -0.1460  0.0034
 6775TIP3    H141740   3.185   3.345  15.142  0.0349 -1.4770  0.0739
 6775TIP3    H241741   3.321   3.407  15.117 -0.5265  1.3976  3.4135
 6776TIP3   OH241742   0.762   5.748  16.602 -0.3101 -0.0145  0.0530
 6776TIP3    H141743   0.777   5.817  16.666  1.6619 -1.0363  0.8030
 6776TIP3    H241744   0.776   5.667  16.651  1.9265 -0.8269 -1.7119
 6777TIP3   OH241745   5.465   5.028   2.713  0.7723 -0.9842  0.2613
 6777TIP3    H141746   5.521   5.067   2.780 -0.1576  1.8950 -0.4886
 6777TIP3    H241747   5.377   5.029   2.753  0.6521 -1.9412  0.0390
 6778TIP3   OH241748   6.439   0.301  12.547 -0.5637  0.1799 -0.1020
 6778TIP3    H141749   6.385   0.352  12.488  0.5014  1.1105 -0.3094
 6778TIP3    H241750   6.408   0.323  12.635 -1.0843  0.0321 -0.2488
 6779TIP3   OH241751   5.839   1.735   4.490 -0.5181 -0.5424 -0.3876
 6779TIP3    H141752   5.834   1.759   4.398  0.0871  0.4935 -0.1650
 6779TIP3    H241753   5.752   1.755   4.525 -0.4410  0.0423 -0.5164
 6780TIP3   OH241754   1.643   2.581   2.760 -0.7944  0.0280  0.2174
 6780TIP3    H141755   1.564   2.586   2.708 -0.6388  2.1703  0.1017
 6780TIP3    H241756   1.612   2.584   2.851 -0.8729  2.2915  0.1841
 6781TIP3   OH241757   3.090   4.608  12.570 -1.2345 -0.4985 -0.0483
 6781TIP3    H141758   3.059   4.523  12.601 -2.7264 -0.7435 -1.9960
 6781TIP3    H241759   3.093   4.599  12.475 -0.1965  1.2545 -0.2278
 6782TIP3   OH241760   6.260   0.099   3.269 -0.1789  0.4613  0.0363
 6782TIP3    H141761   6.226   0.167   3.210 -0.1967  1.0326  0.6932
 6782TIP3    H241762   6.291   0.030   3.210 -0.6573  0.7970 -0.6285
 6783TIP3   OH241763   1.390   1.514   3.338 -0.0167 -0.3045 -0.3094
 6783TIP3    H141764   1.462   1.535   3.397 -0.9020  0.4587  0.5255
 6783TIP3    H241765   1.374   1.421   3.352 -0.9292  0.0805  1.5005
 6784TIP3   OH241766   0.578   0.054   5.305 -0.2309 -0.5401  0.3682
 6784TIP3    H141767   0.509   0.022   5.247  0.6055 -2.2206  0.2239
 6784TIP3    H241768   0.536   0.124   5.356 -1.9973 -1.4151  0.2066
 6785TIP3   OH241769   0.760   3.119  10.984 -0.0413  0.6268 -0.1528
 6785TIP3    H141770   0.764   3.145  10.892 -1.4859  1.7541  0.0732
 6785TIP3    H241771   0.785   3.026  10.983 -1.1664  0.2889 -1.8431
 6786TIP3   OH241772   0.798   2.286  12.490 -0.0102 -0.3065 -0.5343
 6786TIP3    H141773   0.855   2.260  12.562  0.6036 -0.7520 -1.1617
 6786TIP3    H241774   0.852   2.343  12.436 -0.5803  0.3198 -0.4530
 6787TIP3   OH241775   3.121   2.818  11.449  0.3478  0.3995 -0.1123
 6787TIP3    H141776   3.081   2.889  11.499 -1.4524 -0.0951 -0.7795
 6787TIP3    H241777   3.112   2.741  11.505 -1.1177 -0.0292 -0.8847
 6788TIP3   OH241778   0.047   3.921   4.715  0.2937 -0.7273  0.4726
 6788TIP3    H141779   0.074   3.874   4.794  0.9992 -0.3287  0.4669
 6788TIP3    H241780   0.126   3.964   4.683 -0.3612  0.5566  0.5347
 6789TIP3   OH241781   1.346   0.656  16.110 -0.2995  0.0037  0.6189
 6789TIP3    H141782   1.413   0.719  16.085  0.7684 -1.4015 -0.2540
 6789TIP3    H241783   1.340   0.664  16.205  1.5798 -0.2506  0.7921
 6790TIP3   OH241784   5.367   2.274  13.955 -0.3085 -0.1773 -0.3577
 6790TIP3    H141785   5.356   2.240  13.866 -1.7903  1.5650 -0.8804
 6790TIP3    H241786   5.357   2.368  13.947 -0.3552  0.0371  1.6444
 6791TIP3   OH241787   6.821   2.700  11.639  0.6081 -0.1962  0.0031
 6791TIP3    H141788   6.890   2.699  11.573  0.8651  0.6037  0.2557
 6791TIP3    H241789   6.768   2.776  11.618 -1.5143 -1.9666 -1.4955
 6792TIP3   OH241790   3.019   2.840  11.935  0.0674  0.4318 -0.3090
 6792TIP3    H141791   3.005   2.857  11.842  0.0672 -1.1795 -0.6366
 6792TIP3    H241792   3.047   2.748  11.938 -0.4271  0.3155  1.3248
 6793TIP3   OH241793   6.438   6.375   3.123  0.0945  0.0653  0.3230
 6793TIP3    H141794   6.391   6.298   3.155  0.0503  0.2729  0.7774
 6793TIP3    H241795   6.385   6.407   3.050  0.1827 -0.4063  0.0527
 6794TIP3   OH241796   0.222   0.421  16.822  0.3901 -1.0348  0.4498
 6794TIP3    H141797   0.219   0.489  16.754 -1.0064 -0.0134  1.4817
 6794TIP3    H241798   0.315   0.398  16.828  0.7029 -0.2235 -0.9025
 6795TIP3   OH241799   4.872   3.766   5.604 -0.3735  0.0818  0.4971
 6795TIP3    H141800   4.957   3.800   5.575 -1.0877  0.4593 -1.2634
 6795TIP3    H241801   4.891   3.679   5.637  0.5622 -0.3339 -1.0179
 6796TIP3   OH241802   5.706   6.126   1.189 -0.3539 -0.3831 -0.5239
 6796TIP3    H141803   5.774   6.192   1.201  0.9685 -2.1306  3.0115
 6796TIP3    H241804   5.732   6.078   1.110  0.4130  1.2561 -1.3090
 6797TIP3   OH241805   1.717   3.553   5.863 -0.7938 -0.3249 -0.0787
 6797TIP3    H141806   1.743   3.614   5.932 -0.3076 -1.7125  1.0119
 6797TIP3    H241807   1.770   3.475   5.879 -2.6007 -1.6806 -0.3755
 6798TIP3   OH241808   3.544   6.517  11.058  0.1212 -0.6447  0.2170
 6798TIP3    H141809   3.466   6.469  11.031 -1.7830  1.4652  1.6235
 6798TIP3    H241810   3.567   6.570  10.982 -1.3783  0.5541  0.5437
 6799TIP3   OH241811   1.096   3.829   1.488 -0.4158  0.0153  0.2956
 6799TIP3    H141812   1.138   3.798   1.569 -2.0827 -2.3697  0.3690
 6799TIP3    H241813   1.007   3.851   1.514 -0.5938  0.4719 -0.6648
 6800TIP3   OH241814   0.663   3.543   1.906 -0.1999 -0.2737  0.0631
 6800TIP3    H141815   0.652   3.511   1.995 -0.0373  1.7024  0.8476
 6800TIP3    H241816   0.686   3.465   1.855 -0.5208 -1.4857  1.6775
 6801TIP3   OH241817   5.447   6.202  14.341 -0.3289 -0.0248 -0.0770
 6801TIP3    H141818   5.363   6.228  14.380 -0.1028 -0.7631  0.9683
 6801TIP3    H241819   5.507   6.274  14.361 -1.2427  1.6525 -2.9333
 6802TIP3   OH241820   1.668   2.957   3.163  0.2692  0.2327 -0.1567
 6802TIP3    H141821   1.593   2.971   3.105  1.5702 -0.1675 -2.0611
 6802TIP3    H241822   1.732   3.023   3.135  0.9667 -0.0329  0.7759
 6803TIP3   OH241823   3.046   4.188   0.596  0.1288 -0.4764 -0.4019
 6803TIP3    H141824   2.955   4.216   0.605 -0.0338 -0.9546 -0.5158
 6803TIP3    H241825   3.042   4.092   0.597  0.4721 -0.5268 -1.8179
 6804TIP3   OH241826   5.821   5.544  12.186  0.1283 -0.1861 -0.4790
 6804TIP3    H141827   5.911   5.548  12.219  0.3430  0.2112 -1.0864
 6804TIP3    H241828   5.772   5.602  12.244  0.8543  1.9658 -1.8507
 6805TIP3   OH241829   5.939   4.698  14.646  0.1759 -0.1150  0.5028
 6805TIP3    H141830   5.955   4.681  14.553  1.4903 -0.6920  0.8209
 6805TIP3    H241831   5.898   4.784  14.647 -1.3860 -0.7680 -0.7246
 6806TIP3   OH241832   3.048   4.336  12.647  0.4174 -0.5465  0.2767
 6806TIP3    H141833   3.120   4.348  12.585  0.4434  0.9456  0.5593
 6806TIP3    H241834   3.089   4.296  12.724  0.4732 -1.9427 -0.4378
 6807TIP3   OH241835   3.972   0.954   0.484  0.5083  0.1520 -0.3437
 6807TIP3    H141836   3.908   0.898   0.440  0.5405 -0.4844  0.4021
 6807TIP3    H241837   4.030   0.983   0.414 -0.6106  0.7941 -1.0555
 6808TIP3   OH241838   5.784   1.140  10.827 -0.2802 -0.8888  0.8429
 6808TIP3    H141839   5.836   1.096  10.894 -1.2978  1.4909  3.3797
 6808TIP3    H241840   5.844   1.204  10.788 -0.1399 -1.1076  0.7021
 6809TIP3   OH241841   3.327   1.162   1.109  0.0015  0.7990 -0.3781
 6809TIP3    H141842   3.292   1.073   1.103 -1.5384  1.2122  1.4223
 6809TIP3    H241843   3.400   1.164   1.046 -0.5524 -1.4067 -1.1753
 6810TIP3   OH241844   3.684   4.009   6.695  0.3106 -0.0094 -0.0841
 6810TIP3    H141845   3.620   3.958   6.743 -1.1682  0.7888 -1.1093
 6810TIP3    H241846   3.655   4.004   6.603  0.9576  1.4116 -0.4046
 6811TIP3   OH241847   2.087   5.327   0.609 -0.4989 -0.2100 -0.8773
 6811TIP3    H141848   2.108   5.251   0.554  2.8289 -0.1323  0.0943
 6811TIP3    H241849   2.064   5.396   0.547 -3.9794 -1.9423 -1.7762
 6812TIP3   OH241850   0.907   0.950  15.641  0.2810  0.2710 -0.4010
 6812TIP3    H141851   0.943   0.938  15.552  1.2740 -2.5750  0.2476
 6812TIP3    H241852   0.829   0.895  15.642  0.4008  0.1064  0.5265
 6813TIP3   OH241853   0.710   1.547   5.562 -0.0935  0.1193  0.0315
 6813TIP3    H141854   0.637   1.583   5.513 -0.2785 -0.8656 -0.4502
 6813TIP3    H241855   0.787   1.591   5.527 -0.2134 -0.6262 -1.2287
 6814TIP3   OH241856   3.755   0.857   0.321  0.2488 -0.4478 -0.2709
 6814TIP3    H141857   3.819   0.881   0.254 -0.8209  2.4318 -0.4227
 6814TIP3    H241858   3.677   0.831   0.272  0.0334 -0.0373 -0.1566
 6815TIP3   OH241859   0.566   2.844   4.416  0.1654 -0.1045 -0.0278
 6815TIP3    H141860   0.592   2.933   4.393  2.5229 -0.3423  1.3955
 6815TIP3    H241861   0.616   2.789   4.355 -0.3445 -0.4935 -0.0991
 6816TIP3   OH241862   0.715   1.631  12.545  0.4871 -0.7772  0.3617
 6816TIP3    H141863   0.691   1.659  12.633  0.1720 -1.0804  0.3719
 6816TIP3    H241864   0.705   1.709  12.491 -2.9737 -1.4191 -0.1310
 6817TIP3   OH241865   2.679   5.902   3.298 -0.1163 -0.1607  0.4784
 6817TIP3    H141866   2.591   5.933   3.278  0.5701  2.0091  0.6214
 6817TIP3    H241867   2.666   5.812   3.329 -2.2516  0.0705  0.3922
 6818TIP3   OH241868   5.504   0.932  12.222  0.2946 -0.4861  0.0216
 6818TIP3    H141869   5.541   0.866  12.163 -1.5058 -0.8373 -0.8000
 6818TIP3    H241870   5.492   1.010  12.166 -0.6978 -0.5710  0.0893
 6819TIP3   OH241871   5.789   2.605  12.618  0.3476 -0.2774  0.1629
 6819TIP3    H141872   5.772   2.525  12.567 -0.0298 -0.6782  0.9030
 6819TIP3    H241873   5.762   2.583  12.707  3.8391 -0.6403  1.2865
 6820TIP3   OH241874   3.646   4.245   5.199  0.0308 -0.0141 -0.9233
 6820TIP3    H141875   3.700   4.246   5.120  0.0920 -0.9443 -0.9037
 6820TIP3    H241876   3.693   4.189   5.260  1.2502  2.6201  0.7160
 6821TIP3   OH241877   2.475   5.210   4.020  0.1292  0.4006  0.3877
 6821TIP3    H141878   2.457   5.301   3.999 -2.3332  0.2014  1.3550
 6821TIP3    H241879   2.516   5.212   4.106  3.0175  0.7140 -0.8884
 6822TIP3   OH241880   3.939   0.031  12.939  0.1796 -0.1633 -0.0357
 6822TIP3    H141881   3.946  -0.025  13.017 -0.0105  0.6283  0.5588
 6822TIP3    H241882   3.940  -0.031  12.866  2.6136 -0.8005  0.4453
 6823TIP3   OH241883   6.243   2.888  12.923 -0.3293 -0.5788  0.3551
 6823TIP3    H141884   6.298   2.894  12.845 -0.8528 -0.6490 -0.0266
 6823TIP3    H241885   6.301   2.853  12.991  0.0728 -0.7226 -0.0587
 6824TIP3   OH241886   4.977   6.053   3.082 -0.3010  0.5501  0.8697
 6824TIP3    H141887   4.941   5.988   3.143 -1.5128  1.2391  0.9077
 6824TIP3    H241888   4.958   6.017   2.996 -0.8900  0.8032  0.8914
 6825TIP3   OH241889   2.639   1.979  12.209 -0.0773  0.1002  0.0861
 6825TIP3    H141890   2.652   2.074  12.211  0.5531  0.0266 -0.5216
 6825TIP3    H241891   2.697   1.947  12.141 -0.8699 -0.6444 -0.2668
 6826TIP3   OH241892   1.329   2.756  14.276  0.3803 -0.1013  0.3950
 6826TIP3    H141893   1.331   2.660  14.277 -1.4790 -0.1715  1.0840
 6826TIP3    H241894   1.345   2.782  14.367 -1.5651  0.1046  0.7266
 6827TIP3   OH241895   1.808   1.950  15.918 -0.0593 -0.6210  0.4204
 6827TIP3    H141896   1.726   2.001  15.921 -0.0438 -0.6082  0.6346
 6827TIP3    H241897   1.875   2.011  15.951 -0.0037 -0.7089  0.4693
 6828TIP3   OH241898   3.674   1.256   2.438  0.1814 -0.0368 -0.1169
 6828TIP3    H141899   3.674   1.285   2.529 -0.4523 -1.4231  0.3453
 6828TIP3    H241900   3.767   1.254   2.414  0.3267  0.8166  0.3230
 6829TIP3   OH241901   5.191   0.690   6.590 -0.3802 -0.5653  0.2577
 6829TIP3    H141902   5.133   0.630   6.542 -0.5542 -0.1926 -0.0005
 6829TIP3    H241903   5.179   0.665   6.682 -0.9326 -0.5109  0.2070
 6830TIP3   OH241904   3.437   1.746   1.433  0.0699  0.1041  0.3429
 6830TIP3    H141905   3.525   1.768   1.403  0.8004 -1.3818  1.2755
 6830TIP3    H241906   3.392   1.830   1.440  1.2464  0.8488 -0.6316
 6831TIP3   OH241907   3.775   5.672   6.406  0.0793 -0.0248 -0.3399
 6831TIP3    H141908   3.827   5.715   6.339 -0.5280  1.6249  0.1860
 6831TIP3    H241909   3.688   5.661   6.366  0.0653 -0.2347 -0.2567
 6832TIP3   OH241910   0.546   6.186  15.387 -0.2152  0.0430  0.0922
 6832TIP3    H141911   0.518   6.277  15.395  0.5268  0.2242  0.8287
 6832TIP3    H241912   0.545   6.152  15.477  0.2033 -0.4571 -0.0821
 6833TIP3   OH241913   0.080   4.698  12.228 -0.0178 -0.4559 -0.4359
 6833TIP3    H141914   0.168   4.705  12.190  0.7668 -0.1334  1.3101
 6833TIP3    H241915   0.064   4.604  12.235  1.0241 -0.5649  0.9455
 6834TIP3   OH241916   0.788   3.922   4.082  0.0701  0.1190 -0.5731
 6834TIP3    H141917   0.786   3.979   4.158  0.3654 -0.3211 -0.2363
 6834TIP3    H241918   0.858   3.860   4.099  0.8302  0.6463 -1.6630
 6835TIP3   OH241919   4.407   2.150  12.098  0.0894 -0.1205 -0.1867
 6835TIP3    H141920   4.411   2.237  12.138  0.8764 -0.6565  0.9593
 6835TIP3    H241921   4.313   2.133  12.089 -0.0864  0.5272  0.3239
 6836TIP3   OH241922   0.980   4.825  15.271 -0.3961 -0.0434 -0.6386
 6836TIP3    H141923   0.908   4.877  15.236 -1.4368 -0.2296  1.0960
 6836TIP3    H241924   0.937   4.751  15.314  0.9103 -0.7705 -0.5349
 6837TIP3   OH241925   0.600   3.397   3.410  0.5353  0.0865  0.1017
 6837TIP3    H141926   0.694   3.407   3.396  0.5927 -0.5006  0.0419
 6837TIP3    H241927   0.593   3.354   3.495  0.3309 -0.1712 -0.0462
 6838TIP3   OH241928   2.801   1.225   5.560 -0.0685  0.3144  0.0343
 6838TIP3    H141929   2.744   1.249   5.632 -2.8913 -2.3764 -1.0716
 6838TIP3    H241930   2.871   1.173   5.601 -0.5594  0.4236  1.0382
 6839TIP3   OH241931   3.471   1.220   4.021 -0.5391  0.1963  0.3929
 6839TIP3    H141932   3.546   1.278   4.035  0.0904 -0.3504 -0.5824
 6839TIP3    H241933   3.395   1.277   4.028 -0.0085  0.8608  0.8689
 6840TIP3   OH241934   1.231   3.965   4.977  0.3073 -0.0859  0.2538
 6840TIP3    H141935   1.296   3.922   5.033  1.1402  1.0993  0.2234
 6840TIP3    H241936   1.283   4.009   4.909 -0.6743 -1.8156 -1.7550
 6841TIP3   OH241937   4.095   1.620  13.093 -0.2390 -0.2132 -0.1908
 6841TIP3    H141938   4.050   1.699  13.120  1.3787  0.6940 -0.0278
 6841TIP3    H241939   4.040   1.584  13.023 -1.4089  0.6020  0.2838
 6842TIP3   OH241940   2.491   1.672  16.086  0.1238 -0.3598  0.6310
 6842TIP3    H141941   2.482   1.767  16.079 -1.9156 -0.5080  0.6020
 6842TIP3    H241942   2.585   1.658  16.097  0.6009  1.5644 -0.5119
 6843TIP3   OH241943   6.135   3.541   3.860  0.5889 -0.1349 -0.5114
 6843TIP3    H141944   6.091   3.510   3.780  1.6706  0.1727 -1.2496
 6843TIP3    H241945   6.123   3.636   3.857 -0.9021 -0.2508  0.6488
 6844TIP3   OH241946   1.192   0.397   3.020 -0.0873 -0.2579  0.4124
 6844TIP3    H141947   1.236   0.410   2.936 -1.5681  2.6871 -0.0556
 6844TIP3    H241948   1.128   0.469   3.025 -1.2503 -1.3279  3.3039
 6845TIP3   OH241949   3.763   2.799   6.682 -0.1677 -0.3753 -0.8678
 6845TIP3    H141950   3.851   2.821   6.649  0.3603  0.8638  1.1699
 6845TIP3    H241951   3.780   2.750   6.762 -1.3247  0.4732 -0.0862
 6846TIP3   OH241952   6.689   0.696   3.418  0.4043  0.1688 -0.3934
 6846TIP3    H141953   6.628   0.648   3.474  2.8770 -2.1840  0.4623
 6846TIP3    H241954   6.717   0.633   3.352  0.5921  1.7412 -1.8982
 6847TIP3   OH241955   0.280   0.166  10.873  0.2226 -0.3750  0.8409
 6847TIP3    H141956   0.354   0.192  10.928 -0.1928 -1.1172  1.7766
 6847TIP3    H241957   0.238   0.095  10.921 -2.2668  1.2708  1.3086
 6848TIP3   OH241958   3.723   1.005   4.446 -0.2099 -0.8076 -0.6261
 6848TIP3    H141959   3.801   1.053   4.419 -0.7503  0.2831 -0.3099
 6848TIP3    H241960   3.737   0.989   4.539 -0.4671 -0.3851 -0.5112
 6849TIP3   OH241961   0.473   4.345   3.797 -0.4875  0.3551  0.4371
 6849TIP3    H141962   0.551   4.289   3.792  0.6920  1.9592  0.0072
 6849TIP3    H241963   0.416   4.313   3.728  0.1790 -0.2836  0.1720
 6850TIP3   OH241964   2.393   3.224   0.096 -0.3767  0.1960 -0.3649
 6850TIP3    H141965   2.318   3.274   0.129 -0.5769 -0.5485  0.3604
 6850TIP3    H241966   2.468   3.282   0.106 -0.7989  0.8106 -0.7397
 6851TIP3   OH241967   2.771   4.898   5.139  0.3276  0.4930  0.2198
 6851TIP3    H141968   2.841   4.956   5.167  1.4047 -0.9814  0.7184
 6851TIP3    H241969   2.726   4.874   5.220  0.0877  0.3773  0.0558
 6852TIP3   OH241970   4.380   0.652   1.784  0.5843 -0.0170 -0.0306
 6852TIP3    H141971   4.383   0.726   1.723  1.0250 -1.1076 -1.3568
 6852TIP3    H241972   4.471   0.640   1.812  0.3328  0.7184  1.1734
 6853TIP3   OH241973   5.079   1.360  14.696 -0.7692  0.3898 -0.2615
 6853TIP3    H141974   4.995   1.391  14.729 -1.2589  0.0699 -1.1801
 6853TIP3    H241975   5.127   1.332  14.774 -1.1298  1.4735  0.3677
 6854TIP3   OH241976   2.668   1.269  14.013 -0.1500 -0.5990 -0.1136
 6854TIP3    H141977   2.751   1.317  14.013  1.2190 -2.8569 -0.3207
 6854TIP3    H241978   2.654   1.246  13.921 -1.6369  0.7023 -0.2596
 6855TIP3   OH241979   3.056   2.535   2.658 -0.1578 -0.3764 -0.1785
 6855TIP3    H141980   3.123   2.516   2.723 -0.1013  1.3373  0.3242
 6855TIP3    H241981   3.095   2.602   2.602 -2.1127  2.3793  1.4786
 6856TIP3   OH241982   2.626   3.145  11.834 -0.1292  0.1624  0.2723
 6856TIP3    H141983   2.541   3.187  11.846  0.4931  1.2664  0.9129
 6856TIP3    H241984   2.605   3.058  11.801 -1.5002  0.4851  0.2490
 6857TIP3   OH241985   0.388   4.625   2.892 -0.3986 -0.1543  0.1876
 6857TIP3    H141986   0.349   4.695   2.944 -1.4728  0.1689 -1.0282
 6857TIP3    H241987   0.334   4.548   2.910 -1.0826  0.0794 -0.8185
 6858TIP3   OH241988   1.278   4.902   3.427  0.2147  0.3656 -0.2124
 6858TIP3    H141989   1.362   4.905   3.382  0.0482  1.5403 -0.4907
 6858TIP3    H241990   1.237   4.821   3.398  0.9671  0.1183 -0.5937
 6859TIP3   OH241991   3.717   3.915  12.622  0.2858 -0.4034 -0.1609
 6859TIP3    H141992   3.673   3.831  12.611 -0.1863 -0.5610  2.2566
 6859TIP3    H241993   3.735   3.920  12.716  1.7211  1.5151 -0.4746
 6860TIP3   OH241994   6.635   3.263  11.193  0.4024 -0.0116 -0.8973
 6860TIP3    H141995   6.651   3.172  11.172  0.3545 -0.2183 -0.0775
 6860TIP3    H241996   6.547   3.263  11.231  0.5574  0.3120 -0.5326
 6861TIP3   OH241997   3.836   5.205   3.288  0.0931  0.2175  0.0972
 6861TIP3    H141998   3.914   5.259   3.279 -0.0626  0.3044 -0.8661
 6861TIP3    H241999   3.868   5.115   3.280  0.2503  0.1962  0.9266
 6862TIP3   OH242000   2.371   0.788  13.742  0.2592 -0.2167 -0.0358
 6862TIP3    H142001   2.280   0.761  13.728  0.1326 -0.2967  0.8790
 6862TIP3    H242002   2.369   0.883  13.729 -0.2581 -0.0142  1.3421
 6863TIP3   OH242003   0.156   5.743  15.317  0.6739 -0.2641  0.6243
 6863TIP3    H142004   0.185   5.706  15.233 -0.4556  3.4269 -1.6105
 6863TIP3    H242005   0.237   5.766  15.362  1.4800  2.4694 -1.9099
 6864TIP3   OH242006   5.503   1.256  13.693 -0.6850  0.1962 -0.0114
 6864TIP3    H142007   5.541   1.293  13.773  0.7135  0.5612 -0.8204
 6864TIP3    H242008   5.468   1.171  13.720 -0.2434  0.3227  0.9922
 6865TIP3   OH242009   2.398   2.256  10.818 -0.2385  0.2196 -0.1259
 6865TIP3    H142010   2.364   2.250  10.729  1.3535  1.7378 -0.8999
 6865TIP3    H242011   2.399   2.350  10.837  0.2645 -0.0244  1.1439
 6866TIP3   OH242012   3.669   5.791   0.599 -0.1776  0.1640 -0.7521
 6866TIP3    H142013   3.574   5.790   0.584 -0.1621 -1.6537 -0.9743
 6866TIP3    H242014   3.678   5.783   0.694 -0.2665 -0.5018 -0.7921
 6867TIP3   OH242015   1.705   4.420  16.900 -0.6189  0.1771 -0.6215
 6867TIP3    H142016   1.733   4.386  16.985  2.1656  0.7869 -1.1950
 6867TIP3    H242017   1.781   4.467  16.867 -2.6222  2.6710 -2.0882
 6868TIP3   OH242018   6.720   4.300   1.144  0.2978 -0.0215  0.0653
 6868TIP3    H142019   6.807   4.298   1.184  0.1020  0.3465  0.5244
 6868TIP3    H242020   6.679   4.379   1.180  0.5693  1.0312 -1.8078
 6869TIP3   OH242021   4.753   3.726  11.957 -0.4906 -0.3125 -0.3332
 6869TIP3    H142022   4.805   3.648  11.974  1.0531  0.9943  1.2431
 6869TIP3    H242023   4.789   3.762  11.876 -0.3246 -0.5227 -0.3535
 6870TIP3   OH242024   0.022   4.760  14.162 -0.3425  0.5738 -0.0049
 6870TIP3    H142025  -0.006   4.669  14.171 -0.3995  0.5783 -0.1278
 6870TIP3    H242026  -0.044   4.810  14.210 -1.3571  0.7081 -1.4660
 6871TIP3   OH242027   3.406   1.587   2.498  0.0613  0.1839  0.0108
 6871TIP3    H142028   3.340   1.602   2.566 -0.2534 -0.4614 -0.1471
 6871TIP3    H242029   3.364   1.616   2.417 -0.0143 -0.1941 -0.0848
 6872TIP3   OH242030   1.517   1.585  11.779  0.3211 -0.2922  0.8715
 6872TIP3    H142031   1.588   1.648  11.769  2.0940 -2.2693  0.3444
 6872TIP3    H242032   1.558   1.500  11.765 -2.2669 -1.5055  0.0188
 6873TIP3   OH242033   1.585   2.140   5.792  0.2326 -0.1065  0.3402
 6873TIP3    H142034   1.632   2.097   5.864  0.6076 -1.8044 -0.8468
 6873TIP3    H242035   1.649   2.201   5.755  0.0809  0.6812  1.3487
 6874TIP3   OH242036   5.086   1.854   1.974  0.0772  0.2207  0.0926
 6874TIP3    H142037   5.084   1.932   2.029 -0.9572  0.8231 -0.7457
 6874TIP3    H242038   5.011   1.801   2.005  1.0025 -0.6499  0.9171
 6875TIP3   OH242039   6.555   2.508  15.594 -0.6988  0.3528  0.0675
 6875TIP3    H142040   6.474   2.477  15.553 -0.2879  0.6881 -1.0549
 6875TIP3    H242041   6.592   2.431  15.636 -0.0689 -0.5841 -2.0473
 6876TIP3   OH242042   4.471   5.961  14.887  0.3143 -0.0639  0.0653
 6876TIP3    H142043   4.515   5.892  14.837  1.3798 -1.2156  2.4058
 6876TIP3    H242044   4.379   5.953  14.865  0.5418 -1.6517 -0.4210
 6877TIP3   OH242045   6.330   1.997  13.713 -1.1553  0.6011  0.1437
 6877TIP3    H142046   6.347   1.984  13.806  0.9264  1.1311 -0.0978
 6877TIP3    H242047   6.262   2.064  13.709 -2.8780 -0.9857  1.2593
 6878TIP3   OH242048   3.569   1.687   2.736 -0.0751 -0.0720  0.1581
 6878TIP3    H142049   3.530   1.656   2.655 -2.3098  1.2363  0.6441
 6878TIP3    H242050   3.511   1.757   2.766  1.7750  0.8593  1.8641
 6879TIP3   OH242051   3.855   2.917   4.700 -0.1014  0.1954  0.6769
 6879TIP3    H142052   3.928   2.978   4.688  1.5800 -1.4712  1.8792
 6879TIP3    H242053   3.816   2.910   4.613  2.2515 -0.1141 -0.4580
 6880TIP3   OH242054   0.008   2.360   4.830  0.2350 -0.1042  0.3534
 6880TIP3    H142055  -0.017   2.390   4.917 -0.0826  0.2061  0.1520
 6880TIP3    H242056  -0.054   2.290   4.810  1.3838 -1.4110  1.1075
 6881TIP3   OH242057   4.840   2.210   4.814  0.2266 -0.2589 -0.0556
 6881TIP3    H142058   4.791   2.281   4.774 -0.1799 -1.2959 -1.4797
 6881TIP3    H242059   4.918   2.251   4.850  1.9623  0.4546 -4.1773
 6882TIP3   OH242060   3.974   6.095   0.580  0.1416 -0.2750 -0.1930
 6882TIP3    H142061   4.013   6.046   0.508  0.3813 -2.1795  1.1505
 6882TIP3    H242062   4.048   6.139   0.622 -0.0511  1.1751 -1.2976
 6883TIP3   OH242063   1.337   3.309   5.116 -0.0434 -0.2417  0.3400
 6883TIP3    H142064   1.393   3.251   5.169  1.3814 -0.1713 -1.0219
 6883TIP3    H242065   1.311   3.255   5.041 -2.2960 -0.4330  1.1835
 6884TIP3   OH242066   4.742   1.679  15.973  0.2270 -0.4070 -0.3804
 6884TIP3    H142067   4.717   1.751  15.915 -0.6509  0.9469  1.5656
 6884TIP3    H242068   4.671   1.615  15.964 -0.0608 -0.0641 -0.5584
 6885TIP3   OH242069   2.564   2.011   4.075  0.4064 -0.2293 -1.0952
 6885TIP3    H142070   2.638   2.071   4.064 -0.6542  1.6974  1.1603
 6885TIP3    H242071   2.580   1.968   4.159 -1.4931  1.1169  0.0531
 6886TIP3   OH242072   2.849   4.337  15.121  0.8015 -0.2668  0.1814
 6886TIP3    H142073   2.802   4.383  15.191  0.5716 -1.7237  1.0184
 6886TIP3    H242074   2.780   4.298  15.068  0.9353  1.5910 -1.4494
 6887TIP3   OH242075   6.023   4.999  15.236 -0.0524 -0.0718 -0.0829
 6887TIP3    H142076   6.056   5.058  15.304  0.4189  0.9573 -1.1847
 6887TIP3    H242077   6.076   4.920  15.245  1.8199  1.0453 -0.9292
 6888TIP3   OH242078   3.963   6.175  12.074  0.3913 -0.5972 -0.3955
 6888TIP3    H142079   3.958   6.211  11.985  0.2926 -2.8886 -1.3946
 6888TIP3    H242080   4.051   6.139  12.081  1.0437  1.1498  1.1606
 6889TIP3   OH242081   2.055   5.940   1.939 -0.0481 -0.2820  0.6982
 6889TIP3    H142082   2.104   6.002   1.885  1.2855 -0.8018  1.2850
 6889TIP3    H242083   1.975   5.987   1.962 -1.2972 -0.4268 -2.6811
 6890TIP3   OH242084   5.199   1.347   1.530  0.6109 -0.0344 -0.1803
 6890TIP3    H142085   5.165   1.363   1.618 -1.8633  0.6812 -1.1869
 6890TIP3    H242086   5.121   1.336   1.476  2.0776 -2.4297 -1.9759
 6891TIP3   OH242087   4.701   2.310  13.859  0.9031  0.1066  0.4566
 6891TIP3    H142088   4.746   2.240  13.906  0.9569  1.0956  1.9113
 6891TIP3    H242089   4.653   2.264  13.790  0.8723 -1.3762  1.4135
 6892TIP3   OH242090   4.450   0.291  12.496 -0.2126  0.6142 -0.2418
 6892TIP3    H142091   4.479   0.381  12.511  1.2104  0.4682 -1.9192
 6892TIP3    H242092   4.494   0.264  12.416 -1.6483 -1.1481 -0.4907
 6893TIP3   OH242093   0.612   5.820  12.390  0.5524  0.4495  0.9820
 6893TIP3    H142094   0.679   5.765  12.430  1.0318 -1.6714 -2.3257
 6893TIP3    H242095   0.659   5.898  12.361  1.3136 -0.3383  0.0431
 6894TIP3   OH242096   0.137   3.926  12.120 -0.0723  0.3015  0.1303
 6894TIP3    H142097   0.216   3.889  12.080 -0.4606  0.6325 -0.9851
 6894TIP3    H242098   0.067   3.908  12.056 -0.6440  1.1679  0.4971
 6895TIP3   OH242099   0.035   5.167  12.294 -0.2365  0.6938  0.7145
 6895TIP3    H142100   0.007   5.078  12.316 -0.3760  0.7287  0.6853
 6895TIP3    H242101  -0.040   5.204  12.246 -0.8307  1.3679  2.1217
 6896TIP3   OH242102   6.016   2.594  16.477  0.7983 -0.4265 -0.1870
 6896TIP3    H142103   5.924   2.568  16.470  1.1888 -1.6913 -0.9181
 6896TIP3    H242104   6.013   2.690  16.478 -0.5146 -0.4356 -0.3482
 6897TIP3   OH242105   0.831   3.198   3.398  0.4779  0.0719  0.3754
 6897TIP3    H142106   0.921   3.189   3.430  1.3746 -0.6436 -2.1748
 6897TIP3    H242107   0.793   3.111   3.408  0.6511 -0.0699 -0.2040
 6898TIP3   OH242108   1.300   2.751  14.904  0.0426 -0.2987 -0.0851
 6898TIP3    H142109   1.273   2.757  14.996 -0.7036 -1.2519 -0.2203
 6898TIP3    H242110   1.277   2.835  14.866  1.0639  0.3911  0.7687
 6899TIP3   OH242111   0.175   1.162  10.956 -0.1894 -0.1338 -0.6207
 6899TIP3    H142112   0.238   1.121  11.016 -0.2707  0.9635  0.2495
 6899TIP3    H242113   0.226   1.227  10.908 -0.7038  1.0455  0.3769
 6900TIP3   OH242114   6.000   3.947   4.068 -0.4710  0.5587 -0.0304
 6900TIP3    H142115   5.927   3.918   4.122 -0.4084  2.3721  1.0852
 6900TIP3    H242116   6.009   3.878   4.001 -1.4530 -1.0380  1.3985
 6901TIP3   OH242117   5.246   6.794   4.520  0.2191  0.2679 -0.2510
 6901TIP3    H142118   5.320   6.742   4.489  1.6055  1.5239  0.8371
 6901TIP3    H242119   5.251   6.787   4.616  0.1602  1.9945 -0.0950
 6902TIP3   OH242120   5.403   3.686  16.115 -0.9916  0.0861  0.4278
 6902TIP3    H142121   5.369   3.644  16.036 -0.8299  1.4470 -0.3983
 6902TIP3    H242122   5.496   3.700  16.097 -0.8587  0.0343  1.0319
 6903TIP3   OH242123   6.060   6.001   2.818 -0.2704 -0.2859 -0.6093
 6903TIP3    H142124   6.071   5.928   2.878 -0.7748 -0.6849 -0.9975
 6903TIP3    H242125   5.975   5.986   2.776 -1.8160  2.0579  1.4288
 6904TIP3   OH242126   2.384   5.278   3.668 -0.0521  0.4334  0.5804
 6904TIP3    H142127   2.382   5.188   3.701  0.7443  0.2593  0.1999
 6904TIP3    H242128   2.322   5.325   3.723  0.1449 -0.1679  1.3404
 6905TIP3   OH242129   3.154   2.504   1.144 -1.2882 -0.0627 -0.3497
 6905TIP3    H142130   3.181   2.471   1.059 -1.7934 -0.5362 -0.3278
 6905TIP3    H242131   3.062   2.527   1.133 -1.8115 -1.6100  0.4857
 6906TIP3   OH242132   2.971   4.517  14.882 -0.4602 -0.1235  0.2470
 6906TIP3    H142133   2.969   4.538  14.975 -1.1786  1.8521 -0.1648
 6906TIP3    H242134   2.897   4.457  14.870 -0.1894 -0.6149  0.9883
 6907TIP3   OH242135   1.262   3.121  15.633  0.0647  0.3444 -0.4388
 6907TIP3    H142136   1.348   3.155  15.607  0.5027 -0.7606 -0.4762
 6907TIP3    H242137   1.204   3.197  15.628  1.3256  1.4737  1.0905
 6908TIP3   OH242138   4.624   1.280   5.411 -0.4035 -0.3699  0.5164
 6908TIP3    H142139   4.562   1.335   5.458  0.0059  1.1389 -0.6362
 6908TIP3    H242140   4.581   1.259   5.329 -0.4561 -1.6219  0.8390
 6909TIP3   OH242141   6.518   2.458  14.632  0.6389  0.1101  0.7692
 6909TIP3    H142142   6.468   2.536  14.609  1.7254  0.8417  0.8247
 6909TIP3    H242143   6.590   2.490  14.686  0.8113 -0.9988  1.2309
 6910TIP3   OH242144   0.056   2.205   4.433 -0.2710 -0.3634  0.2045
 6910TIP3    H142145   0.102   2.145   4.491 -0.8941  0.0994  1.2029
 6910TIP3    H242146   0.034   2.152   4.356 -1.4215 -1.6226  1.3600
 6911TIP3   OH242147   3.978   5.218  13.459  0.3934  0.2261  1.0614
 6911TIP3    H142148   3.943   5.139  13.500 -0.3653 -0.0657 -0.0725
 6911TIP3    H242149   3.900   5.271  13.440  0.7664  0.5964  0.5404
 6912TIP3   OH242150   1.946   4.285  12.487  0.8237  0.7348 -0.1902
 6912TIP3    H142151   1.955   4.211  12.547 -1.5810 -1.5304 -2.3150
 6912TIP3    H242152   2.026   4.284  12.434  1.1362  0.1003  0.2822
 6913TIP3   OH242153   1.125   6.114   0.239 -0.0071  0.4051  0.2112
 6913TIP3    H142154   1.078   6.175   0.181  0.9085  0.8741 -0.0548
 6913TIP3    H242155   1.120   6.155   0.325  1.0775  1.1614 -0.0633
 6914TIP3   OH242156   4.656   3.078   1.448 -0.4290  0.4130  0.6613
 6914TIP3    H142157   4.633   3.170   1.462  0.8022  1.0433 -1.0824
 6914TIP3    H242158   4.577   3.039   1.410 -0.7785  0.9014  0.8873
 6915TIP3   OH242159   2.404   0.181   5.219 -0.0592 -0.5019  0.3552
 6915TIP3    H142160   2.387   0.098   5.263 -0.2169 -1.1315 -0.8541
 6915TIP3    H242161   2.320   0.228   5.225  0.6513  0.6144  3.0827
 6916TIP3   OH242162   4.873   6.122  14.570  0.1717 -0.3009  0.5806
 6916TIP3    H142163   4.949   6.179  14.562  0.1132 -0.1396  1.0978
 6916TIP3    H242164   4.810   6.173  14.621  0.9266 -1.5740  2.9384
 6917TIP3   OH242165   6.758   5.874  16.636  0.2613 -0.4446  0.3333
 6917TIP3    H142166   6.815   5.940  16.675  0.1387 -0.7429  1.0235
 6917TIP3    H242167   6.814   5.829  16.572  0.2296  0.5916 -0.4508
 6918TIP3   OH242168   3.814   6.535   3.160  0.1404 -0.4727  0.0816
 6918TIP3    H142169   3.891   6.510   3.211  0.3217  0.2251  0.1591
 6918TIP3    H242170   3.789   6.456   3.113  1.8121 -0.3190 -1.1432
 6919TIP3   OH242171   2.725   4.531   3.046 -0.0567 -0.1548 -0.4770
 6919TIP3    H142172   2.763   4.446   3.026  0.3875 -0.1018  0.1011
 6919TIP3    H242173   2.755   4.588   2.975  0.9745 -0.1148 -0.0328
 6920TIP3   OH242174   0.366   3.136   0.176 -0.1166  0.3729  0.5246
 6920TIP3    H142175   0.457   3.140   0.146 -0.3472  1.5724 -0.0898
 6920TIP3    H242176   0.318   3.188   0.111 -1.0604  0.7044  1.4675
 6921TIP3   OH242177   1.095   4.939  14.831 -0.2613 -0.5571 -0.1023
 6921TIP3    H142178   1.032   4.972  14.767  0.4951 -0.2263 -0.6916
 6921TIP3    H242179   1.147   5.016  14.856 -0.4755 -0.6985  0.8429
 6922TIP3   OH242180   3.438   1.591   1.729 -0.0802  0.0493  0.4372
 6922TIP3    H142181   3.378   1.564   1.659 -0.4573  1.8261  0.0294
 6922TIP3    H242182   3.497   1.516   1.740  1.9880  0.6861 -3.9291
 6923TIP3   OH242183   5.588   1.543   0.180 -0.2068  0.5341 -0.0237
 6923TIP3    H142184   5.563   1.450   0.176  1.5311 -0.0456  1.4056
 6923TIP3    H242185   5.682   1.541   0.192  0.0414  2.5564 -1.2512
 6924TIP3   OH242186   2.633   6.650  15.794 -0.0697  0.4760  0.5254
 6924TIP3    H142187   2.689   6.574  15.812 -1.1712 -0.0286  2.1087
 6924TIP3    H242188   2.689   6.726  15.811  0.5072 -0.0089  0.8152
 6925TIP3   OH242189   1.452   1.171  12.834  0.7047  0.0009  0.0075
 6925TIP3    H142190   1.509   1.194  12.908  1.0417 -0.1510 -0.2025
 6925TIP3    H242191   1.501   1.199  12.757 -0.1402  1.2381 -0.1242
 6926TIP3   OH242192   6.345   1.437  16.753  0.2448 -0.0879 -0.0491
 6926TIP3    H142193   6.289   1.387  16.693  1.0503  0.6699 -1.5024
 6926TIP3    H242194   6.303   1.523  16.759 -0.1559 -0.3519  0.9736
 6927TIP3   OH242195   6.316   4.589   0.684  0.2222 -0.1160  0.1095
 6927TIP3    H142196   6.411   4.603   0.690  0.1372  0.2701  0.6670
 6927TIP3    H242197   6.296   4.598   0.591  0.5396  1.1754  0.1427
 6928TIP3   OH242198   5.112   5.240  11.184 -0.0099 -0.5503  0.0997
 6928TIP3    H142199   5.186   5.266  11.129  0.7700 -0.9934  0.9157
 6928TIP3    H242200   5.152   5.207  11.264 -1.1093 -0.5293  0.6745
 6929TIP3   OH242201   1.284   2.933  15.860  0.2735 -0.5199  0.7006
 6929TIP3    H142202   1.276   2.997  15.789  1.3736 -0.7717  0.3321
 6929TIP3    H242203   1.366   2.887  15.842 -0.0635 -1.4468  1.4444
 6930TIP3   OH242204   5.177   5.886  10.525  0.2384  0.1172 -0.1443
 6930TIP3    H142205   5.181   5.909  10.618  1.6281 -0.9287  0.0980
 6930TIP3    H242206   5.185   5.970  10.479  0.5595  0.5550  0.6869
 6931TIP3   OH242207   4.340   2.148   3.903  0.2774  0.6655 -0.1346
 6931TIP3    H142208   4.333   2.181   3.993  1.6895  1.5020 -0.2957
 6931TIP3    H242209   4.405   2.206   3.862  2.1416 -1.6863 -0.7386
 6932TIP3   OH242210   1.387   0.207  13.030  0.7363 -0.1413  0.3453
 6932TIP3    H142211   1.366   0.127  13.078  0.9885 -0.1887  0.3772
 6932TIP3    H242212   1.328   0.206  12.954  0.7975 -0.3947  0.3022
 6933TIP3   OH242213   6.775   0.766  11.516  0.0084  0.7639 -0.0962
 6933TIP3    H142214   6.683   0.787  11.532  0.4024  2.1109  0.4919
 6933TIP3    H242215   6.783   0.765  11.421 -1.2590 -2.4510 -0.3141
 6934TIP3   OH242216   4.127   5.160  15.462  0.4378 -0.0953  0.6802
 6934TIP3    H142217   4.128   5.089  15.526 -1.3290 -0.4909  0.3148
 6934TIP3    H242218   4.036   5.167  15.435  0.6695  1.9408  0.2701
 6935TIP3   OH242219   2.451   0.667   3.721  0.4465 -0.3127 -0.4857
 6935TIP3    H142220   2.542   0.691   3.736  0.3031  0.8791 -1.3123
 6935TIP3    H242221   2.445   0.656   3.626 -0.0732 -1.2487 -0.3524
 6936TIP3   OH242222   4.013   3.253  14.828 -0.2507  0.5554 -0.3121
 6936TIP3    H142223   4.024   3.325  14.766  1.2610  1.5156  0.9952
 6936TIP3    H242224   4.099   3.213  14.834 -1.0509 -1.3744 -0.9550
 6937TIP3   OH242225   0.022   5.701   0.171  0.0129  0.8011 -0.0433
 6937TIP3    H142226   0.020   5.728   0.263 -1.3140 -0.6863  0.4043
 6937TIP3    H242227  -0.047   5.752   0.129 -0.2019  0.5912  0.0551
 6938TIP3   OH242228   1.054   2.954   1.897 -0.8533 -0.0988  0.2668
 6938TIP3    H142229   1.016   3.018   1.837 -1.2391  0.2491  0.8715
 6938TIP3    H242230   1.057   2.999   1.981  0.6084 -0.2252  0.3130
 6939TIP3   OH242231   0.901   4.158  16.645  0.1543 -0.4534 -0.4279
 6939TIP3    H142232   0.822   4.104  16.650  0.1474 -0.4700 -0.7061
 6939TIP3    H242233   0.906   4.186  16.553 -0.0783  0.3669 -0.2059
 6940TIP3   OH242234   6.467   2.200  14.796 -0.8696  0.0010 -0.0232
 6940TIP3    H142235   6.562   2.203  14.792 -0.8796 -0.9013 -1.6561
 6940TIP3    H242236   6.439   2.271  14.738 -1.1459 -1.0785 -1.2717
 6941TIP3   OH242237   0.075   5.828   2.999 -0.6085 -0.0861 -0.0895
 6941TIP3    H142238  -0.007   5.877   3.000  1.6797  4.2088 -0.6934
 6941TIP3    H242239   0.114   5.846   3.084  0.3325 -0.9658 -0.3148
 6942TIP3   OH242240   2.182   1.749  13.158  0.1975  0.4069  0.9040
 6942TIP3    H142241   2.140   1.735  13.243  1.0269  0.5953  1.3543
 6942TIP3    H242242   2.118   1.717  13.094 -0.3967  0.1772  1.6016
 6943TIP3   OH242243   6.354   3.139   5.545  0.2180 -0.5926 -0.3007
 6943TIP3    H142244   6.271   3.125   5.500 -0.1759  2.1900 -0.5845
 6943TIP3    H242245   6.419   3.144   5.475 -0.2399  2.6326 -0.6401
 6944TIP3   OH242246   4.455   6.191  11.317 -0.3757 -0.0596  0.5796
 6944TIP3    H142247   4.506   6.250  11.262 -1.3966  2.4009  2.1268
 6944TIP3    H242248   4.427   6.121  11.257  3.1329 -0.5402 -0.6967
 6945TIP3   OH242249   4.404   0.179  11.079  0.3808 -0.4228  0.3000
 6945TIP3    H142250   4.324   0.128  11.087 -0.4892  0.5809 -1.3835
 6945TIP3    H242251   4.406   0.206  10.987  2.0102  0.6000  0.5925
 6946TIP3   OH242252   1.190   6.442  14.399 -0.1549  0.3824  0.0479
 6946TIP3    H142253   1.162   6.377  14.335 -1.3167  0.2978  0.6021
 6946TIP3    H242254   1.205   6.522  14.349  0.0291  0.0229 -0.4699
 6947TIP3   OH242255   5.735   0.851   2.471  0.3436 -0.4992  0.2584
 6947TIP3    H142256   5.691   0.812   2.395 -0.0441 -0.6142  0.5400
 6947TIP3    H242257   5.795   0.916   2.434 -2.1980  1.8623 -0.0034
 6948TIP3   OH242258   5.897   1.389  16.506  0.7028  0.1877 -0.5459
 6948TIP3    H142259   5.850   1.410  16.426  1.4439 -1.2072 -1.3906
 6948TIP3    H242260   5.867   1.301  16.528  0.3259  0.6450  0.8696
 6949TIP3   OH242261   4.376   4.676   1.384  0.7537  0.8040  0.2797
 6949TIP3    H142262   4.369   4.721   1.468  0.8129 -0.0734  0.7698
 6949TIP3    H242263   4.298   4.704   1.335  0.0114  0.3144  1.1401
 6950TIP3   OH242264   6.682   5.032  11.230  0.0854 -0.6255 -0.0789
 6950TIP3    H142265   6.597   5.050  11.192  1.3150  1.1937 -2.1916
 6950TIP3    H242266   6.680   5.074  11.316 -0.9110 -0.0319 -0.3854
 6951TIP3   OH242267   0.676   0.907   0.620 -0.0729  0.3203  0.2246
 6951TIP3    H142268   0.751   0.890   0.563  1.1150  2.0947  1.1489
 6951TIP3    H242269   0.603   0.920   0.560 -0.0491 -2.7533 -0.6712
 6952TIP3   OH242270   1.361   0.015   0.385 -0.0647 -0.2012 -0.0362
 6952TIP3    H142271   1.430   0.027   0.321 -0.1609  2.4383  0.2712
 6952TIP3    H242272   1.301  -0.048   0.345  0.5363  0.4150 -1.9659
 6953TIP3   OH242273   6.247   4.957   4.829 -0.2682 -0.1453 -0.2857
 6953TIP3    H142274   6.328   4.906   4.834 -0.2077  0.0266  0.9520
 6953TIP3    H242275   6.240   4.998   4.916 -1.0420  0.8300 -0.7883
 6954TIP3   OH242276   2.661   3.516   4.300 -0.8974 -0.2873  0.0177
 6954TIP3    H142277   2.585   3.555   4.256  0.3544  0.8778 -1.1700
 6954TIP3    H242278   2.689   3.446   4.240  0.2663  0.7126 -0.6290
 6955TIP3   OH242279   4.408   4.327   3.343 -0.2688 -0.4335 -0.4960
 6955TIP3    H142280   4.372   4.273   3.414  0.4398  0.2277  0.4033
 6955TIP3    H242281   4.342   4.324   3.274 -0.6173 -1.7476 -0.1318
 6956TIP3   OH242282   0.656   0.131   2.093 -0.4465 -0.1304  0.1606
 6956TIP3    H142283   0.661   0.101   2.003 -0.6651  1.6324 -0.4759
 6956TIP3    H242284   0.572   0.176   2.100  0.1527  0.9288  0.8434
 6957TIP3   OH242285   2.254   4.308   3.657  0.0111  0.4100  0.7689
 6957TIP3    H142286   2.195   4.353   3.596  1.4665 -0.3280 -1.3317
 6957TIP3    H242287   2.229   4.340   3.743 -2.5853  1.0579 -0.1240
 6958TIP3   OH242288   5.050   3.197   3.466 -0.3764  0.2682  0.0716
 6958TIP3    H142289   5.118   3.247   3.511  1.5897 -1.6134 -0.6287
 6958TIP3    H242290   5.088   3.175   3.381 -1.5832 -1.4220 -0.0996
 6959TIP3   OH242291   3.661   2.467   3.987 -0.2327 -0.3174 -0.1069
 6959TIP3    H142292   3.632   2.540   3.932  1.0557  0.3333  0.0283
 6959TIP3    H242293   3.757   2.470   3.982 -0.1350 -1.6942  0.3118
 6960TIP3   OH242294   0.400   3.750   5.385 -0.0849 -0.4341  0.6242
 6960TIP3    H142295   0.424   3.815   5.319  1.3784 -1.4482  0.1106
 6960TIP3    H242296   0.421   3.792   5.468  1.7381 -0.5398  0.2601
 6961TIP3   OH242297   1.562   1.519  15.647  0.6043  0.0667 -0.3269
 6961TIP3    H142298   1.648   1.557  15.668  0.3036  1.5946 -1.6459
 6961TIP3    H242299   1.515   1.590  15.603 -1.2582 -0.8306  0.1425
 6962TIP3   OH242300   0.570   5.404   1.216 -0.0229 -0.5850 -0.1457
 6962TIP3    H142301   0.592   5.497   1.222  3.0042 -0.9400 -2.9672
 6962TIP3    H242302   0.629   5.361   1.278 -0.2733 -0.7348 -0.0125
 6963TIP3   OH242303   4.546   0.357   4.271  0.3505 -0.1607 -0.1624
 6963TIP3    H142304   4.612   0.322   4.211  0.1961 -0.5413 -0.1145
 6963TIP3    H242305   4.471   0.377   4.216 -0.6928 -2.7517  0.1763
 6964TIP3   OH242306   1.547   0.579  16.999 -0.8717 -0.0136 -0.3664
 6964TIP3    H142307   1.563   0.490  16.969 -2.2452 -0.7103  0.7905
 6964TIP3    H242308   1.473   0.609  16.946 -0.6748  0.2837 -0.4715
 6965TIP3   OH242309   1.463   3.184  14.592 -1.1233 -0.4202  0.3241
 6965TIP3    H142310   1.399   3.115  14.575 -0.1146 -0.6347 -3.6380
 6965TIP3    H242311   1.475   3.227  14.508  2.0296  1.3212  1.4759
 6966TIP3   OH242312   4.399   5.474  15.208 -0.0973  0.0728  0.0388
 6966TIP3    H142313   4.322   5.430  15.246  1.0627 -1.1288  1.1053
 6966TIP3    H242314   4.380   5.567  15.219 -2.2045 -0.1141 -1.4069
 6967TIP3   OH242315   4.125   1.128   0.323 -0.1491  0.4315 -0.1458
 6967TIP3    H142316   4.101   1.071   0.250 -1.7188 -0.2659  0.8535
 6967TIP3    H242317   4.172   1.201   0.283 -0.5383 -0.1790 -1.7834
 6968TIP3   OH242318   2.482   3.586  11.665 -0.0290 -0.4318 -0.1665
 6968TIP3    H142319   2.553   3.561  11.724 -0.3344  0.7475  0.7309
 6968TIP3    H242320   2.438   3.658  11.709 -3.3633 -2.6777  0.5088
 6969TIP3   OH242321   2.625   3.648  12.878  0.7907  0.3285 -0.1082
 6969TIP3    H142322   2.657   3.558  12.869 -1.2795 -0.3339 -1.5947
 6969TIP3    H242323   2.616   3.660  12.973 -0.9069 -1.8466  0.0823
 6970TIP3   OH242324   4.787   6.661   3.006 -0.4265  0.0054  0.2541
 6970TIP3    H142325   4.842   6.583   3.003 -1.1516 -0.5152  0.1747
 6970TIP3    H242326   4.764   6.671   3.098 -1.8701 -0.9914  0.0304
 6971TIP3   OH242327   5.346   4.743  10.747 -0.2988 -0.3188 -0.0721
 6971TIP3    H142328   5.423   4.690  10.766 -1.5793 -2.3976 -0.4288
 6971TIP3    H242329   5.375   4.805  10.681  1.7263  0.7432  1.6866
 6972TIP3   OH242330   0.953   0.624  12.773 -0.0373  0.2891 -0.3968
 6972TIP3    H142331   1.035   0.615  12.724 -1.0693 -0.2315 -2.0786
 6972TIP3    H242332   0.918   0.708  12.744 -1.5805 -0.8641 -2.0694
 6973TIP3   OH242333   1.705   3.888   1.758 -0.0120 -0.2504  0.4127
 6973TIP3    H142334   1.711   3.813   1.700 -0.2000  0.0141  0.0490
 6973TIP3    H242335   1.796   3.908   1.781  0.2657  1.0210 -1.5651
 6974TIP3   OH242336   0.321   6.182   3.431  0.0879  0.5634 -0.3349
 6974TIP3    H142337   0.274   6.116   3.381 -0.7244  0.9168 -0.0639
 6974TIP3    H242338   0.363   6.134   3.502 -0.0142  0.2627 -0.4787
 6975TIP3   OH242339   0.668   4.021  16.782  0.0048  0.2794  0.2376
 6975TIP3    H142340   0.585   4.022  16.734 -0.5412  0.1986  1.1455
 6975TIP3    H242341   0.684   4.113  16.804 -1.1114  0.0680  2.1276
 6976TIP3   OH242342   6.774   3.421  14.482  0.1318  0.2514  0.2947
 6976TIP3    H142343   6.723   3.502  14.487  0.6452  0.4863  2.3454
 6976TIP3    H242344   6.720   3.357  14.527  1.4194  0.4062  2.1221
 6977TIP3   OH242345   2.435   2.144  16.297  0.0215  0.1532 -0.4272
 6977TIP3    H142346   2.356   2.108  16.254  0.4686 -0.5008 -0.7210
 6977TIP3    H242347   2.428   2.238  16.284 -1.1826  0.1885  0.3534
 6978TIP3   OH242348   6.082   3.688  10.928 -0.4112 -0.0441  0.1626
 6978TIP3    H142349   6.176   3.707  10.930 -0.1901 -1.0234 -0.1899
 6978TIP3    H242350   6.042   3.767  10.891  0.4883 -0.3095 -1.5043
 6979TIP3   OH242351   1.687   3.388   0.998  0.6641 -0.2639 -0.0020
 6979TIP3    H142352   1.667   3.393   0.904 -0.0577 -0.5621  0.1282
 6979TIP3    H242353   1.767   3.336   1.003  0.3819 -0.7488 -0.4218
 6980TIP3   OH242354   4.104   4.767  16.421  0.2222  0.2848  0.2179
 6980TIP3    H142355   4.178   4.774  16.361  1.0753 -1.6767  0.9639
 6980TIP3    H242356   4.103   4.675  16.448 -2.6025  0.1956  0.1187
 6981TIP3   OH242357   5.488   3.682  10.214  0.0674  0.1740 -0.0016
 6981TIP3    H142358   5.579   3.652  10.216  0.3139  0.7638 -1.2632
 6981TIP3    H242359   5.438   3.605  10.185  0.0756 -0.3079  1.2178
 6982TIP3   OH242360   4.308   6.441   2.096  0.0460 -0.1477  0.6496
 6982TIP3    H142361   4.349   6.527   2.099 -0.3009  0.0333  0.3713
 6982TIP3    H242362   4.218   6.457   2.125  0.3890 -0.6810  2.0902
 6983TIP3   OH242363   4.608   2.922   5.938  0.5238  0.3435 -0.7365
 6983TIP3    H142364   4.614   2.959   6.026  0.3272 -0.3627 -0.4144
 6983TIP3    H242365   4.669   2.848   5.939  0.0416 -0.0665 -0.9831
 6984TIP3   OH242366   4.744   5.628   2.568 -0.0901  0.2522 -0.4295
 6984TIP3    H142367   4.836   5.627   2.596  0.3066 -0.1892 -1.6674
 6984TIP3    H242368   4.729   5.541   2.531 -1.0411  0.2967 -0.1824
 6985TIP3   OH242369   3.638   3.796  16.173  0.0035 -0.0284 -0.2456
 6985TIP3    H142370   3.709   3.731  16.170  0.5411  0.5831 -1.2909
 6985TIP3    H242371   3.559   3.744  16.183  0.6292 -0.6892  2.0293
 6986TIP3   OH242372   3.490   1.758   5.632  0.4291 -0.3304 -0.0174
 6986TIP3    H142373   3.448   1.673   5.646  0.7309 -0.4865 -0.0570
 6986TIP3    H242374   3.455   1.789   5.549  0.7937 -0.7044 -0.3143
 6987TIP3   OH242375   5.942   4.215  10.883  0.0783  0.0736 -0.5860
 6987TIP3    H142376   6.016   4.193  10.940  1.7203 -0.2928 -2.6836
 6987TIP3    H242377   5.894   4.283  10.930  0.0612 -1.6411  2.1178
 6988TIP3   OH242378   4.224   5.116  10.547  0.7097  0.2819 -0.2855
 6988TIP3    H142379   4.175   5.147  10.471  0.4063 -1.3655 -0.7951
 6988TIP3    H242380   4.202   5.023  10.554  0.0245  0.5727  2.3627
 6989TIP3   OH242381   1.281   2.984  16.420  0.1521  0.0168  0.2728
 6989TIP3    H142382   1.208   2.973  16.481 -0.2432  0.6022 -0.0886
 6989TIP3    H242383   1.241   3.019  16.340  0.7917  0.1105 -0.0135
 6990TIP3   OH242384   4.012   6.174  11.550  0.7503 -0.1502 -0.7070
 6990TIP3    H142385   3.930   6.207  11.585  0.8424 -0.3452 -0.2986
 6990TIP3    H242386   4.077   6.240  11.575  0.8384 -0.3540 -0.3822
 6991TIP3   OH242387   3.389   6.399  11.328  0.0250 -0.6569  0.0264
 6991TIP3    H142388   3.372   6.430  11.239 -0.2923  2.0087  0.9424
 6991TIP3    H242389   3.463   6.338  11.319 -0.9822 -1.6623 -2.2156
 6992TIP3   OH242390   4.222   2.279  11.837  0.0987 -0.4043 -0.0652
 6992TIP3    H142391   4.144   2.326  11.809 -0.0171  1.2146  2.5483
 6992TIP3    H242392   4.189   2.208  11.893  0.4268 -0.2239  0.3699
 6993TIP3   OH242393   4.330   2.443   0.036 -0.1659  0.2326 -0.3226
 6993TIP3    H142394   4.315   2.409   0.124 -1.7912  1.3817 -0.1173
 6993TIP3    H242395   4.260   2.404  -0.017 -0.8792  1.6605 -0.4899
 6994TIP3   OH242396   3.368   2.808   2.729 -0.2460  0.2649  0.0221
 6994TIP3    H142397   3.311   2.802   2.805 -0.6881  0.5944 -0.2793
 6994TIP3    H242398   3.389   2.717   2.707 -2.0484  0.0227 -0.8932
 6995TIP3   OH242399   4.001   0.860  15.834 -0.0806  0.3640  0.1586
 6995TIP3    H142400   3.928   0.921  15.847  0.7156  1.1727  1.0152
 6995TIP3    H242401   3.966   0.775  15.862 -0.2875  0.9974  1.9661
 6996TIP3   OH242402   6.603   5.557   0.311  0.1270  0.2934 -0.1415
 6996TIP3    H142403   6.688   5.567   0.354 -0.2363  0.3666  0.5713
 6996TIP3    H242404   6.624   5.518   0.226  0.8673  0.2585  0.0487
 6997TIP3   OH242405   2.109   6.267  12.976  0.6712 -0.1514 -0.0478
 6997TIP3    H142406   2.128   6.173  12.969  0.3519 -0.3424  1.4594
 6997TIP3    H242407   2.014   6.271  12.988  0.5046  0.4616 -1.3280
 6998TIP3   OH242408   4.021   0.954   3.098 -0.4669 -0.2097 -0.4406
 6998TIP3    H142409   4.031   0.944   3.004 -3.6664  0.0340 -0.9123
 6998TIP3    H242410   4.027   1.048   3.114  1.0637 -0.3225 -0.2039
 6999TIP3   OH242411   2.563   2.600  14.735 -0.7929 -0.4339 -0.3057
 6999TIP3    H142412   2.519   2.550  14.803 -0.0040  0.6293  1.0325
 6999TIP3    H242413   2.491   2.631  14.678 -1.7012  0.3116  1.1763
 7000TIP3   OH242414   5.579   1.480   3.856 -0.3221  0.2733  0.0494
 7000TIP3    H142415   5.586   1.398   3.807 -0.2677 -0.2101  0.8458
 7000TIP3    H242416   5.641   1.539   3.812  1.1320 -0.7341  0.6693
 7001TIP3   OH242417   4.012   6.452  16.854 -0.5268 -0.2745  0.4888
 7001TIP3    H142418   3.981   6.504  16.929 -0.0717  0.1256  0.4061
 7001TIP3    H242419   4.107   6.457  16.859 -0.4801 -0.9100  0.3343
 7002TIP3   OH242420   5.791   1.370   6.035  0.1443 -0.6071  0.6344
 7002TIP3    H142421   5.859   1.335   5.979  0.5962  1.4114 -0.1479
 7002TIP3    H242422   5.731   1.415   5.976 -1.3481 -1.4831  1.4141
 7003TIP3   OH242423   6.056   4.691  16.452  0.1683 -0.0782 -0.3793
 7003TIP3    H142424   6.071   4.601  16.422 -0.8228 -0.5443  0.4718
 7003TIP3    H242425   6.009   4.681  16.534  0.6254  1.2261  0.0556
 7004TIP3   OH242426   6.129   1.844   0.623  0.3580 -0.3072  0.0900
 7004TIP3    H142427   6.168   1.846   0.536 -0.6037 -0.3547 -0.3509
 7004TIP3    H242428   6.053   1.901   0.617 -0.1946 -0.9642  0.6579
 7005TIP3   OH242429   3.697   4.320   4.714 -0.4280  0.8980  0.5368
 7005TIP3    H142430   3.638   4.370   4.770 -1.3827 -0.0434  0.4137
 7005TIP3    H242431   3.653   4.235   4.703  0.6570  0.3920 -0.0745
 7006TIP3   OH242432   0.322   5.519  16.321 -0.0242  0.4602  0.3406
 7006TIP3    H142433   0.235   5.491  16.294  0.5384 -0.2251 -0.8595
 7006TIP3    H242434   0.378   5.497  16.246  0.6443  3.9209 -0.3306
 7007TIP3   OH242435   2.264   1.864   1.949 -0.1297  0.4889 -0.3549
 7007TIP3    H142436   2.194   1.894   1.892  0.1132  0.3880 -0.7106
 7007TIP3    H242437   2.255   1.917   2.028 -0.5955  0.4837 -0.4046
 7008TIP3   OH242438   3.861   5.936  12.746 -0.4088 -0.0897  0.0544
 7008TIP3    H142439   3.809   5.887  12.810 -2.7459  3.2102  0.9396
 7008TIP3    H242440   3.825   5.911  12.661 -0.0096 -1.4906  0.2653
 7009TIP3   OH242441   4.894   4.654   5.310 -0.0587  1.1578  0.2342
 7009TIP3    H142442   4.927   4.655   5.400  0.4845  1.7717  0.0392
 7009TIP3    H242443   4.808   4.696   5.316 -0.3736  0.4775  0.5853
 7010TIP3   OH242444   4.435   5.094  12.420  0.0612 -0.4979 -0.0198
 7010TIP3    H142445   4.461   5.094  12.512 -0.8043  0.9863  0.2591
 7010TIP3    H242446   4.340   5.079  12.422 -0.5912  2.7780 -0.3741
 7011TIP3   OH242447   1.201   2.578  16.162  0.4675  0.6653  0.3368
 7011TIP3    H142448   1.268   2.615  16.218  0.2859  1.2317  0.1827
 7011TIP3    H242449   1.119   2.589  16.210  0.0664  2.6208 -0.6769
 7012TIP3   OH242450   4.019   2.274  13.619  0.6388 -0.7440 -0.3947
 7012TIP3    H142451   3.996   2.183  13.599 -1.4727  0.0524 -2.0646
 7012TIP3    H242452   4.011   2.320  13.535  0.3929  1.1951  0.6218
 7013TIP3   OH242453   1.716   1.205  14.707  0.0650 -0.7794  0.6538
 7013TIP3    H142454   1.666   1.270  14.755 -0.9870 -0.4672 -0.7783
 7013TIP3    H242455   1.650   1.150  14.664  0.9397 -1.2755 -0.1048
 7014TIP3   OH242456   3.062   1.670   3.146 -0.6167 -0.4497 -0.1419
 7014TIP3    H142457   3.023   1.735   3.205 -2.1170 -2.6602  1.4809
 7014TIP3    H242458   2.998   1.661   3.076 -0.5681 -0.4208 -0.1899
 7015TIP3   OH242459   2.009   3.867   1.823 -0.3686  0.4547 -0.1284
 7015TIP3    H142460   2.000   3.815   1.743  0.8882 -0.6877  0.4420
 7015TIP3    H242461   2.103   3.867   1.841 -0.7852 -0.9521  2.4139
 7016TIP3   OH242462   6.262   6.702   0.248  0.4752  0.2486 -0.5260
 7016TIP3    H142463   6.223   6.645   0.183  0.2348 -2.2047  1.6217
 7016TIP3    H242464   6.223   6.788   0.232 -0.9699 -0.6950 -2.3891
 7017TIP3   OH242465   2.563   0.773  13.224 -0.3766  0.1417 -0.1246
 7017TIP3    H142466   2.566   0.822  13.142 -1.5527 -1.2650 -1.0636
 7017TIP3    H242467   2.652   0.741  13.237  0.0328  1.1658 -0.3271
 7018TIP3   OH242468   4.686   1.054  13.871 -0.2238  0.1227 -0.1829
 7018TIP3    H142469   4.649   1.131  13.913 -0.2734  0.0933 -0.1720
 7018TIP3    H242470   4.712   0.997  13.943  0.7383  0.5588 -0.1794
 7019TIP3   OH242471   2.465   3.093   0.652  0.3135 -0.6271  0.5939
 7019TIP3    H142472   2.436   3.182   0.668  1.4548  0.1441 -1.3203
 7019TIP3    H242473   2.408   3.039   0.707  0.4298  1.3257  2.7791
 7020TIP3   OH242474   0.822   2.197  15.045  0.4394 -0.3458  0.2566
 7020TIP3    H142475   0.890   2.264  15.047  1.2616 -1.1194 -0.5857
 7020TIP3    H242476   0.785   2.203  14.957 -1.0469  0.4830  0.9046
 7021TIP3   OH242477   1.541   3.075   4.789  0.9991 -0.2868  0.2008
 7021TIP3    H142478   1.529   3.169   4.803  2.5797 -0.1360  0.8652
 7021TIP3    H242479   1.516   3.060   4.698 -0.4744  0.5283  0.4478
 7022TIP3   OH242480   0.780   3.174  15.724 -0.4663 -0.3046  0.1678
 7022TIP3    H142481   0.768   3.137  15.636 -0.4295  0.7001 -0.2763
 7022TIP3    H242482   0.775   3.269  15.711 -1.8190 -0.1563  1.4459
 7023TIP3   OH242483   3.235   1.225  12.318 -0.3501  0.4839 -0.1287
 7023TIP3    H142484   3.328   1.246  12.314  0.1281 -0.8654  2.1405
 7023TIP3    H242485   3.191   1.310  12.315  0.9588  1.1659 -0.6739
 7024TIP3   OH242486   1.843   2.593  16.669  0.6798 -0.0881 -0.4766
 7024TIP3    H142487   1.801   2.678  16.655 -1.0783 -0.7775  0.3313
 7024TIP3    H242488   1.792   2.532  16.617  1.3970 -0.7895 -0.3711
 7025TIP3   OH242489   6.033   4.538  12.044 -0.1713 -0.2161  0.1020
 7025TIP3    H142490   6.097   4.546  11.973 -0.5405 -1.0448 -0.3242
 7025TIP3    H242491   5.969   4.607  12.026 -0.1148 -0.2422 -0.2077
 7026TIP3   OH242492   3.857   1.743  12.906  0.0113 -0.0067  0.7436
 7026TIP3    H142493   3.835   1.716  12.995  2.0637 -1.5321  0.8715
 7026TIP3    H242494   3.924   1.810  12.917 -2.7501  3.0442  0.3351
 7027TIP3   OH242495   2.698   0.057   2.039 -0.2380  0.3844  0.2063
 7027TIP3    H142496   2.779   0.063   2.089  0.1081  0.0923 -0.3076
 7027TIP3    H242497   2.644   0.129   2.071 -0.1951 -0.0401  1.2931
 7028TIP3   OH242498   3.250   2.649   3.731  0.0922  0.0371 -0.4417
 7028TIP3    H142499   3.251   2.708   3.806 -0.8368 -0.2309 -0.2045
 7028TIP3    H242500   3.169   2.670   3.685  0.1712 -0.4706 -0.8203
 7029TIP3   OH242501   1.957   2.649   1.754 -0.2231 -0.3554  0.2400
 7029TIP3    H142502   1.889   2.703   1.713 -2.3269 -2.0105  1.3348
 7029TIP3    H242503   2.002   2.606   1.681 -0.8705  0.1944 -0.4910
 7030TIP3   OH242504   4.181   4.767   2.188  0.2060 -0.6777  0.1040
 7030TIP3    H142505   4.130   4.692   2.219  1.0148 -1.1138  0.3939
 7030TIP3    H242506   4.272   4.739   2.193  0.5691  0.5466  0.8124
 7031TIP3   OH242507   3.821   6.730  16.856  0.3433  0.1863  0.4496
 7031TIP3    H142508   3.765   6.741  16.780 -0.7472 -1.1420  1.0216
 7031TIP3    H242509   3.901   6.778  16.834 -0.4559  0.9318 -0.9681
 7032TIP3   OH242510   5.187   5.557  10.301 -0.0935 -0.0054  0.1742
 7032TIP3    H142511   5.205   5.465  10.319 -2.0688 -0.2470  1.1688
 7032TIP3    H242512   5.093   5.566  10.313  0.1532  2.3403  0.9330
 7033TIP3   OH242513   2.855   0.947   2.950 -0.1833  0.6327  0.1341
 7033TIP3    H142514   2.792   0.936   3.022 -0.2825 -0.0263 -0.0397
 7033TIP3    H242515   2.801   0.948   2.871 -0.0160  0.5278  0.0176
 7034TIP3   OH242516   1.123   0.180  10.588  0.4026  0.1698  0.2243
 7034TIP3    H142517   1.175   0.258  10.608 -0.0036 -0.0390  2.3738
 7034TIP3    H242518   1.037   0.213  10.564  0.3798  0.4230  0.6336
 7035TIP3   OH242519   0.737   4.441   3.477  0.3556 -0.5199 -0.8113
 7035TIP3    H142520   0.829   4.416   3.489  1.2423  0.3589 -4.4251
 7035TIP3    H242521   0.721   4.506   3.546  1.3271 -3.0077  1.9441
 7036TIP3   OH242522   5.097   0.348   3.198 -0.5125 -0.1493 -0.0830
 7036TIP3    H142523   5.144   0.268   3.220 -1.2532 -0.0462  2.0755
 7036TIP3    H242524   5.007   0.332   3.226 -0.4383  1.8256  1.5593
 7037TIP3   OH242525   2.661   4.058  16.168 -0.1600  0.1217  0.0528
 7037TIP3    H142526   2.617   4.143  16.164 -0.6111 -0.1378 -0.6199
 7037TIP3    H242527   2.702   4.056  16.254 -0.3230  0.9363  0.1549
 7038TIP3   OH242528   5.634   5.987   0.286  0.0873  0.1164  0.4244
 7038TIP3    H142529   5.726   5.964   0.298  0.7575  2.9763  1.7074
 7038TIP3    H242530   5.604   6.013   0.373 -1.9712 -0.7330  0.0289
 7039TIP3   OH242531   4.646   0.516   4.511 -0.2134 -0.1913  0.1157
 7039TIP3    H142532   4.630   0.494   4.420  1.6086  0.7208 -0.4722
 7039TIP3    H242533   4.652   0.432   4.556 -2.0807 -0.6333 -0.3914
 7040TIP3   OH242534   4.046   1.216  13.332  0.7508  0.1648  0.0906
 7040TIP3    H142535   4.062   1.308  13.354 -0.0519  0.3053  0.1125
 7040TIP3    H242536   4.094   1.202  13.250 -1.0021  1.2823 -1.2094
 7041TIP3   OH242537   5.755   2.702   1.287 -0.1064  0.7287  0.1273
 7041TIP3    H142538   5.812   2.710   1.363  0.5010  0.8780 -0.3389
 7041TIP3    H242539   5.797   2.756   1.219  0.0479 -0.4065 -0.7105
 7042TIP3   OH242540   3.499   3.175   1.447 -0.4403 -0.4576 -0.3351
 7042TIP3    H142541   3.529   3.261   1.420 -1.8621  0.3742  0.6485
 7042TIP3    H242542   3.452   3.190   1.529 -3.4029 -1.6803 -1.6803
 7043TIP3   OH242543   3.594   1.499   0.322  0.0470 -0.7522 -0.2010
 7043TIP3    H142544   3.639   1.471   0.402 -0.0681 -1.1151 -0.2623
 7043TIP3    H242545   3.624   1.589   0.308 -1.6344  0.1660  1.5369
 7044TIP3   OH242546   6.092   1.535   3.588 -0.3912 -0.2117  0.1633
 7044TIP3    H142547   6.096   1.603   3.655 -2.1302  1.3815 -1.2290
 7044TIP3    H242548   6.177   1.541   3.543  0.4644 -0.7467  1.6378
 7045TIP3   OH242549   0.508   0.228  14.180  0.3741 -0.3756 -0.0764
 7045TIP3    H142550   0.496   0.248  14.272  2.6430 -1.3734  0.5148
 7045TIP3    H242551   0.563   0.299  14.146 -1.9704  1.0175 -1.2168
 7046TIP3   OH242552   0.012   0.690   3.852 -0.3707 -0.0878 -0.2718
 7046TIP3    H142553  -0.056   0.663   3.791  0.0815 -0.6829 -0.5231
 7046TIP3    H242554   0.094   0.667   3.808 -0.0128  0.3136  0.1698
 7047TIP3   OH242555   1.157   6.712   3.088  0.4101 -0.1281  0.3209
 7047TIP3    H142556   1.234   6.753   3.049  0.0460 -1.5169 -2.0426
 7047TIP3    H242557   1.187   6.626   3.116 -0.0686 -0.3010  0.3117
 7048TIP3   OH242558   4.639   2.821  10.830  0.3153  0.3634 -0.3961
 7048TIP3    H142559   4.608   2.899  10.782  0.2308  0.7695  0.3084
 7048TIP3    H242560   4.707   2.854  10.888  0.9656 -0.2637 -0.7824
 7049TIP3   OH242561   6.818   4.932   3.496 -0.0811  0.7037  0.1459
 7049TIP3    H142562   6.764   5.006   3.467 -1.0718 -0.6694 -1.7527
 7049TIP3    H242563   6.762   4.856   3.481  1.8461 -0.6432 -0.4588
 7050TIP3   OH242564   4.228   4.631  16.855  0.4230 -0.6121  0.1198
 7050TIP3    H142565   4.263   4.593  16.935 -1.0192  0.8714  1.5160
 7050TIP3    H242566   4.146   4.583  16.840  1.3360 -1.8277 -1.2977
 7051TIP3   OH242567   4.266   1.639  12.184  0.3838 -0.1323  0.1464
 7051TIP3    H142568   4.307   1.604  12.263  1.0558 -0.2896 -0.2576
 7051TIP3    H242569   4.336   1.689  12.142 -0.1443  0.4574 -0.0362
 7052TIP3   OH242570   5.717   0.100   1.189  0.2093  0.7323  0.5521
 7052TIP3    H142571   5.705   0.068   1.278  0.5603 -1.3449 -0.0783
 7052TIP3    H242572   5.632   0.135   1.163 -0.4909 -0.5672  1.0115
 7053TIP3   OH242573   3.181   3.118  13.008 -0.0259 -0.2811  0.3099
 7053TIP3    H142574   3.239   3.138  12.935  0.5642  4.1519  1.6955
 7053TIP3    H242575   3.233   3.139  13.086 -2.1647 -0.1154  1.7768
 7054TIP3   OH242576   6.229   0.420   4.046  0.0590  0.0359 -0.6015
 7054TIP3    H142577   6.158   0.475   4.011 -0.2517 -0.2523 -0.4333
 7054TIP3    H242578   6.221   0.428   4.141  0.7294  0.5984 -0.5856
 7055TIP3   OH242579   1.690   0.123   0.864 -0.0623 -0.1668 -0.3880
 7055TIP3    H142580   1.685   0.070   0.944 -2.5607  1.5053  0.6914
 7055TIP3    H242581   1.755   0.190   0.883  0.1354 -0.4146 -0.1850
 7056TIP3   OH242582   5.469   6.550  16.488 -0.0577  0.1206 -0.2639
 7056TIP3    H142583   5.403   6.481  16.488 -0.6902  0.6876  0.9862
 7056TIP3    H242584   5.421   6.629  16.514  1.1415  0.4841  0.9869
 7057TIP3   OH242585   4.290   6.133   2.949 -0.2970  0.0356 -0.4101
 7057TIP3    H142586   4.357   6.080   2.992 -0.6073  1.6906  2.4068
 7057TIP3    H242587   4.332   6.219   2.938  0.1886 -0.5301 -4.7889
 7058TIP3   OH242588   3.370   4.471  16.339 -0.1237 -0.4811 -0.5418
 7058TIP3    H142589   3.312   4.418  16.284  0.0613 -0.3170 -0.8942
 7058TIP3    H242590   3.451   4.479  16.289 -1.1226  2.5963 -1.8702
 7059TIP3   OH242591   6.580   6.440   4.369  0.0121 -0.3025 -0.3017
 7059TIP3    H142592   6.520   6.366   4.354  1.7706 -1.3719 -2.7202
 7059TIP3    H242593   6.649   6.403   4.424  0.0486  0.0383 -0.1172
 7060TIP3   OH242594   4.178   5.071  12.804  0.1049  0.0365 -0.3329
 7060TIP3    H142595   4.245   5.016  12.844  0.0388 -2.3043 -3.0939
 7060TIP3    H242596   4.098   5.051  12.853  0.8294  0.7506  1.2077
 7061TIP3   OH242597   5.668   3.374  14.498 -0.3786  0.0715 -0.5195
 7061TIP3    H142598   5.599   3.336  14.553 -0.0747  0.1691 -0.0569
 7061TIP3    H242599   5.622   3.435  14.441 -0.7571 -0.3371 -0.6603
 7062TIP3   OH242600   3.343   1.971   2.559 -0.2750  0.1489  0.3348
 7062TIP3    H142601   3.276   2.025   2.600 -0.7853  0.5310 -0.9297
 7062TIP3    H242602   3.318   1.881   2.581 -1.1926  0.2868 -0.0566
 7063TIP3   OH242603   4.009   0.952  16.847  0.0741  0.3048 -0.3910
 7063TIP3    H142604   4.086   0.982  16.896 -0.8577  0.1634  1.2335
 7063TIP3    H242605   4.044   0.922  16.763  1.9308 -0.6603  0.6646
 7064TIP3   OH242606   4.209   2.763   1.315 -0.0400 -0.3908  0.4745
 7064TIP3    H142607   4.180   2.753   1.224 -1.1168 -0.3192  0.7962
 7064TIP3    H242608   4.305   2.758   1.310  0.0545  1.4889 -0.9156
 7065TIP3   OH242609   2.276   5.524  12.612 -0.1372 -0.0113 -1.0714
 7065TIP3    H142610   2.313   5.558  12.531 -0.2445  0.4220 -0.9397
 7065TIP3    H242611   2.350   5.478  12.654  0.4026  1.2343 -0.5966
 7066TIP3   OH242612   5.120   5.470  14.943 -0.1005 -0.0388  0.0845
 7066TIP3    H142613   5.042   5.519  14.969  0.8146  0.4189  2.1527
 7066TIP3    H242614   5.086   5.394  14.896 -1.8906 -0.5455  2.0725
 7067TIP3   OH242615   4.426   1.524  11.032  0.2167 -0.0857 -0.2049
 7067TIP3    H142616   4.507   1.537  10.981 -0.7933 -3.1076 -2.9171
 7067TIP3    H242617   4.359   1.570  10.982 -0.0551  1.1071  1.2001
 7068TIP3   OH242618   5.457   2.531   5.321  0.3110  0.0653  0.1830
 7068TIP3    H142619   5.469   2.625   5.309 -0.2363  0.3164  1.4052
 7068TIP3    H242620   5.372   2.512   5.281  0.1303  0.2145  0.4942
 7069TIP3   OH242621   3.788   5.878   2.278  0.0546  0.2304  0.0667
 7069TIP3    H142622   3.831   5.825   2.211 -1.7258 -0.1376 -0.8402
 7069TIP3    H242623   3.805   5.832   2.360 -2.0624 -2.2588 -0.7687
 7070TIP3   OH242624   6.223   6.594  11.819 -0.4329 -0.1048  0.3320
 7070TIP3    H142625   6.316   6.574  11.807 -0.8322 -1.1109 -1.5984
 7070TIP3    H242626   6.208   6.584  11.913  1.5581  0.8814  0.8071
 7071TIP3   OH242627   3.665   4.375  10.714  0.6044 -0.0487  0.8100
 7071TIP3    H142628   3.708   4.439  10.657 -0.5038  1.1600  1.2748
 7071TIP3    H242629   3.656   4.297  10.659  1.4086  0.3942  0.0184
 7072TIP3   OH242630   5.587   0.745  13.639 -0.0015  0.5005 -0.3518
 7072TIP3    H142631   5.588   0.835  13.606  0.2104  1.1443  1.3057
 7072TIP3    H242632   5.667   0.738  13.692  1.6146 -1.6518 -2.8256
 7073TIP3   OH242633   2.953   0.324   4.671  0.2638 -0.8722 -0.1579
 7073TIP3    H142634   2.980   0.232   4.663  1.1280 -0.5958 -0.4900
 7073TIP3    H242635   2.858   0.320   4.683  0.4139 -1.8657  0.8494
 7074TIP3   OH242636   3.452   2.609  14.846  0.3309  0.2096 -0.2074
 7074TIP3    H142637   3.506   2.634  14.920 -1.4853 -1.0841  1.6832
 7074TIP3    H242638   3.429   2.691  14.803 -1.2242  1.4180  2.6730
 7075TIP3   OH242639   4.245   2.659   0.340  0.1266 -0.2852 -0.2172
 7075TIP3    H142640   4.152   2.637   0.346  0.3489 -1.0055  0.9049
 7075TIP3    H242641   4.287   2.602   0.404  1.2969  0.3234 -0.4186
 7076TIP3   OH242642   1.641   3.842   3.713 -0.1721 -0.7838  0.2672
 7076TIP3    H142643   1.694   3.914   3.746 -0.2487 -0.4415 -0.3449
 7076TIP3    H242644   1.603   3.803   3.792 -0.3845  0.0460  0.5920
 7077TIP3   OH242645   3.078   6.113  12.847 -0.0095  0.1845  0.1001
 7077TIP3    H142646   3.081   6.209  12.843 -1.8128  0.4101  2.0510
 7077TIP3    H242647   3.019   6.088  12.777 -1.3520  0.7392  0.9890
 7078TIP3   OH242648   0.977   3.191   3.751 -0.3052 -0.5129  0.6093
 7078TIP3    H142649   0.891   3.214   3.715 -0.0621  0.1002  0.4021
 7078TIP3    H242650   0.966   3.198   3.846  0.3172  2.7237  0.5544
 7079TIP3   OH242651   3.558   5.844   1.648 -0.2982  0.5404  0.4447
 7079TIP3    H142652   3.507   5.803   1.718 -0.1084  2.2167  1.6288
 7079TIP3    H242653   3.543   5.938   1.660  0.9830  0.9327 -0.8149
 7080TIP3   OH242654   6.211   1.252   3.775  0.0788 -0.0153 -0.4504
 7080TIP3    H142655   6.213   1.271   3.681  1.0431  0.2122 -0.3962
 7080TIP3    H242656   6.250   1.329   3.816 -4.1162  1.8588  0.5363
 7081TIP3   OH242657   0.667   0.430  11.531  0.0902 -0.0120  0.4362
 7081TIP3    H142658   0.601   0.493  11.501  0.7682 -0.3163 -1.9419
 7081TIP3    H242659   0.616   0.354  11.560 -0.6934 -0.4544 -1.8604
 7082TIP3   OH242660   3.329   3.737   1.086 -0.2513  0.8317 -0.0648
 7082TIP3    H142661   3.258   3.721   1.024  1.2562 -0.3862 -1.5807
 7082TIP3    H242662   3.397   3.780   1.034  1.0235 -0.1391  0.7370
 7083TIP3   OH242663   4.375   5.716   5.939  0.3067 -0.4271  0.2791
 7083TIP3    H142664   4.292   5.706   5.985  0.2141  1.4512  0.5806
 7083TIP3    H242665   4.441   5.695   6.004  0.1620  1.8305  1.2397
 7084TIP3   OH242666   4.511   5.117   0.621  0.4943  0.4240  0.0707
 7084TIP3    H142667   4.484   5.074   0.703  0.8056 -0.3706 -0.2338
 7084TIP3    H242668   4.434   5.108   0.564 -0.6843  3.1798  1.0524
 7085TIP3   OH242669   0.156   5.905   5.847 -0.3046 -0.3490  0.1015
 7085TIP3    H142670   0.154   5.984   5.794 -0.5853 -0.7487 -0.4998
 7085TIP3    H242671   0.066   5.872   5.846 -0.1766 -0.7201  0.2714
 7086TIP3   OH242672   6.332   3.791  10.979  0.4710  0.1292 -0.2399
 7086TIP3    H142673   6.364   3.742  10.903  0.6298 -0.7918  0.4105
 7086TIP3    H242674   6.379   3.875  10.974  1.0096 -0.1934 -0.7668
 7087TIP3   OH242675   0.159   0.308  14.353 -0.3044 -0.0319 -0.5004
 7087TIP3    H142676   0.185   0.390  14.311 -0.0543  0.1018 -0.0842
 7087TIP3    H242677   0.242   0.261  14.367 -0.4755 -0.5243 -1.0803
 7088TIP3   OH242678   2.722   0.620  16.823  0.3613 -0.1209  0.7330
 7088TIP3    H142679   2.652   0.574  16.775  0.8463  0.8849 -1.0299
 7088TIP3    H242680   2.702   0.604  16.915 -2.8384  0.9847  0.3662
 7089TIP3   OH242681   3.283   0.674   2.742  0.6276 -0.6617  0.5344
 7089TIP3    H142682   3.224   0.716   2.804  0.8230  0.0360  0.2596
 7089TIP3    H242683   3.243   0.690   2.656  0.1803 -1.9087  0.4850
 7090TIP3   OH242684   6.362   3.936  12.138 -0.5734  0.3869 -0.1973
 7090TIP3    H142685   6.285   3.887  12.107 -0.2428 -0.8695  0.9166
 7090TIP3    H242686   6.431   3.914  12.075 -0.6348  0.0632 -0.1506
 7091TIP3   OH242687   1.098   0.405  11.484 -0.0611 -0.0076 -0.3666
 7091TIP3    H142688   1.053   0.490  11.490 -0.4218 -0.1653 -0.7603
 7091TIP3    H242689   1.191   0.427  11.488 -0.1082  0.5354 -1.7809
 7092TIP3   OH242690   1.574   4.370   5.130 -0.6294  0.2956 -0.4004
 7092TIP3    H142691   1.658   4.402   5.098 -0.8158 -0.1126 -1.3371
 7092TIP3    H242692   1.525   4.450   5.152  0.5839  0.4957  1.7755
 7093TIP3   OH242693   1.441   2.769   1.269 -0.2357 -0.4856  0.6900
 7093TIP3    H142694   1.410   2.718   1.193  2.0006 -1.4685  0.3569
 7093TIP3    H242695   1.465   2.702   1.333 -1.1766  0.3214  1.9147
 7094TIP3   OH242696   0.124   0.700  13.677  0.5314  1.1347 -0.5131
 7094TIP3    H142697   0.163   0.768  13.624  1.6024  1.6136  0.8341
 7094TIP3    H242698   0.186   0.686  13.748 -1.1618  1.0359  1.0224
 7095TIP3   OH242699   3.909   0.909  12.004 -0.3008  0.4767  0.2893
 7095TIP3    H142700   3.956   0.864  12.074 -0.0524 -0.3614 -0.3892
 7095TIP3    H242701   3.932   0.860  11.925 -1.7588  0.4688 -0.1693
 7096TIP3   OH242702   1.639   4.736  16.840  0.2336  0.6883  0.2837
 7096TIP3    H142703   1.547   4.737  16.813  0.6958  1.8758 -1.4048
 7096TIP3    H242704   1.688   4.738  16.758  1.7552  2.1456  1.1662
 7097TIP3   OH242705   6.404   5.780   3.812  0.2483 -0.8593  0.1108
 7097TIP3    H142706   6.318   5.816   3.788  0.5190  0.2761  0.7468
 7097TIP3    H242707   6.385   5.703   3.864 -0.4378  0.3093  1.6510
 7098TIP3   OH242708   0.944   6.787   1.190 -0.2889 -0.1999  0.6190
 7098TIP3    H142709   0.965   6.696   1.170 -1.1913 -0.1457 -0.6990
 7098TIP3    H242710   0.976   6.836   1.114 -1.2598  0.3832  0.5746
 7099TIP3   OH242711   5.002   6.187   0.614  0.1655 -0.1020  0.4523
 7099TIP3    H142712   4.934   6.200   0.680 -0.6635  1.1363 -0.6100
 7099TIP3    H242713   4.984   6.099   0.579 -1.8901  0.7705 -0.8676
 7100TIP3   OH242714   2.473   3.802   0.115 -0.3465 -0.7336 -0.0622
 7100TIP3    H142715   2.423   3.872   0.156 -0.5237 -1.0269  0.2199
 7100TIP3    H242716   2.438   3.721   0.153  1.4154 -0.8846  1.3474
 7101TIP3   OH242717   4.454   3.603  14.254 -0.2509 -0.2813 -0.0037
 7101TIP3    H142718   4.513   3.528  14.249  0.6724  0.4785 -1.2528
 7101TIP3    H242719   4.395   3.593  14.179 -1.1304 -0.5537  0.7105
 7102TIP3   OH242720   1.024   0.983   4.285 -0.2590  0.1425 -0.0606
 7102TIP3    H142721   1.022   0.966   4.380 -0.0674  0.7347  0.0535
 7102TIP3    H242722   1.116   1.002   4.266 -0.2356 -0.3324 -0.4338
 7103TIP3   OH242723   5.621   1.077  13.205  0.2371  0.4040  1.1100
 7103TIP3    H142724   5.703   1.043  13.241  1.1447  1.2525 -0.0796
 7103TIP3    H242725   5.572   0.999  13.177  2.4760 -0.0478 -2.0244
 7104TIP3   OH242726   6.018   0.973   0.790  0.2158  0.0225  0.1897
 7104TIP3    H142727   6.108   0.976   0.821  0.5744  0.0599 -0.8262
 7104TIP3    H242728   5.987   1.063   0.797 -0.0425 -0.1486  1.3775
 7105TIP3   OH242729   6.176   3.722  11.568  0.1523  0.0961  0.7648
 7105TIP3    H142730   6.265   3.752  11.550 -0.2661  1.3971  0.7402
 7105TIP3    H242731   6.129   3.801  11.594 -1.1759 -0.4361  0.1043
 7106TIP3   OH242732   2.271   0.824   0.739 -0.4464  0.0409 -0.1825
 7106TIP3    H142733   2.214   0.890   0.700 -0.6338  0.7421  1.1995
 7106TIP3    H242734   2.289   0.857   0.828 -0.3484 -1.6510  0.4717
 7107TIP3   OH242735   3.525   1.255   3.473  0.3674  0.3235  0.0856
 7107TIP3    H142736   3.571   1.338   3.488  0.7292  0.3904 -1.2992
 7107TIP3    H242737   3.595   1.192   3.453  0.0016 -0.0401 -0.0591
 7108TIP3   OH242738   0.407   5.240   2.284  0.4053 -0.1436  0.2242
 7108TIP3    H142739   0.422   5.302   2.355  0.6699 -0.8520  0.8030
 7108TIP3    H242740   0.495   5.220   2.251  0.4351 -1.1329  0.8599
 7109TIP3   OH242741   5.942   6.625  13.170  0.2250 -0.0761  0.3393
 7109TIP3    H142742   5.915   6.578  13.249 -0.9489  0.6817  0.4151
 7109TIP3    H242743   5.877   6.599  13.105  0.5225  0.1894 -0.0621
 7110TIP3   OH242744   2.624   1.399   2.376  0.3739  0.2467  0.3605
 7110TIP3    H142745   2.586   1.427   2.460  0.3921 -0.0257  0.4572
 7110TIP3    H242746   2.697   1.459   2.362  0.2357  0.4345  0.4314
 7111TIP3   OH242747   1.868   3.684  14.267 -0.4954 -0.3763  0.0064
 7111TIP3    H142748   1.873   3.589  14.256 -1.3388 -0.4892  0.4906
 7111TIP3    H242749   1.837   3.696  14.357 -1.7090  0.3122 -0.4702
 7112TIP3   OH242750   1.866   4.734   0.743 -0.0558  0.3147 -0.1624
 7112TIP3    H142751   1.950   4.691   0.727 -0.6543 -1.2227  0.7286
 7112TIP3    H242752   1.881   4.825   0.716  1.3656 -0.3093 -1.6824
 7113TIP3   OH242753   1.491   3.632  13.189  0.4084 -0.6562 -0.2643
 7113TIP3    H142754   1.520   3.544  13.214 -1.3601 -0.7239  1.8353
 7113TIP3    H242755   1.442   3.663  13.264 -0.8347  1.3091 -1.7891
 7114TIP3   OH242756   4.766   0.730  11.468  0.0251  0.1294 -0.1481
 7114TIP3    H142757   4.712   0.740  11.546 -0.6324 -0.9375 -0.4420
 7114TIP3    H242758   4.838   0.674  11.496 -0.7900 -1.1638 -0.5411
 7115TIP3   OH242759   1.026   6.281  15.874 -0.0298 -0.0387 -0.1094
 7115TIP3    H142760   1.106   6.277  15.926  0.6084  0.3176 -1.0379
 7115TIP3    H242761   1.046   6.342  15.803 -0.1506 -2.0540 -1.9799
 7116TIP3   OH242762   1.936   5.471  10.801  0.0321  0.1004  0.5158
 7116TIP3    H142763   1.871   5.408  10.831  0.3500  0.3751  1.8168
 7116TIP3    H242764   1.950   5.448  10.709 -0.2271 -1.4088  0.8204
 7117TIP3   OH242765   0.417   6.176  13.802  0.6018  0.2732 -0.3947
 7117TIP3    H142766   0.398   6.249  13.861 -1.4851  1.3069 -2.1742
 7117TIP3    H242767   0.403   6.098  13.855  0.8451  1.1391  1.0096
 7118TIP3   OH242768   6.178   2.481  12.405  0.3832  0.7455  0.0617
 7118TIP3    H142769   6.121   2.541  12.453 -2.7329 -0.4572 -1.8248
 7118TIP3    H242770   6.208   2.419  12.470  0.0234  1.7723  1.2399
 7119TIP3   OH242771   2.210   4.811   6.084 -0.5644 -0.0122 -0.3053
 7119TIP3    H142772   2.283   4.761   6.122  0.3596  0.3490 -1.5205
 7119TIP3    H242773   2.139   4.802   6.148  1.5734  2.5472  2.7780
 7120TIP3   OH242774   5.054   5.533  11.272  0.0901  0.2338 -0.6773
 7120TIP3    H142775   5.006   5.593  11.214  0.0218 -0.8472 -1.7618
 7120TIP3    H242776   5.087   5.465  11.214  3.1513  1.0154 -0.0290
 7121TIP3   OH242777   1.787   0.984   5.638 -0.2690  0.4947  0.2853
 7121TIP3    H142778   1.851   0.974   5.567  0.0379  0.1575  0.6019
 7121TIP3    H242779   1.735   1.060   5.613 -1.5724 -0.8420 -1.3926
 7122TIP3   OH242780   1.463   3.633   1.852 -0.2468  0.4043  0.3686
 7122TIP3    H142781   1.395   3.600   1.911 -1.0662 -0.2225 -0.8851
 7122TIP3    H242782   1.460   3.574   1.777  1.1605  0.8457 -0.0623
 7123TIP3   OH242783   0.120   0.742   1.646 -0.0898 -0.2163 -0.2267
 7123TIP3    H142784   0.207   0.703   1.638 -0.2083 -0.3929 -0.7105
 7123TIP3    H242785   0.071   0.707   1.571 -0.7847 -0.6635  0.4123
 7124TIP3   OH242786   0.597   3.644  12.664  0.3795 -0.1445  0.2201
 7124TIP3    H142787   0.589   3.553  12.635  0.5353 -0.1025  0.0422
 7124TIP3    H242788   0.570   3.696  12.588 -3.5313 -0.0402  1.4476
 7125TIP3   OH242789   0.504   3.318  16.322  0.3502 -0.4595  0.2285
 7125TIP3    H142790   0.587   3.274  16.340 -0.6213 -2.8894 -0.8366
 7125TIP3    H242791   0.492   3.308  16.228  0.0922  2.2651 -0.0999
 7126TIP3   OH242792   2.524   3.913  12.055 -0.3737  0.1835 -0.3523
 7126TIP3    H142793   2.505   3.825  12.086  0.2532  1.1852  3.4612
 7126TIP3    H242794   2.616   3.910  12.028 -1.0560 -0.8316 -2.7997
 7127TIP3   OH242795   0.559   6.334   3.192  0.1399  0.0345 -0.2840
 7127TIP3    H142796   0.530   6.422   3.168 -2.3814 -0.8877 -0.9203
 7127TIP3    H242797   0.507   6.276   3.136  0.3807 -1.9312  1.4138
 7128TIP3   OH242798   4.498   0.130   2.200 -0.1804 -0.1158  0.1708
 7128TIP3    H142799   4.411   0.102   2.229 -0.8248  1.2307 -0.3184
 7128TIP3    H242800   4.556   0.058   2.222 -1.1093 -0.3204  2.1357
 7129TIP3   OH242801   2.244   6.481   4.231 -0.0088  0.0282 -0.7854
 7129TIP3    H142802   2.254   6.414   4.299 -0.4651  0.4848 -0.2618
 7129TIP3    H242803   2.151   6.481   4.210  0.0599  0.1985 -1.1010
 7130TIP3   OH242804   3.643   3.524   4.201 -0.5225 -0.1420 -0.4604
 7130TIP3    H142805   3.576   3.518   4.270  1.3691  0.6671  1.5789
 7130TIP3    H242806   3.662   3.617   4.194  0.4429 -0.3673 -0.9560
 7131TIP3   OH242807   2.597   3.778   3.431  0.9210 -0.0447  0.2765
 7131TIP3    H142808   2.578   3.859   3.384 -0.0972 -0.5900 -0.2929
 7131TIP3    H242809   2.543   3.782   3.510  0.3590 -0.4600 -0.0821
 7132TIP3   OH242810   0.702   6.085  12.671  0.7377  0.4697  0.3482
 7132TIP3    H142811   0.720   6.173  12.637  0.2602 -0.4198 -2.4169
 7132TIP3    H242812   0.784   6.037  12.658  0.0366 -0.3597 -1.3264
 7133TIP3   OH242813   4.912   2.772   4.534  0.1750 -0.0620 -0.2822
 7133TIP3    H142814   4.946   2.851   4.577 -0.1786  0.1341 -0.3573
 7133TIP3    H242815   4.966   2.763   4.456  1.5160 -1.0060  0.6949
 7134TIP3   OH242816   5.135   5.577  12.672 -0.1889  0.3654  0.4659
 7134TIP3    H142817   5.066   5.522  12.633 -0.6790  0.1410  1.5995
 7134TIP3    H242818   5.197   5.514  12.709 -1.2525  0.4957  2.6439
 7135TIP3   OH242819   6.526   3.759  16.255  0.4462 -0.3098 -0.3809
 7135TIP3    H142820   6.477   3.765  16.173  1.7169  1.5021 -1.0779
 7135TIP3    H242821   6.459   3.753  16.323 -0.9500  3.3596 -1.1584
 7136TIP3   OH242822   5.400   0.289   4.486  0.1182 -0.0626  0.0538
 7136TIP3    H142823   5.392   0.280   4.581  0.1094 -1.7196 -0.0584
 7136TIP3    H242824   5.451   0.212   4.459 -2.0646 -1.0655 -1.5380
 7137TIP3   OH242825   4.263   3.191   6.046  0.1022 -0.4417 -0.3362
 7137TIP3    H142826   4.219   3.158   6.124 -0.5030  1.5914  0.2479
 7137TIP3    H242827   4.332   3.127   6.028  0.1511 -1.0487  1.7622
 7138TIP3   OH242828   1.452   2.858   6.030 -0.4381  0.2164 -0.0740
 7138TIP3    H142829   1.387   2.816   5.974 -0.7069 -0.8582  1.0026
 7138TIP3    H242830   1.509   2.786   6.057 -0.1192  0.7763  0.7591
 7139TIP3   OH242831   5.423   0.306  16.758  0.1908 -0.3983 -0.1046
 7139TIP3    H142832   5.434   0.367  16.831  1.3739  1.7529 -1.9921
 7139TIP3    H242833   5.341   0.333  16.717  0.6740 -0.1152 -0.8966
 7140TIP3   OH242834   3.450   1.697   3.853  0.6694  0.0862  0.5144
 7140TIP3    H142835   3.436   1.773   3.797 -3.0969 -1.3765 -0.9019
 7140TIP3    H242836   3.413   1.722   3.938 -0.2669  0.0362  0.1431
 7141TIP3   OH242837   5.239   3.581   2.769  0.7412 -0.2972  0.4977
 7141TIP3    H142838   5.262   3.532   2.690 -1.1976  2.0864 -1.6986
 7141TIP3    H242839   5.180   3.523   2.817 -0.2238 -0.8006 -1.2141
 7142TIP3   OH242840   1.051   1.447   4.213 -0.1773  0.3018  0.0611
 7142TIP3    H142841   1.056   1.388   4.287 -1.4564  0.4400  0.2793
 7142TIP3    H242842   1.098   1.402   4.143  0.6020 -0.0501  0.8003
 7143TIP3   OH242843   5.842   0.415   5.282  0.4897 -0.0656 -0.2619
 7143TIP3    H142844   5.836   0.502   5.242 -1.0532 -0.7616 -1.6849
 7143TIP3    H242845   5.833   0.431   5.376 -1.7103  1.2157 -0.6215
 7144TIP3   OH242846   2.857   3.671   6.092 -0.2541 -0.0607 -0.0399
 7144TIP3    H142847   2.794   3.612   6.134 -0.2166  0.1380  0.3015
 7144TIP3    H242848   2.807   3.751   6.075  0.4115  0.9076  2.1790
 7145TIP3   OH242849   4.641   3.514  11.544  0.0094  0.5203 -0.0050
 7145TIP3    H142850   4.650   3.584  11.479  1.0470  1.5913  1.2508
 7145TIP3    H242851   4.616   3.558  11.625  0.2989 -0.6007  0.7272
 7146TIP3   OH242852   3.056   5.649   3.722 -0.2526  0.0279 -0.0374
 7146TIP3    H142853   3.119   5.634   3.651  0.5923  0.0358  0.7005
 7146TIP3    H242854   3.104   5.701   3.786 -1.8982  2.5827 -0.7290
 7147TIP3   OH242855   5.406   4.200   4.334  0.3822 -0.2320 -0.6723
 7147TIP3    H142856   5.329   4.144   4.329  0.6236 -0.5734 -0.5480
 7147TIP3    H242857   5.443   4.198   4.246  1.5372 -1.8937 -0.1922
 7148TIP3   OH242858   1.472   5.760   2.255  0.0618  0.3105  0.4195
 7148TIP3    H142859   1.493   5.828   2.320  0.0179  0.9975 -0.2691
 7148TIP3    H242860   1.554   5.746   2.208  0.3371 -0.8532  1.2110
 7149TIP3   OH242861   2.089   5.699  11.477  0.0497  0.4994  0.5976
 7149TIP3    H142862   2.032   5.770  11.447  1.5984  1.3016 -0.6363
 7149TIP3    H242863   2.032   5.623  11.482 -1.6588  1.7677  1.8741
 7150TIP3   OH242864   0.525   0.854   4.540 -0.2046  0.4291  0.6368
 7150TIP3    H142865   0.431   0.869   4.551 -0.1402  0.9389  0.5199
 7150TIP3    H242866   0.537   0.762   4.564 -0.7540  0.3173  0.5069
 7151TIP3   OH242867   1.310   2.522  13.981 -0.3671  0.6603  0.5362
 7151TIP3    H142868   1.357   2.599  13.949 -1.0576  0.6030 -0.7069
 7151TIP3    H242869   1.355   2.497  14.061  1.6712  0.6537 -0.5672
 7152TIP3   OH242870   0.561   4.284  14.194  0.0640 -0.8821  0.0736
 7152TIP3    H142871   0.529   4.331  14.271 -2.7056  0.9381 -1.9736
 7152TIP3    H242872   0.612   4.211  14.229 -0.2285  0.4193  3.5586
 7153TIP3   OH242873   6.402   2.395  16.248  0.3169  0.1420  0.5571
 7153TIP3    H142874   6.345   2.426  16.178  1.2645  2.0660  0.5696
 7153TIP3    H242875   6.419   2.303  16.227  0.7674  0.7172 -1.8605
 7154TIP3   OH242876   4.914   6.027   4.990  0.2193  0.5052  0.3067
 7154TIP3    H142877   4.840   6.049   4.933 -0.5617 -0.2444  1.0017
 7154TIP3    H242878   4.904   5.934   5.009  0.0305  0.8666  2.2326
 7155TIP3   OH242879   5.009   0.297  17.005  0.4618 -0.1870  0.3855
 7155TIP3    H142880   5.033   0.290  17.097 -1.0696  2.1935  1.0582
 7155TIP3    H242881   4.928   0.246  16.997  0.7357 -0.6099  0.2831
 7156TIP3   OH242882   3.061   1.104   0.342  0.6331  0.0685 -0.6213
 7156TIP3    H142883   2.972   1.070   0.347  1.3138 -1.6624  0.6690
 7156TIP3    H242884   3.057   1.190   0.385 -0.1728 -0.5570  0.5882
 7157TIP3   OH242885   3.975   1.427  13.848 -0.4626  0.3972  0.1411
 7157TIP3    H142886   3.883   1.408  13.830 -1.0262  3.3091 -0.5562
 7157TIP3    H242887   4.021   1.405  13.767 -0.5362 -0.9148  0.4391
 7158TIP3   OH242888   2.357   5.486  11.409  0.4680 -0.4192  0.3839
 7158TIP3    H142889   2.320   5.460  11.325  0.7195  0.7993 -0.1394
 7158TIP3    H242890   2.347   5.582  11.410  2.0747 -0.2243  0.9384
 7159TIP3   OH242891   5.771   5.676   0.934  0.6046 -0.0665  0.1216
 7159TIP3    H142892   5.708   5.643   0.870  2.0601  0.3678 -1.6399
 7159TIP3    H242893   5.742   5.641   1.018  0.8850 -4.1603 -1.2855
 7160TIP3   OH242894   5.160   5.905  11.120  0.5532  0.0944  0.1608
 7160TIP3    H142895   5.225   5.954  11.070 -0.4950  0.0771 -1.3020
 7160TIP3    H242896   5.198   5.895  11.207  2.9540 -0.8242 -0.9193
 7161TIP3   OH242897   2.345   2.502  15.160 -0.6002 -0.5338  0.2686
 7161TIP3    H142898   2.302   2.529  15.240  1.4068  2.0162  0.6288
 7161TIP3    H242899   2.288   2.533  15.089 -0.3924  1.0115  0.7398
 7162TIP3   OH242900   0.292   3.924   0.031  0.0940  0.3109 -0.0017
 7162TIP3    H142901   0.323   3.906  -0.057  1.2897  0.2983  0.4036
 7162TIP3    H242902   0.351   3.992   0.064 -0.4296  0.4240  0.7339
 7163TIP3   OH242903   0.736   3.233  11.500  0.4353  0.1517 -0.0303
 7163TIP3    H142904   0.648   3.271  11.504  0.5170  0.7800 -2.5713
 7163TIP3    H242905   0.767   3.254  11.412  2.4360 -1.6140  0.1831
 7164TIP3   OH242906   5.437   2.238  13.111 -0.3208  0.4191  0.4617
 7164TIP3    H142907   5.445   2.323  13.153  0.1801  0.7456 -0.2610
 7164TIP3    H242908   5.404   2.180  13.179  0.7383  0.8621  1.3884
 7165TIP3   OH242909   3.393   5.475  14.398 -0.3457  0.2430 -0.0772
 7165TIP3    H142910   3.378   5.411  14.329 -1.2908 -0.7496  0.9935
 7165TIP3    H242911   3.487   5.469  14.418 -0.3431 -0.4647 -0.3100
 7166TIP3   OH242912   6.738   5.943   1.960  0.9392 -0.6988 -0.2501
 7166TIP3    H142913   6.646   5.940   1.988  0.8511  0.5845 -0.3225
 7166TIP3    H242914   6.771   5.855   1.976 -0.5742 -1.4632 -1.1499
 7167TIP3   OH242915   4.788   5.092  13.729  0.5491  0.2180  0.0121
 7167TIP3    H142916   4.849   5.148  13.681  1.1952 -1.6889 -1.5364
 7167TIP3    H242917   4.844   5.036  13.783  0.0949 -0.4164 -0.1595
 7168TIP3   OH242918   0.729   4.456  14.857 -0.0446  0.0642 -0.0753
 7168TIP3    H142919   0.806   4.422  14.902  0.1443  0.7195  0.1125
 7168TIP3    H242920   0.738   4.551  14.863  0.4744  0.2261 -2.2478
 7169TIP3   OH242921   2.878   1.046  16.827  0.0819 -0.5702 -0.8780
 7169TIP3    H142922   2.917   0.960  16.814  1.9998  0.1162 -0.0781
 7169TIP3    H242923   2.832   1.065  16.745  0.5853 -1.8765 -1.4790
 7170TIP3   OH242924   6.632   1.633  14.441  0.1881 -0.0841  0.3063
 7170TIP3    H142925   6.586   1.578  14.505 -0.9254 -1.6890 -1.7412
 7170TIP3    H242926   6.708   1.581  14.416 -0.7857 -0.7074 -1.5308
 7171TIP3   OH242927   5.628   3.790   2.179  0.0101 -0.2209 -0.2351
 7171TIP3    H142928   5.582   3.870   2.205  0.7894  0.6559 -1.4284
 7171TIP3    H242929   5.569   3.746   2.119  0.5296  0.7312 -1.4991
 7172TIP3   OH242930   4.982   4.022   2.097  0.2453  0.3341  0.3682
 7172TIP3    H142931   4.944   3.954   2.041 -0.8160 -0.7362  2.2905
 7172TIP3    H242932   5.061   3.982   2.133  0.3749  0.6552  0.4481
 7173TIP3   OH242933   0.979   6.674  16.393  0.3057 -0.2373  0.1129
 7173TIP3    H142934   1.071   6.662  16.370 -0.5052 -2.3837 -2.4226
 7173TIP3    H242935   0.945   6.734  16.327 -0.3289 -0.1690  0.4890
 7174TIP3   OH242936   5.087   5.991   2.438  0.2614 -0.0207 -0.1670
 7174TIP3    H142937   5.148   5.932   2.482  1.1423  0.2105 -1.0534
 7174TIP3    H242938   5.043   5.936   2.373  1.8439  0.4852 -1.7268
 7175TIP3   OH242939   3.006   1.519   0.741 -0.3709  0.5514  0.2378
 7175TIP3    H142940   3.066   1.570   0.687  0.8874 -0.0045  1.0603
 7175TIP3    H242941   3.023   1.548   0.830 -0.8300 -0.1096  0.5525
 7176TIP3   OH242942   1.056   4.369  13.877 -0.0195 -0.0123 -0.4668
 7176TIP3    H142943   1.111   4.386  13.953 -1.5741 -0.5670  0.8406
 7176TIP3    H242944   1.046   4.274  13.874 -2.4940  0.1416  0.5835
 7177TIP3   OH242945   6.497   4.097   0.693 -0.6214  0.2928 -0.9430
 7177TIP3    H142946   6.414   4.055   0.670 -0.7386 -0.0535  0.0612
 7177TIP3    H242947   6.563   4.029   0.680 -0.5015  0.5179 -1.5767
 7178TIP3   OH242948   1.616   1.709   4.407  0.4337  0.0029  0.1015
 7178TIP3    H142949   1.672   1.693   4.331 -0.7752 -2.9473 -0.2795
 7178TIP3    H242950   1.667   1.677   4.482  0.2656 -0.3373  0.0727
 7179TIP3   OH242951   0.256   2.820   6.086  0.1324 -0.3312  0.6615
 7179TIP3    H142952   0.232   2.858   6.171 -1.3158  0.3783 -0.0256
 7179TIP3    H242953   0.254   2.893   6.025 -0.2404 -1.0725 -0.2384
 7180TIP3   OH242954   4.084   0.820   6.327 -0.1155 -0.9217  0.3269
 7180TIP3    H142955   4.004   0.822   6.274  0.5932 -1.1759 -0.7856
 7180TIP3    H242956   4.091   0.728   6.355 -0.4491 -0.8028  0.8255
 7181TIP3   OH242957   4.016   1.871  13.155 -0.2093  0.1463  0.2996
 7181TIP3    H142958   4.050   1.928  13.225 -1.1776 -0.5546  1.3862
 7181TIP3    H242959   3.925   1.898  13.145 -0.3465 -0.4249 -0.0016
 7182TIP3   OH242960   2.308   1.545  14.010  0.0399  0.3188  0.2352
 7182TIP3    H142961   2.264   1.481  13.955 -1.8648  0.2842  1.7161
 7182TIP3    H242962   2.365   1.493  14.067  1.8460  0.3399 -1.4504
 7183TIP3   OH242963   0.363   1.142  15.307  0.1107  0.1939 -0.0810
 7183TIP3    H142964   0.405   1.212  15.258  2.2179 -0.6628  0.3833
 7183TIP3    H242965   0.314   1.187  15.376  2.7976  1.2918  1.2956
 7184TIP3   OH242966   5.471   2.774   1.051  0.3039  0.2000  0.0484
 7184TIP3    H142967   5.480   2.856   1.002  0.9494 -0.0269 -0.2295
 7184TIP3    H242968   5.490   2.797   1.141 -1.5738  0.7657  0.3572
 7185TIP3   OH242969   2.230   5.921  16.077  0.5836  0.2094  0.1006
 7185TIP3    H142970   2.267   5.992  16.130  1.2684 -0.4666  0.5559
 7185TIP3    H242971   2.135   5.928  16.091  0.5521  1.6533 -0.6755
 7186TIP3   OH242972   5.455   0.054  13.286 -0.1773 -0.1689  0.0447
 7186TIP3    H142973   5.535   0.033  13.239  0.1190  0.8862  0.0560
 7186TIP3    H242974   5.425  -0.030  13.321  0.7418 -0.6260 -0.2331
 7187TIP3   OH242975   3.049   0.769  10.504  0.3889  0.7197 -0.5214
 7187TIP3    H142976   3.134   0.810  10.516  0.4035  0.6881 -0.5194
 7187TIP3    H242977   3.063   0.700  10.439  0.0240  1.7926 -1.7804
 7188TIP3   OH242978   4.830   2.860   4.200  0.2417 -0.1179 -0.1302
 7188TIP3    H142979   4.893   2.932   4.197  3.0685 -2.3925  0.1421
 7188TIP3    H242980   4.881   2.783   4.174 -2.8524 -1.9211 -1.3969
 7189TIP3   OH242981   4.091   0.589   3.924  0.7264  0.0223  0.1204
 7189TIP3    H142982   4.184   0.600   3.943  0.5770 -0.0655  0.9636
 7189TIP3    H242983   4.058   0.536   3.997 -0.3905  1.7597  0.9584
 7190TIP3   OH242984   3.684   3.365   3.940 -0.3564  0.3270 -0.0448
 7190TIP3    H142985   3.689   3.411   4.023  0.7789  1.6232 -0.7720
 7190TIP3    H242986   3.597   3.326   3.938 -0.3825  0.2231  1.7508
 7191TIP3   OH242987   1.756   4.060   3.815  0.3175  0.1629 -0.2632
 7191TIP3    H142988   1.794   4.073   3.901  0.9336 -1.0898 -0.3268
 7191TIP3    H242989   1.801   4.123   3.759  0.1042  0.7937  0.2617
 7192TIP3   OH242990   6.056   1.230  11.248 -0.0474 -0.1019  0.3326
 7192TIP3    H142991   6.041   1.324  11.238  1.4218  0.1626  0.3267
 7192TIP3    H242992   6.020   1.191  11.169  0.9855  0.6804 -0.5542
 7193TIP3   OH242993   0.643   4.751  11.741 -0.0948  0.0954 -0.7718
 7193TIP3    H142994   0.631   4.656  11.736 -1.1781  0.1608  0.1244
 7193TIP3    H242995   0.665   4.777  11.652  3.3122 -1.3504 -0.4855
 7194TIP3   OH242996   4.855   3.407   1.637  0.0587 -0.2313  0.2644
 7194TIP3    H142997   4.768   3.417   1.600 -0.0146  0.1457  0.5343
 7194TIP3    H242998   4.840   3.366   1.722  0.0514  0.8210  0.7799
 7195TIP3   OH242999   1.255   5.399  16.010  0.3251 -0.8319 -0.0904
 7195TIP3    H143000   1.315   5.400  16.085  0.0933  0.3631  0.0890
 7195TIP3    H243001   1.308   5.364  15.938  1.7690  1.5844 -0.3220
 7196TIP3   OH243002   5.797   2.881  11.336  0.1049  0.6502 -0.0387
 7196TIP3    H143003   5.796   2.923  11.423 -2.3006  0.2522  0.2103
 7196TIP3    H243004   5.739   2.805  11.346  1.0184 -0.2981 -1.6114
 7197TIP3   OH243005   4.641   0.836   4.944  0.5140 -0.3472 -0.7417
 7197TIP3    H143006   4.599   0.756   4.914 -1.4796 -0.8768  2.9036
 7197TIP3    H243007   4.568   0.897   4.959  1.8113  1.4632 -1.4222
 7198TIP3   OH243008   2.772   4.982  14.622  0.5439 -0.7770  0.0580
 7198TIP3    H143009   2.745   4.891  14.610  1.0360 -0.7777 -1.3196
 7198TIP3    H243010   2.695   5.026  14.658 -0.3482 -1.3548 -1.0668
 7199TIP3   OH243011   2.654   2.553  16.469 -0.0027 -0.3027  0.2004
 7199TIP3    H143012   2.623   2.563  16.559 -0.3890 -0.7531  0.1234
 7199TIP3    H243013   2.603   2.616  16.418  1.3694  1.1215  0.5368
 7200TIP3   OH243014   5.957   0.857   1.502 -0.0986  0.4986  0.1848
 7200TIP3    H143015   5.897   0.856   1.428 -0.1028  1.3035  0.1632
 7200TIP3    H243016   6.007   0.776   1.494 -0.0242  0.6254 -0.7611
 7201TIP3   OH243017   2.430   4.529   5.883  0.4630 -0.2653 -0.0811
 7201TIP3    H143018   2.355   4.473   5.859  1.3566 -1.2869 -0.5832
 7201TIP3    H243019   2.452   4.501   5.972 -0.0244  0.3617  0.2465
 7202TIP3   OH243020   4.552   0.779   1.117  0.0681 -0.4247  0.4831
 7202TIP3    H143021   4.544   0.850   1.180  3.9479  0.5383  0.1623
 7202TIP3    H243022   4.537   0.821   1.032  1.0256 -0.2114  0.3982
 7203TIP3   OH243023   5.905   1.312  13.325  0.1855  0.8200 -0.1478
 7203TIP3    H143024   5.976   1.254  13.351 -1.5857 -1.2979  0.2052
 7203TIP3    H243025   5.927   1.337  13.235  1.2378  0.0078 -0.1358
 7204TIP3   OH243026   6.340   6.530  14.335 -0.1236 -0.3006 -0.0793
 7204TIP3    H143027   6.277   6.586  14.381  0.0520 -0.3444  0.2176
 7204TIP3    H243028   6.291   6.495  14.260  0.1699  1.3924 -1.1099
 7205TIP3   OH243029   1.283   0.076  16.630 -0.3552 -0.2725  0.4086
 7205TIP3    H143030   1.275   0.121  16.546 -0.3374  0.2814  0.7020
 7205TIP3    H243031   1.204   0.024  16.637  0.1088 -1.1237 -0.4204
 7206TIP3   OH243032   0.705   4.431   5.316 -0.0222 -0.1422  0.3031
 7206TIP3    H143033   0.639   4.379   5.362 -0.5767 -0.6744 -1.0479
 7206TIP3    H243034   0.765   4.366   5.280 -1.3073 -0.0139 -2.3010
 7207TIP3   OH243035   4.714   1.825   5.435 -0.3364 -0.2680 -1.0601
 7207TIP3    H143036   4.652   1.888   5.473 -0.0558  1.6822 -3.5461
 7207TIP3    H243037   4.668   1.742   5.438 -1.3715  0.2925  0.9010
 7208TIP3   OH243038   2.002   5.349   4.762 -0.3067  0.6567 -0.2688
 7208TIP3    H143039   1.963   5.357   4.849 -2.7125  2.0572 -1.3727
 7208TIP3    H243040   1.989   5.257   4.738  0.6024  0.1916  0.8674
 7209TIP3   OH243041   5.181   0.401  12.596  0.3861 -0.4242  0.2575
 7209TIP3    H143042   5.238   0.370  12.667  1.1738  0.7361  0.1570
 7209TIP3    H243043   5.167   0.324  12.541  2.0962 -0.6847  0.1348
 7210TIP3   OH243044   6.822   0.246  13.071  0.0519 -0.1134  0.5100
 7210TIP3    H143045   6.901   0.295  13.048 -0.3049 -0.3819 -1.5452
 7210TIP3    H243046   6.764   0.310  13.112 -0.1939  1.1351 -1.6355
 7211TIP3   OH243047   3.631   0.011  12.628  0.6647  0.5597 -0.0758
 7211TIP3    H143048   3.625   0.056  12.543  1.0575  0.0176 -0.3991
 7211TIP3    H243049   3.719  -0.026  12.629  0.2288 -0.5021  0.0273
 7212TIP3   OH243050   5.905   3.008   1.955  0.0370  0.4983 -0.1149
 7212TIP3    H143051   5.811   3.025   1.953 -0.6203 -1.7152  3.2473
 7212TIP3    H243052   5.935   3.052   2.035  1.0517 -1.7059  0.8067
 7213TIP3   OH243053   6.168   5.401  11.210 -0.1969 -0.0760 -0.2028
 7213TIP3    H143054   6.227   5.369  11.278 -3.2910 -1.3811  2.1239
 7213TIP3    H243055   6.165   5.331  11.146 -2.9496 -2.4996  2.2740
 7214TIP3   OH243056   2.531   5.334  15.616  0.5493  0.6439  0.1211
 7214TIP3    H143057   2.590   5.397  15.575  1.4834  0.5492  1.2593
 7214TIP3    H243058   2.589   5.265  15.649 -0.1469  0.6672  1.4892
 7215TIP3   OH243059   4.647   1.413   0.010  0.0277 -0.2817  0.4165
 7215TIP3    H143060   4.609   1.360  -0.060 -1.0158  0.1682  0.6349
 7215TIP3    H243061   4.732   1.441  -0.024 -1.2958  1.6416 -1.5291
 7216TIP3   OH243062   6.063   2.612  15.638  0.0056  0.3801 -0.3685
 7216TIP3    H143063   6.051   2.658  15.555  0.3028  0.6844 -0.2424
 7216TIP3    H243064   5.982   2.629  15.686  0.0913  0.7205 -0.3446
 7217TIP3   OH243065   1.715   0.556  10.768  0.0055 -0.3128 -0.7156
 7217TIP3    H143066   1.662   0.626  10.731  0.9652  0.8011 -0.0618
 7217TIP3    H243067   1.729   0.495  10.695 -2.4878 -0.8851 -0.7837
 7218TIP3   OH243068   4.678   2.014  11.447 -0.2968 -0.3964  0.4528
 7218TIP3    H143069   4.740   2.010  11.374 -0.7076  1.7175 -0.0644
 7218TIP3    H243070   4.609   1.952  11.423  0.0792 -0.4843 -0.4518
 7219TIP3   OH243071   1.174   0.026   2.620  0.1281  0.4660 -0.1254
 7219TIP3    H143072   1.151   0.093   2.683  0.3088  0.4907 -0.0864
 7219TIP3    H243073   1.198   0.074   2.541  1.7875  0.5233  0.3779
 7220TIP3   OH243074   5.601   4.603  17.027  0.3361 -0.2000 -0.7595
 7220TIP3    H143075   5.546   4.555  16.965  0.0883  0.5449 -1.1234
 7220TIP3    H243076   5.546   4.676  17.057  1.1181  0.5653 -1.1383
 7221TIP3   OH243077   5.441   5.146  16.107  0.6590 -0.3314 -0.5672
 7221TIP3    H143078   5.479   5.060  16.086 -0.2893 -0.8428 -0.2801
 7221TIP3    H243079   5.516   5.204  16.117  1.2828 -0.3047 -4.0854
 7222TIP3   OH243080   3.984   1.389   0.194  0.0113  0.3582  0.4131
 7222TIP3    H143081   4.047   1.417   0.260  0.9330 -1.7717  0.5241
 7222TIP3    H243082   3.942   1.470   0.164 -0.2996  1.4346  3.4143
 7223TIP3   OH243083   4.401   5.684   4.500 -0.2025  0.4826  0.0418
 7223TIP3    H143084   4.385   5.716   4.412 -2.3916  0.8887  0.5149
 7223TIP3    H243085   4.348   5.604   4.506  1.3488 -0.5637  0.4398
 7224TIP3   OH243086   0.957   6.496  13.645  0.2838 -0.3558 -0.3631
 7224TIP3    H143087   0.885   6.435  13.628 -0.0072 -0.2723  0.5412
 7224TIP3    H243088   1.020   6.445  13.696  0.1806  0.0128  0.1337
 7225TIP3   OH243089   6.090   3.413   5.473  0.0810 -0.2885 -0.0015
 7225TIP3    H143090   6.059   3.451   5.555  0.2283  1.0105 -0.5353
 7225TIP3    H243091   6.015   3.415   5.415  0.7397  1.6226 -0.8611
 7226TIP3   OH243092   0.918   3.932  11.611  0.5628 -0.2722  0.1392
 7226TIP3    H143093   0.931   3.909  11.519  1.1137 -0.4920  0.2689
 7226TIP3    H243094   0.851   4.001  11.609 -0.7328 -1.4832 -0.3000
 7227TIP3   OH243095   4.078   3.435  13.589  0.5696  0.3257  0.1058
 7227TIP3    H143096   4.063   3.517  13.636 -0.8659  0.9088 -1.2723
 7227TIP3    H243097   3.994   3.415  13.549  1.2255 -1.1922 -0.5884
 7228TIP3   OH243098   0.281   3.676  12.293  0.4946  0.3247  0.5778
 7228TIP3    H143099   0.213   3.742  12.282  0.8912  0.7708  0.7980
 7228TIP3    H243100   0.250   3.602  12.240 -1.7146 -0.7251  3.0543
 7229TIP3   OH243101   1.824   1.233   5.096 -0.3875  0.4627  0.1148
 7229TIP3    H143102   1.747   1.255   5.043 -0.4609  1.7566  0.7102
 7229TIP3    H243103   1.892   1.213   5.032 -0.6560  1.3625 -0.4782
 7230TIP3   OH243104   2.022   5.276   2.338 -0.3117  0.5632  0.0042
 7230TIP3    H143105   1.957   5.270   2.268  0.7945 -0.5206 -0.9714
 7230TIP3    H243106   2.094   5.219   2.309 -0.5911 -1.4597  2.8694
 7231TIP3   OH243107   6.631   4.045   6.385  0.1789 -0.0675 -0.0975
 7231TIP3    H143108   6.661   4.048   6.295  0.2540  2.3824 -0.0485
 7231TIP3    H243109   6.709   4.066   6.437  0.1197 -1.3755  0.5599
 7232TIP3   OH243110   4.837   1.929  11.967 -0.3471  0.2074  0.3694
 7232TIP3    H143111   4.810   1.862  12.029  1.4307 -0.4145  0.5372
 7232TIP3    H243112   4.756   1.973  11.942 -1.3909 -1.1203  1.2715
 7233TIP3   OH243113   4.464   2.590   3.067 -0.2534  0.0724  0.0319
 7233TIP3    H143114   4.453   2.594   2.972  0.4282 -0.0836 -0.0560
 7233TIP3    H243115   4.466   2.682   3.095 -3.2372  0.1715  0.2541
 7234TIP3   OH243116   4.987   5.324  11.744  0.0223 -0.7019  0.5465
 7234TIP3    H143117   5.002   5.234  11.773  2.4028 -0.9650 -1.2252
 7234TIP3    H243118   4.940   5.315  11.662 -0.1248 -0.2971  0.5838
 7235TIP3   OH243119   4.093   0.099  14.587  0.5884  0.0502  0.4878
 7235TIP3    H143120   4.042   0.102  14.507 -3.1139 -0.7265  2.6010
 7235TIP3    H243121   4.121   0.190  14.601  1.3170  0.1961 -1.5971
 7236TIP3   OH243122   6.386   5.609  17.039  0.1854  0.2705  0.3035
 7236TIP3    H143123   6.439   5.532  17.018  1.0700  0.9272  0.0634
 7236TIP3    H243124   6.323   5.578  17.104  1.1207 -0.4381  0.8972
 7237TIP3   OH243125   5.065   6.409   4.216  0.5645 -0.5784 -0.1063
 7237TIP3    H143126   5.076   6.371   4.129  0.4520  0.5734 -0.6486
 7237TIP3    H243127   5.055   6.503   4.199 -3.7679 -0.6804  0.7633
 7238TIP3   OH243128   2.487   1.908  16.855  0.1720 -0.2544  0.0306
 7238TIP3    H143129   2.455   1.894  16.944 -0.5804  2.3559  0.2373
 7238TIP3    H243130   2.542   1.986  16.860  3.8828 -2.5142 -1.0156
 7239TIP3   OH243131   6.757   5.074  15.465  0.4765 -0.0453 -0.3905
 7239TIP3    H143132   6.712   5.001  15.507  0.3532  0.2098 -0.0760
 7239TIP3    H243133   6.847   5.069  15.498  0.1660  0.6796  0.6081
 7240TIP3   OH243134   0.769   2.803   0.154 -0.2557 -0.3630  0.3872
 7240TIP3    H143135   0.674   2.819   0.158 -0.1371  0.6317 -0.2073
 7240TIP3    H243136   0.805   2.856   0.225  0.0429  1.2026 -0.8708
 7241TIP3   OH243137   1.015   0.141   2.387 -0.3993  0.0260  0.2910
 7241TIP3    H143138   1.001   0.231   2.414  0.0863  0.3245 -0.4199
 7241TIP3    H243139   1.008   0.142   2.292  0.7627 -0.4613  0.1794
 7242TIP3   OH243140   0.151   5.653   4.697  0.1340 -0.4968  0.0176
 7242TIP3    H143141   0.140   5.572   4.647  1.0625  0.4685 -1.8525
 7242TIP3    H243142   0.223   5.698   4.654 -0.5301  1.4573  0.8550
 7243TIP3   OH243143   3.167   5.383  12.222  0.1917  0.6765 -1.1952
 7243TIP3    H143144   3.199   5.298  12.253  0.6662  0.9148 -1.0362
 7243TIP3    H243145   3.088   5.361  12.172 -1.2042  0.3627  0.9844
 7244TIP3   OH243146   5.444   6.505  16.162  0.6232  0.3661 -0.2253
 7244TIP3    H143147   5.370   6.556  16.193 -0.1054 -0.1836 -1.0010
 7244TIP3    H243148   5.512   6.516  16.229 -0.9375 -0.9790  1.6798
 7245TIP3   OH243149   1.812   5.513  16.685  0.1428  0.2077 -0.0018
 7245TIP3    H143150   1.892   5.551  16.723  2.0202 -2.8586 -0.5525
 7245TIP3    H243151   1.741   5.557  16.731  2.1024  2.7916  0.8364
 7246TIP3   OH243152   5.406   4.146   0.443  0.4035 -0.0048 -0.9550
 7246TIP3    H143153   5.391   4.057   0.473 -1.0407  0.7957  0.8936
 7246TIP3    H243154   5.358   4.152   0.361 -0.9116 -0.4640 -0.2412
 7247TIP3   OH243155   4.926   6.400  16.134 -0.5822 -0.0212  0.2774
 7247TIP3    H143156   4.842   6.445  16.126 -0.9954 -0.8942 -0.5414
 7247TIP3    H243157   4.928   6.369  16.225 -1.1445  0.0281  0.3120
 7248TIP3   OH243158   6.425   4.706   4.948  0.5926  0.3339  0.6034
 7248TIP3    H143159   6.478   4.674   5.021  0.5518 -0.3150  0.3593
 7248TIP3    H243160   6.436   4.640   4.880 -1.0663 -0.1798  0.7895
 7249TIP3   OH243161   2.412   1.334   1.436 -0.5897 -0.3510 -0.3016
 7249TIP3    H143162   2.366   1.281   1.371 -0.8006 -0.2109 -0.2647
 7249TIP3    H243163   2.358   1.411   1.447  0.1001  0.2423 -0.9262
 7250TIP3   OH243164   6.219   0.156  12.925 -0.5977 -0.1086 -0.5483
 7250TIP3    H143165   6.225   0.217  12.998  0.7822 -1.2894  0.3740
 7250TIP3    H243166   6.249   0.207  12.849  3.1399 -0.2239  0.6305
 7251TIP3   OH243167   6.389   1.663   5.686 -0.5417 -0.3675  0.4785
 7251TIP3    H143168   6.438   1.622   5.757 -1.6386 -0.8566  0.9843
 7251TIP3    H243169   6.319   1.711   5.729  0.5926  1.9637 -0.1146
 7252TIP3   OH243170   1.950   6.329   5.483 -0.6107  0.1197  0.1972
 7252TIP3    H143171   2.042   6.320   5.456 -0.9975 -1.3436 -0.7291
 7252TIP3    H243172   1.936   6.424   5.487  0.6148  0.3782 -0.7873
 7253TIP3   OH243173   5.763   3.866   2.783 -0.6983  0.4165  0.3831
 7253TIP3    H143174   5.749   3.851   2.877 -2.0408 -0.7870  0.0333
 7253TIP3    H243175   5.709   3.800   2.740 -0.6807  1.4024 -1.2559
 7254TIP3   OH243176   1.842   2.128   5.399 -0.1956  0.0771 -0.1545
 7254TIP3    H143177   1.897   2.094   5.329  1.8704 -0.3526  1.5743
 7254TIP3    H243178   1.795   2.052   5.432  0.9482 -0.2969  0.6953
 7255TIP3   OH243179   2.219   4.375   5.855  0.4435 -0.3007  0.2313
 7255TIP3    H143180   2.195   4.391   5.946  0.4219  1.3625 -0.0360
 7255TIP3    H243181   2.153   4.422   5.804  0.1707 -1.6080 -0.6710
 7256TIP3   OH243182   6.386   5.989  13.095 -0.6235 -0.4509 -0.1838
 7256TIP3    H143183   6.375   6.071  13.144 -3.0627 -0.5240 -0.4749
 7256TIP3    H243184   6.314   5.990  13.031  0.8365 -1.6309 -1.9557
 7257TIP3   OH243185   3.706   3.928  13.737 -0.1342 -0.2074  0.1073
 7257TIP3    H143186   3.719   3.929  13.831  0.4441 -0.9114  0.0450
 7257TIP3    H243187   3.761   3.856  13.706  0.0687  0.3383 -0.8246
 7258TIP3   OH243188   2.217   4.277  13.200 -0.2010  0.1801  0.3222
 7258TIP3    H143189   2.299   4.226  13.202  0.4662  1.2029 -0.1531
 7258TIP3    H243190   2.227   4.336  13.125 -1.3589  0.3590  0.2957
 7259TIP3   OH243191   4.437   4.794   5.778  0.5212  0.5607 -0.2258
 7259TIP3    H143192   4.464   4.703   5.771 -0.2786  0.3450 -0.6226
 7259TIP3    H243193   4.519   4.843   5.779  1.0427 -0.2545  2.0696
 7260TIP3   OH243194   4.650   1.393   1.596  0.3611 -0.2255 -0.2697
 7260TIP3    H143195   4.572   1.342   1.575  0.7668 -0.8295 -0.3642
 7260TIP3    H243196   4.722   1.331   1.585  0.6827 -0.3844  2.1212
 7261TIP3   OH243197   1.527   3.408  15.287 -0.4105 -0.0902  0.3490
 7261TIP3    H143198   1.506   3.424  15.379  0.4895  0.6956  0.4264
 7261TIP3    H243199   1.453   3.445  15.239 -2.2291 -2.8338  0.7984
 7262TIP3   OH243200   0.665   6.142  16.640 -0.4844  0.0003 -0.3105
 7262TIP3    H143201   0.589   6.149  16.581 -0.0895 -1.6243 -1.0600
 7262TIP3    H243202   0.737   6.180  16.590 -0.4716  0.0963 -0.2201
 7263TIP3   OH243203   0.189   5.787  11.137  0.5599 -0.2486 -0.5658
 7263TIP3    H143204   0.141   5.817  11.214  0.6296  0.2324 -0.7093
 7263TIP3    H243205   0.202   5.693  11.152 -0.3890 -0.3799 -0.5093
 7264TIP3   OH243206   0.405   4.318   4.858  0.1446 -0.3209  0.0336
 7264TIP3    H143207   0.402   4.251   4.789  1.3618 -0.5072  0.1556
 7264TIP3    H243208   0.321   4.307   4.904 -0.6212 -0.3022 -1.3005
 7265TIP3   OH243209   2.553   4.815   4.956  0.1519  0.3726 -0.2147
 7265TIP3    H143210   2.578   4.907   4.960  1.8769  0.1751 -3.3187
 7265TIP3    H243211   2.627   4.768   4.994  1.1769  0.1745 -2.2876
 7266TIP3   OH243212   3.073   2.497  10.625 -0.1685  0.1649  0.2680
 7266TIP3    H143213   3.111   2.416  10.660 -0.6199 -0.5025 -0.7471
 7266TIP3    H243214   3.133   2.523  10.555  1.2725  2.0340  2.0740
 7267TIP3   OH243215   1.551   4.721  11.110 -0.3412  0.5508  0.0195
 7267TIP3    H143216   1.519   4.641  11.150 -0.8921  0.3701 -0.7591
 7267TIP3    H243217   1.505   4.727  11.026 -0.9735  2.1241  0.4306
 7268TIP3   OH243218   1.158   5.351   6.366  0.4445  0.4615  0.7498
 7268TIP3    H143219   1.141   5.298   6.444  1.0251  1.8005  1.8234
 7268TIP3    H243220   1.083   5.333   6.309 -0.5613  0.2966  2.0777
 7269TIP3   OH243221   1.982   0.646  13.946  0.7657 -0.2020  0.1616
 7269TIP3    H143222   1.995   0.579  14.013 -0.6288  1.0432  1.7390
 7269TIP3    H243223   2.011   0.727  13.986 -0.1532  0.5873 -0.7080
 7270TIP3   OH243224   0.997   2.142  16.877  0.9192 -0.5177 -0.3645
 7270TIP3    H143225   0.956   2.216  16.922  2.0075  0.6550 -1.2471
 7270TIP3    H243226   0.958   2.142  16.790 -0.2255 -1.9878  0.1098
 7271TIP3   OH243227   3.780   3.195  14.513 -0.0969  0.0553  0.5138
 7271TIP3    H143228   3.794   3.286  14.539 -1.2998  0.5773 -0.5549
 7271TIP3    H243229   3.702   3.198  14.458 -0.7119 -1.7750  1.2252
 7272TIP3   OH243230   1.961   4.775  13.413  0.1504  0.4615  0.4999
 7272TIP3    H143231   1.878   4.747  13.451  0.2691  1.2144  1.3393
 7272TIP3    H243232   1.984   4.855  13.461  0.9217  0.7492 -0.3180
 7273TIP3   OH243233   4.596   2.250   0.461 -0.0938 -0.2252  0.0115
 7273TIP3    H143234   4.685   2.260   0.496 -0.1294  0.0106  0.0376
 7273TIP3    H243235   4.583   2.327   0.406 -0.2435 -0.3138 -0.0787
 7274TIP3   OH243236   1.269   0.756  15.534  0.4621 -0.6013 -0.6141
 7274TIP3    H143237   1.242   0.695  15.602  0.7450 -2.0821 -1.7611
 7274TIP3    H243238   1.265   0.704  15.453 -1.5988  1.5414 -2.0286
 7275TIP3   OH243239   4.512   1.632   1.521 -0.8380 -0.0605 -0.3772
 7275TIP3    H143240   4.556   1.552   1.551  0.9328  0.0058 -2.4736
 7275TIP3    H243241   4.423   1.624   1.553 -0.0235 -1.5741  1.7529
 7276TIP3   OH243242   1.347   4.175  16.882  0.5181 -0.5331 -0.0205
 7276TIP3    H143243   1.341   4.234  16.806  0.1849 -0.5192  0.0132
 7276TIP3    H243244   1.307   4.224  16.954 -0.4626 -1.0765 -0.1697
 7277TIP3   OH243245   4.944   5.896   1.746 -0.3425 -0.2276 -0.4151
 7277TIP3    H143246   4.959   5.805   1.721 -0.0715 -0.2021 -0.3432
 7277TIP3    H243247   5.024   5.941   1.720 -0.9693  0.2349 -1.6634
 7278TIP3   OH243248   0.676   2.313  16.317  0.1132  0.4691 -0.2399
 7278TIP3    H143249   0.631   2.375  16.375 -0.7227  2.0933 -2.4487
 7278TIP3    H243250   0.607   2.253  16.288  0.7430 -1.0035  1.2000
 7279TIP3   OH243251   3.440   2.756  13.478  0.0811 -0.2767 -0.1222
 7279TIP3    H143252   3.347   2.775  13.491 -0.0571 -0.9988 -0.0130
 7279TIP3    H243253   3.451   2.754  13.383 -0.2078 -1.0806 -0.1432
 7280TIP3   OH243254   4.607   5.108   3.492  0.3506  0.1362 -0.3150
 7280TIP3    H143255   4.701   5.121   3.498  0.3473  1.4293 -2.1139
 7280TIP3    H243256   4.576   5.182   3.439 -1.7106 -0.1041  0.4606
 7281TIP3   OH243257   3.467   2.323  14.816  0.7686  0.1098 -0.0819
 7281TIP3    H143258   3.458   2.415  14.840 -0.1485 -0.3143  1.3231
 7281TIP3    H243259   3.386   2.303  14.769  0.3654 -0.3046  0.7748
 7282TIP3   OH243260   1.179   2.101   1.331  0.1630 -0.3293  0.0491
 7282TIP3    H143261   1.239   2.175   1.328  0.9284 -0.8385  1.6675
 7282TIP3    H243262   1.150   2.090   1.240  2.2124  0.1837 -0.7197
 7283TIP3   OH243263   6.595   2.900  16.121  0.3909  0.5239 -0.5618
 7283TIP3    H143264   6.607   2.994  16.125 -1.8374  0.8394  0.2222
 7283TIP3    H243265   6.560   2.877  16.207  1.2679 -1.0989 -0.5990
 7284TIP3   OH243266   5.669   3.263  16.702  0.0963 -0.1108  0.1056
 7284TIP3    H143267   5.655   3.335  16.763 -0.8892  0.0875 -0.3330
 7284TIP3    H243268   5.763   3.266  16.682 -0.0802  1.7181 -0.7098
 7285TIP3   OH243269   5.720   0.807  11.157 -0.0424 -0.0470  0.1962
 7285TIP3    H143270   5.747   0.865  11.228 -1.3456 -0.2583  0.8984
 7285TIP3    H243271   5.665   0.741  11.199  0.7585 -1.3305 -0.7175
 7286TIP3   OH243272   4.872   5.244   4.110  0.0076  0.0604 -0.0204
 7286TIP3    H143273   4.938   5.184   4.074 -0.3902 -1.4217  1.5534
 7286TIP3    H243274   4.899   5.257   4.201 -2.3460 -1.4145  0.9775
 7287TIP3   OH243275   4.574   4.447  13.216  0.2609  0.4825 -0.7339
 7287TIP3    H143276   4.664   4.446  13.249  0.2396 -1.0441 -0.6749
 7287TIP3    H243277   4.573   4.384  13.145 -0.4587  1.4819 -1.6445
 7288TIP3   OH243278   1.011   4.568   1.750 -0.3263 -1.1568  0.4302
 7288TIP3    H143279   0.947   4.623   1.795 -1.1397 -1.6691 -0.0706
 7288TIP3    H243280   1.080   4.553   1.815  0.5024  1.3680  0.2422
 7289TIP3   OH243281   5.718   5.680  13.813 -0.1360 -0.2292  0.3302
 7289TIP3    H143282   5.630   5.642  13.810 -0.5095  0.2937  2.6826
 7289TIP3    H243283   5.705   5.772  13.793  0.2361 -0.5602 -1.5809
 7290TIP3   OH243284   5.721   3.898  15.783  0.2577 -0.9431 -0.0101
 7290TIP3    H143285   5.679   3.983  15.794 -0.7768 -1.5030  0.4628
 7290TIP3    H243286   5.760   3.901  15.696 -0.4533 -0.2817 -0.3085
 7291TIP3   OH243287   2.171   0.842   1.154 -0.2809  0.1153 -0.1756
 7291TIP3    H143288   2.146   0.906   1.088  1.5411  2.2919  1.0773
 7291TIP3    H243289   2.262   0.820   1.133 -0.2777 -0.6063  0.5343
 7292TIP3   OH243290   1.799   3.590   5.569 -0.0331  0.7805 -0.8290
 7292TIP3    H143291   1.792   3.603   5.663  0.7383  1.9948 -0.9192
 7292TIP3    H243292   1.892   3.572   5.554 -0.1480  0.6003 -1.3686
 7293TIP3   OH243293   3.564   4.856  16.303  0.7991  0.0939 -0.1565
 7293TIP3    H143294   3.660   4.854  16.302  0.9001  2.1970 -0.0312
 7293TIP3    H243295   3.542   4.911  16.378 -0.4448  0.7208 -0.9508
 7294TIP3   OH243296   5.532   5.638  16.012 -0.0708  0.3504  0.0569
 7294TIP3    H143297   5.566   5.679  15.933 -0.4575  0.0298 -0.2781
 7294TIP3    H243298   5.576   5.553  16.016 -0.3880  0.1786 -0.0620
 7295TIP3   OH243299   0.751   4.499  15.342  0.2388  0.0812  0.3953
 7295TIP3    H143300   0.742   4.431  15.274 -0.6607 -0.2723  0.8435
 7295TIP3    H243301   0.760   4.450  15.424 -0.5045  0.4959  0.7333
 7296TIP3   OH243302   6.602   4.598  13.286 -0.7878  0.4043 -0.2268
 7296TIP3    H143303   6.585   4.555  13.370 -0.1398  1.5128  0.4995
 7296TIP3    H243304   6.621   4.526  13.226 -0.4231 -0.3683  0.7745
 7297TIP3   OH243305   5.718   5.875  13.238  0.0246 -0.1291 -0.9629
 7297TIP3    H143306   5.785   5.824  13.194 -0.7543 -1.1179 -1.0378
 7297TIP3    H243307   5.761   5.907  13.318  0.0791 -2.3228 -0.0335
 7298TIP3   OH243308   1.288   6.262  16.907 -0.6480 -0.3636  0.3328
 7298TIP3    H143309   1.354   6.244  16.841 -1.1895 -1.0859 -0.0305
 7298TIP3    H243310   1.205   6.255  16.860 -0.9740  1.5382  0.5427
 7299TIP3   OH243311   5.806   4.172  15.431 -0.6932 -0.2904  0.1212
 7299TIP3    H143312   5.878   4.215  15.477 -1.0374  0.0946  0.2947
 7299TIP3    H243313   5.807   4.082  15.465  0.6020 -0.7086 -0.8957
 7300TIP3   OH243314   6.776   0.409  10.580  0.0892 -0.4424  0.6375
 7300TIP3    H143315   6.838   0.400  10.507 -0.0559  0.4581  0.3876
 7300TIP3    H243316   6.700   0.452  10.541  0.8602  2.1227  1.7101
 7301TIP3   OH243317   4.638   3.450  15.844  0.0512  0.4092  0.0923
 7301TIP3    H143318   4.586   3.445  15.924  0.2881 -0.5292  0.1939
 7301TIP3    H243319   4.656   3.359  15.821  0.2128  0.6804 -0.8812
 7302TIP3   OH243320   1.375   0.680   5.666  0.5303  0.1862  0.3113
 7302TIP3    H143321   1.458   0.655   5.624 -0.3857 -1.8370 -0.4158
 7302TIP3    H243322   1.364   0.616   5.737 -0.8951 -0.2329 -0.2596
 7303TIP3   OH243323   1.908   1.200   0.652  0.2816  0.1114 -0.2713
 7303TIP3    H143324   1.916   1.285   0.609  0.3874  0.9067  1.2292
 7303TIP3    H243325   1.824   1.165   0.623 -0.9113  1.8494  0.9253
 7304TIP3   OH243326   0.047   5.392  10.727  0.4749 -0.0395 -0.3138
 7304TIP3    H143327   0.053   5.468  10.785  3.6972 -0.8442  0.5774
 7304TIP3    H243328   0.096   5.417  10.649 -1.9259  0.2000 -1.8491
 7305TIP3   OH243329   6.339   2.067  15.406 -0.6789  0.3838 -0.0956
 7305TIP3    H143330   6.397   2.036  15.475  0.8199 -1.9007 -2.2373
 7305TIP3    H243331   6.252   2.040  15.434 -0.3531  1.0064  1.6442
 7306TIP3   OH243332   5.783   5.208  15.122 -0.3491 -0.6146  0.8884
 7306TIP3    H143333   5.743   5.169  15.044 -2.4902  2.2405  0.3781
 7306TIP3    H243334   5.867   5.241  15.092 -0.8533 -0.1588 -0.0752
 7307TIP3   OH243335   1.664   4.421  11.601  0.4360  0.0812 -0.3645
 7307TIP3    H143336   1.641   4.434  11.693  2.9886 -1.0233  0.4899
 7307TIP3    H243337   1.669   4.510  11.565  1.4298  0.6478  1.0986
 7308TIP3   OH243338   1.217   2.489   0.852  0.0812 -0.4523  0.3655
 7308TIP3    H143339   1.233   2.472   0.759 -3.3723  0.6673 -0.5915
 7308TIP3    H243340   1.145   2.430   0.875 -0.8386  1.0589  1.5709
 7309TIP3   OH243341   5.146   6.712   2.961  0.0158 -0.1308  0.2233
 7309TIP3    H143342   5.067   6.765   2.951  0.6636  1.1830  1.5999
 7309TIP3    H243343   5.172   6.690   2.872  0.1488  2.5913 -0.4918
 7310TIP3   OH243344   5.581   0.941  10.784 -0.2965 -0.4777  0.1917
 7310TIP3    H143345   5.649   0.874  10.795  1.0548  1.0959  1.9814
 7310TIP3    H243346   5.628   1.024  10.780 -2.1105  0.8529  3.2242
 7311TIP3   OH243347   2.437   3.877   1.319 -0.2002  0.7608  0.2608
 7311TIP3    H143348   2.495   3.825   1.374 -0.0100 -0.0032 -0.6266
 7311TIP3    H243349   2.470   3.864   1.230 -1.1031  1.1527 -0.1495
 7312TIP3   OH243350   1.563   1.163   3.541 -0.1434 -0.0475  0.2349
 7312TIP3    H143351   1.468   1.176   3.537 -0.1565 -0.2176 -0.0029
 7312TIP3    H243352   1.594   1.187   3.454  0.0326  0.0018  0.3114
 7313TIP3   OH243353   6.355   3.388  12.841  0.0459 -0.1666 -0.3004
 7313TIP3    H143354   6.359   3.319  12.907 -2.3375  1.0263  1.2341
 7313TIP3    H243355   6.332   3.343  12.760 -0.7234 -1.2778  0.5058
 7314TIP3   OH243356   6.356   4.822  14.590  0.3615 -0.8220 -0.4449
 7314TIP3    H143357   6.319   4.808  14.677  0.9243 -0.0049 -0.0593
 7314TIP3    H243358   6.308   4.761  14.534 -0.9047 -0.4558  0.1933
 7315TIP3   OH243359   6.044   1.957  14.001 -0.1607  0.1666 -0.2819
 7315TIP3    H143360   6.009   1.922  13.919  1.1368 -2.3940  0.1518
 7315TIP3    H243361   6.059   2.050  13.983 -2.2155  0.2133 -2.1015
 7316TIP3   OH243362   4.961   0.269  13.459  0.5951 -0.0748  0.5045
 7316TIP3    H143363   5.002   0.198  13.410 -0.2468 -1.8372  2.2244
 7316TIP3    H243364   4.910   0.317  13.394  0.7593 -1.3683 -0.6217
 7317TIP3   OH243365   1.996   5.660  14.010 -0.5037 -0.3618  0.4546
 7317TIP3    H143366   2.020   5.577  14.051 -2.2129  0.2875  2.9986
 7317TIP3    H243367   1.902   5.667  14.022 -0.8982  0.5979 -2.4505
 7318TIP3   OH243368   5.158   2.882   0.975  0.1687  0.6356  0.0768
 7318TIP3    H143369   5.188   2.966   1.009 -0.4340  0.7814  0.2743
 7318TIP3    H243370   5.237   2.839   0.941  0.3241  1.7826 -1.1201
 7319TIP3   OH243371   1.626   4.047   2.627 -0.0938 -0.4492  0.0301
 7319TIP3    H143372   1.567   4.026   2.700  0.1493 -0.6402  0.1756
 7319TIP3    H243373   1.582   4.012   2.550 -1.2040  1.2972 -0.1774
 7320TIP3   OH243374   6.816   4.288   0.357  0.1057 -0.8737 -0.0855
 7320TIP3    H143375   6.884   4.343   0.393 -0.8193  1.3646 -1.5282
 7320TIP3    H243376   6.742   4.298   0.417 -0.1921 -0.1684 -0.5528
 7321TIP3   OH243377   6.638   3.190  14.527  0.7623 -0.1318 -0.0124
 7321TIP3    H143378   6.613   3.135  14.602 -0.6908  0.3830 -0.1004
 7321TIP3    H243379   6.714   3.145  14.490 -0.4253 -2.1710 -0.1413
 7322TIP3   OH243380   5.848   6.237   1.551  0.3164 -0.3282  1.1632
 7322TIP3    H143381   5.864   6.155   1.505 -0.5210  0.2165 -0.1514
 7322TIP3    H243382   5.935   6.265   1.580  0.7995 -0.9751  0.3786
 7323TIP3   OH243383   1.131   5.960   3.236 -0.1579  0.6926  0.2895
 7323TIP3    H143384   1.149   6.015   3.312  1.6732 -0.2363  0.6033
 7323TIP3    H243385   1.212   5.910   3.223 -1.2797 -0.9805 -0.7580
 7324TIP3   OH243386   6.391   5.729   0.377  0.0709 -0.2207  0.0525
 7324TIP3    H143387   6.475   5.698   0.342 -0.2215  0.7370 -1.5604
 7324TIP3    H243388   6.367   5.803   0.322 -1.8192 -0.4251  0.5312
 7325TIP3   OH243389   6.263   1.666  16.397 -0.3706 -0.1674 -0.3481
 7325TIP3    H143390   6.306   1.748  16.420  0.7206 -1.0995  1.0206
 7325TIP3    H243391   6.334   1.604  16.382 -1.1635 -0.7472 -1.9465
 7326TIP3   OH243392   6.736   0.144  12.208  0.4486  0.1060  0.2439
 7326TIP3    H143393   6.665   0.145  12.272 -0.6632 -2.9522 -0.7811
 7326TIP3    H243394   6.787   0.066  12.230  2.1080  0.9286 -0.5301
 7327TIP3   OH243395   5.780   1.727   3.450  0.0903 -0.1023  0.1425
 7327TIP3    H143396   5.847   1.725   3.519  0.8293  0.1727 -0.5453
 7327TIP3    H243397   5.750   1.637   3.443  2.0537 -0.7307 -1.0986
 7328TIP3   OH243398   1.525   3.311   2.189  0.3166  0.0979  0.4076
 7328TIP3    H143399   1.482   3.259   2.122  0.6608  2.4719 -1.7997
 7328TIP3    H243400   1.513   3.261   2.270 -0.6228 -2.5928 -1.2835
 7329TIP3   OH243401   4.750   5.945  11.664 -0.2759 -0.2945  0.0215
 7329TIP3    H143402   4.728   5.861  11.704 -0.5731 -0.9332 -1.4105
 7329TIP3    H243403   4.680   6.004  11.692 -0.2830 -0.6303  0.7179
 7330TIP3   OH243404   2.248   5.976  11.247 -0.2686  0.0142 -0.0531
 7330TIP3    H143405   2.155   5.970  11.225 -0.2470 -2.0564  0.1849
 7330TIP3    H243406   2.293   5.935  11.173  0.2947 -0.6951  0.6571
 7331TIP3   OH243407   2.937   2.887  14.645  0.2805 -0.3170 -0.3261
 7331TIP3    H143408   2.995   2.843  14.707 -0.9293  0.9183  1.7789
 7331TIP3    H243409   2.869   2.823  14.626 -0.4569 -0.0334  1.2652
 7332TIP3   OH243410   4.351   6.333  14.186 -0.1628  0.0504 -0.1566
 7332TIP3    H143411   4.437   6.301  14.159 -0.6097 -1.6325  0.2773
 7332TIP3    H243412   4.362   6.358  14.277 -0.7616 -2.9879  0.8428
 7333TIP3   OH243413   2.969   2.172   3.861  0.3910  0.1432  0.2174
 7333TIP3    H143414   2.927   2.129   3.786 -0.4507  1.1728  0.0691
 7333TIP3    H243415   3.059   2.185   3.833  0.1242  0.3788 -0.5745
 7334TIP3   OH243416   3.002   3.209   0.608 -0.0061 -0.3895 -0.5507
 7334TIP3    H143417   3.056   3.270   0.559  0.2920 -1.3956 -1.5180
 7334TIP3    H243418   2.972   3.146   0.543 -1.5766 -0.4075  0.1295
 7335TIP3   OH243419   2.723   4.822   6.218 -0.0697  0.2661 -0.0698
 7335TIP3    H143420   2.710   4.730   6.243  0.2215  0.2920  0.1858
 7335TIP3    H243421   2.818   4.834   6.220 -0.0992  0.5280 -0.2660
 7336TIP3   OH243422   3.871   2.979   0.356 -0.2383 -0.4530  0.0330
 7336TIP3    H143423   3.792   3.007   0.310  1.0142  0.9566 -1.4059
 7336TIP3    H243424   3.934   2.961   0.286  0.3842 -2.7725  1.0956
 7337TIP3   OH243425   2.091   1.192   2.496 -0.3392  0.2376 -0.0731
 7337TIP3    H143426   2.035   1.153   2.428  0.4533  1.0529 -1.2279
 7337TIP3    H243427   2.180   1.166   2.471  0.0502  1.4340  0.0531
 7338TIP3   OH243428   5.739   4.770  10.536  0.3587  0.2735  0.3983
 7338TIP3    H143429   5.664   4.722  10.501  0.4506 -0.3810  1.0723
 7338TIP3    H243430   5.786   4.706  10.588  0.4370  1.1143  1.4051
 7339TIP3   OH243431   4.856   2.446   4.167  0.7301 -0.6167  0.0961
 7339TIP3    H143432   4.769   2.485   4.157  1.3752  0.8335 -0.1225
 7339TIP3    H243433   4.843   2.353   4.146 -0.8805 -0.5703  0.6998
 7340TIP3   OH243434   2.014   1.015   5.491 -0.3833 -0.1903 -0.4718
 7340TIP3    H143435   2.072   1.088   5.469 -1.2236  0.8511  0.6333
 7340TIP3    H243436   2.070   0.952   5.536  0.0130  0.5637  0.1079
 7341TIP3   OH243437   4.302   0.439   4.185  0.3427  0.2479 -0.4367
 7341TIP3    H143438   4.270   0.489   4.260  0.8538 -1.5578  1.0650
 7341TIP3    H243439   4.288   0.496   4.110 -1.3166  1.6556  0.8684
 7342TIP3   OH243440   4.805   4.994   4.330 -0.7136 -0.8407 -0.3620
 7342TIP3    H143441   4.737   4.987   4.263 -0.9954 -4.4082  0.0942
 7342TIP3    H243442   4.864   4.920   4.312 -0.3044 -1.3996  2.7299
 7343TIP3   OH243443   3.333   6.076  11.673  0.1752 -0.7807 -0.2253
 7343TIP3    H143444   3.336   6.097  11.579 -1.5722 -0.3206 -0.2119
 7343TIP3    H243445   3.253   6.024  11.683 -0.5506  0.5418  1.2441
 7344TIP3   OH243446   5.202   2.511  13.534 -0.0286 -0.1940 -0.0448
 7344TIP3    H143447   5.133   2.469  13.484  1.0425 -2.2320  0.0912
 7344TIP3    H243448   5.167   2.517  13.623 -0.3472 -0.3994 -0.1555
 7345TIP3   OH243449   5.129   3.275  14.415  0.5831  0.3564 -0.1317
 7345TIP3    H143450   5.153   3.207  14.478  0.2632  0.4144  0.0564
 7345TIP3    H243451   5.119   3.354  14.467 -0.1330  0.3069 -0.1767
 7346TIP3   OH243452   6.316   1.955   4.591  0.5145  0.4510  0.6298
 7346TIP3    H143453   6.255   2.006   4.537  1.1267  2.5693  1.8359
 7346TIP3    H243454   6.402   1.973   4.552  0.7684  0.5639  1.2421
 7347TIP3   OH243455   3.503   1.035  15.700 -0.1059  0.0079 -0.4766
 7347TIP3    H143456   3.531   1.022  15.610  1.1690 -2.1838  0.1523
 7347TIP3    H243457   3.447   0.960  15.719  0.0439  0.1645  0.6854
 7348TIP3   OH243458   3.143   5.454  11.509  0.0815  0.5776 -0.0939
 7348TIP3    H143459   3.187   5.538  11.497 -0.3302  1.0846  1.7262
 7348TIP3    H243460   3.205   5.401  11.560  0.4517 -0.3504 -1.4541
 7349TIP3   OH243461   6.340   6.407   0.231 -0.1450 -0.3137  0.2048
 7349TIP3    H143462   6.267   6.424   0.172  1.5225  1.5739 -1.4379
 7349TIP3    H243463   6.336   6.478   0.296  0.1893 -0.2344  0.1413
 7350TIP3   OH243464   5.189   3.783   5.671 -0.1471 -0.6522 -0.2929
 7350TIP3    H143465   5.133   3.762   5.746  1.5510 -1.1102  0.9137
 7350TIP3    H243466   5.240   3.704   5.656  0.2500 -0.2252 -1.3050
 7351TIP3   OH243467   5.191   4.695  15.564 -0.1625  0.2890 -0.2247
 7351TIP3    H143468   5.254   4.708  15.493 -1.3539 -0.6568 -1.5293
 7351TIP3    H243469   5.241   4.654  15.634  1.0138  1.0837 -0.5809
 7352TIP3   OH243470   5.634   1.815   4.016 -0.0570  0.1237  0.4103
 7352TIP3    H143471   5.561   1.760   4.044 -0.1485  0.4645  0.8496
 7352TIP3    H243472   5.623   1.823   3.921  0.5209 -1.4281  0.1805
 7353TIP3   OH243473   0.246   0.011   4.511  0.6009 -0.6932  0.2502
 7353TIP3    H143474   0.340  -0.005   4.503  0.6286 -0.1810 -0.6906
 7353TIP3    H243475   0.227   0.074   4.441 -0.3281 -0.3119  0.8285
 7354TIP3   OH243476   0.516   3.676  12.410 -0.4272  0.7886  0.1241
 7354TIP3    H143477   0.426   3.677  12.377  0.2846  2.5954 -2.0271
 7354TIP3    H243478   0.555   3.598  12.371 -0.8567  0.3573  0.5362
 7355TIP3   OH243479   3.993   5.981  16.053 -0.3870 -0.0573  0.4765
 7355TIP3    H143480   4.077   6.023  16.071 -0.1960 -0.6376  0.9751
 7355TIP3    H243481   3.995   5.901  16.105 -2.0288  0.8382  2.0553
 7356TIP3   OH243482   2.104   3.581   4.879 -0.0748  0.3706  0.1757
 7356TIP3    H143483   2.123   3.488   4.890 -0.1905  0.3258  0.0008
 7356TIP3    H243484   2.181   3.616   4.834  0.3433  0.5296  1.0086
 7357TIP3   OH243485   0.440   5.976  14.207 -0.1670 -0.1426  0.4293
 7357TIP3    H143486   0.460   6.063  14.240 -0.8111  0.2290 -0.1248
 7357TIP3    H243487   0.515   5.923  14.232 -0.3938  0.2286  2.0062
 7358TIP3   OH243488   0.988   5.532   2.241 -0.1107 -0.5168 -0.6140
 7358TIP3    H143489   0.899   5.562   2.256  0.2213  0.6815 -0.8752
 7358TIP3    H243490   1.043   5.608   2.263  0.9830 -1.7557  1.2674
 7359TIP3   OH243491   3.778   4.851  14.878  0.3363  0.1997  0.1652
 7359TIP3    H143492   3.834   4.774  14.866 -1.8515 -1.4187 -0.1610
 7359TIP3    H243493   3.770   4.860  14.973  1.0364  0.4191  0.2171
 7360TIP3   OH243494   5.951   0.313  12.911  0.6629 -0.1878  0.3075
 7360TIP3    H143495   6.008   0.386  12.886 -1.4812  1.2355 -0.7243
 7360TIP3    H243496   5.926   0.332  13.002  0.4566  0.1322  0.1853
 7361TIP3   OH243497   4.251   4.249   4.627 -0.1047  0.3441 -0.2073
 7361TIP3    H143498   4.338   4.268   4.593  0.1289 -0.0957  0.1369
 7361TIP3    H243499   4.192   4.266   4.553  0.3308  0.0809 -0.6160
 7362TIP3   OH243500   2.301   3.422  10.845 -0.1142  0.1893  0.0891
 7362TIP3    H143501   2.242   3.353  10.814 -1.3597  0.1107  2.3876
 7362TIP3    H243502   2.383   3.377  10.863 -0.2481 -0.2713 -0.4308
 7363TIP3   OH243503   1.196   0.854   1.096  0.2836 -0.2934  0.3814
 7363TIP3    H143504   1.283   0.829   1.063  0.3114 -0.4470  0.5673
 7363TIP3    H243505   1.208   0.940   1.134  0.1072  0.1811 -0.6051
 7364TIP3   OH243506   4.181   1.610   5.962 -0.1226  0.5276 -0.3140
 7364TIP3    H143507   4.129   1.557   5.902  0.6572  0.7141 -1.1758
 7364TIP3    H243508   4.206   1.550   6.032 -1.1691  0.3427 -0.0835
 7365TIP3   OH243509   2.966   1.238   2.966  0.3685 -0.0404 -0.1207
 7365TIP3    H143510   3.010   1.295   3.029 -0.5195 -1.7587  2.1761
 7365TIP3    H243511   2.985   1.150   2.996 -0.8602 -0.9202 -1.7710
 7366TIP3   OH243512   0.913   5.021  11.636 -0.2838  0.1552 -0.1239
 7366TIP3    H143513   0.933   5.078  11.562 -0.3882  0.9507  0.4530
 7366TIP3    H243514   0.836   4.972  11.608  0.3967 -0.4600 -1.0216
 7367TIP3   OH243515   0.537   6.807  16.902  0.1418 -0.0895  0.4027
 7367TIP3    H143516   0.513   6.751  16.975  0.3527  1.6183  1.8427
 7367TIP3    H243517   0.625   6.777  16.877 -0.7727 -2.0876 -0.6224
 7368TIP3   OH243518   5.569   0.335   0.904 -0.1720 -0.6484 -0.5479
 7368TIP3    H143519   5.520   0.259   0.934  1.8215 -1.4564  0.8742
 7368TIP3    H243520   5.612   0.306   0.823 -0.3005 -0.6524 -0.6152
 7369TIP3   OH243521   0.608   4.447   1.330  0.0102  0.4749 -0.3375
 7369TIP3    H143522   0.656   4.412   1.255 -3.0523  0.7512 -2.6297
 7369TIP3    H243523   0.585   4.536   1.304 -1.9003  0.2626  0.4875
 7370TIP3   OH243524   3.511   4.096   0.553 -0.2549 -0.3739 -0.8735
 7370TIP3    H143525   3.423   4.129   0.532 -0.2247 -1.1434 -2.3365
 7370TIP3    H243526   3.495   4.013   0.598 -0.3077  1.0769  2.0491
 7371TIP3   OH243527   1.967   6.772   3.109  0.3257  0.1106  0.3352
 7371TIP3    H143528   2.035   6.732   3.163  0.0875 -2.1682 -0.9553
 7371TIP3    H243529   2.015   6.822   3.043  0.7212 -0.4358  0.2047
 7372TIP3   OH243530   3.433   0.044  11.823  0.2054 -0.2349  0.3250
 7372TIP3    H143531   3.465   0.105  11.757  1.3576 -0.3165  0.7806
 7372TIP3    H243532   3.483  -0.036  11.808 -1.7815 -1.3464 -0.7150
 7373TIP3   OH243533   1.783   3.682  14.838 -0.0176  0.4617 -0.2123
 7373TIP3    H143534   1.753   3.765  14.874  3.2867  1.8168 -0.2641
 7373TIP3    H243535   1.729   3.669  14.760 -0.8612  2.3677 -0.0032
 7374TIP3   OH243536   6.531   6.533  15.066 -0.3459  0.4125 -0.0283
 7374TIP3    H143537   6.484   6.473  15.009 -1.7023  0.5735  0.8911
 7374TIP3    H243538   6.541   6.613  15.014  1.2489 -0.4744 -1.1653
 7375TIP3   OH243539   5.898   0.566   5.594 -0.1078  0.1802 -0.6197
 7375TIP3    H143540   5.932   0.477   5.606  0.6583  0.5068 -0.3331
 7375TIP3    H243541   5.972   0.617   5.562 -0.0016  1.1416  1.0119
 7376TIP3   OH243542   1.215   5.806  11.786  0.3988 -0.0881 -0.4914
 7376TIP3    H143543   1.142   5.835  11.841  0.9461 -1.1835  0.8647
 7376TIP3    H243544   1.179   5.806  11.697 -1.4301 -1.0939  0.1914
 7377TIP3   OH243545   2.766   0.208  14.597  0.1579  0.1205 -0.1384
 7377TIP3    H143546   2.681   0.181  14.561 -0.4642 -1.6959  2.3890
 7377TIP3    H243547   2.764   0.303  14.595 -1.1255  0.1144 -1.8348
 7378TIP3   OH243548   6.058   4.190  17.031  0.0683 -0.0405  0.2351
 7378TIP3    H143549   6.096   4.106  17.057 -0.2658 -0.0599  0.6632
 7378TIP3    H243550   6.085   4.251  17.100  1.3940  0.5024 -0.7242
 7379TIP3   OH243551   3.155   4.262  16.291  0.1142 -0.2282 -0.1874
 7379TIP3    H143552   3.071   4.305  16.273  0.4907 -0.0545 -1.6730
 7379TIP3    H243553   3.143   4.172  16.259 -0.5933 -1.2544  2.6985
 7380TIP3   OH243554   1.982   4.500  12.679 -0.2752 -0.7118  0.4298
 7380TIP3    H143555   1.953   4.516  12.590 -0.4385 -0.3073  0.5541
 7380TIP3    H243556   2.026   4.415  12.675 -0.7412 -0.9414  0.0688
 7381TIP3   OH243557   3.093   2.260  15.810 -0.6276 -0.1649  0.3072
 7381TIP3    H143558   3.152   2.214  15.870  0.0193  1.0705  0.6708
 7381TIP3    H243559   3.088   2.349  15.847 -0.9094  0.3749 -0.9979
 7382TIP3   OH243560   3.607   3.265  13.708 -0.5606 -0.5801 -0.0821
 7382TIP3    H143561   3.595   3.272  13.802 -0.2529  1.0872 -0.1345
 7382TIP3    H243562   3.536   3.208  13.678 -1.6070  0.1446  0.9586
 7383TIP3   OH243563   3.591   3.721   5.184  0.0734 -0.3772 -0.0114
 7383TIP3    H143564   3.609   3.762   5.099 -0.4592 -0.8628 -0.3650
 7383TIP3    H243565   3.531   3.781   5.228 -0.9477 -0.8992 -0.6507
 7384TIP3   OH243566   1.010   3.331   4.645  0.1457 -0.2283 -0.4528
 7384TIP3    H143567   1.050   3.268   4.705 -0.2870 -2.1025 -2.0135
 7384TIP3    H243568   1.084   3.373   4.601  0.4789  1.4787  1.6044
 7385TIP3   OH243569   0.418   0.620   4.306 -0.0163 -0.3337  0.2774
 7385TIP3    H143570   0.501   0.584   4.274  0.2799  0.6230 -0.0439
 7385TIP3    H243571   0.380   0.666   4.231 -1.0326 -1.0762  0.3090
 7386TIP3   OH243572   2.673   4.017   1.571 -0.2722  0.1838  0.0309
 7386TIP3    H143573   2.594   3.968   1.594 -1.3295  1.9267  0.3542
 7386TIP3    H243574   2.644   4.109   1.570  2.0815  1.0542  1.6973
 7387TIP3   OH243575   1.363   3.301   0.095 -0.3666  0.8045 -0.0605
 7387TIP3    H143576   1.408   3.232   0.143  0.2287  0.2648 -1.3445
 7387TIP3    H243577   1.341   3.366   0.162  0.1605 -0.0451  0.9767
 7388TIP3   OH243578   4.729   5.406  11.050 -0.3599  0.5212  0.5561
 7388TIP3    H143579   4.731   5.443  10.961 -0.4236  0.0221  0.3454
 7388TIP3    H243580   4.659   5.340  11.047 -0.5807  0.7292  1.0678
 7389TIP3   OH243581   5.323   0.071  10.189  0.3368  0.1621  0.0120
 7389TIP3    H143582   5.351   0.144  10.246 -0.8299  1.1780 -0.6590
 7389TIP3    H243583   5.228   0.069  10.199  0.2420 -0.4795 -0.9360
 7390TIP3   OH243584   3.700   5.483  12.249 -0.6177  0.1516  0.3433
 7390TIP3    H143585   3.680   5.577  12.249  0.3894  0.3964 -1.1931
 7390TIP3    H243586   3.630   5.444  12.197 -0.7707  0.0961  0.5858
 7391TIP3   OH243587   2.031   1.174  16.458 -0.0530 -0.1501 -0.1265
 7391TIP3    H143588   2.116   1.219  16.457  0.2212 -0.6681 -0.4343
 7391TIP3    H243589   2.043   1.099  16.399 -0.1585 -1.2350  1.1808
 7392TIP3   OH243590   6.137   5.199  11.629  0.0247  0.3406  0.0004
 7392TIP3    H143591   6.219   5.178  11.674  0.9620 -0.2041 -1.8663
 7392TIP3    H243592   6.121   5.291  11.649  2.1972  1.0487 -1.1812
 7393TIP3   OH243593   4.333   0.720  15.257 -0.0432 -0.5590 -0.5280
 7393TIP3    H143594   4.353   0.642  15.206  1.0518 -0.4729 -0.2462
 7393TIP3    H243595   4.314   0.687  15.345 -1.8747 -0.7018 -0.9227
 7394TIP3   OH243596   6.486   3.918   0.931 -0.7162  0.1648 -0.2329
 7394TIP3    H143597   6.463   4.003   0.969 -1.1132  0.4398 -1.0577
 7394TIP3    H243598   6.420   3.905   0.862  0.8159  0.3560 -1.8037
 7395TIP3   OH243599   6.779   3.817   1.440 -0.2098 -0.2667  0.3163
 7395TIP3    H143600   6.810   3.905   1.460  0.6539 -0.5271  0.1828
 7395TIP3    H243601   6.775   3.815   1.344 -0.4817 -0.2884  0.3280
 7396TIP3   OH243602   1.618   1.569   6.377 -0.5920  0.3140 -0.2293
 7396TIP3    H143603   1.662   1.515   6.312 -0.4764  0.4330 -0.2511
 7396TIP3    H243604   1.537   1.596   6.335 -1.4551 -1.1922  0.3716
 7397TIP3   OH243605   3.380   5.223  16.597  0.5686 -0.5995  0.0194
 7397TIP3    H143606   3.340   5.306  16.570 -1.9006 -1.6426  0.2276
 7397TIP3    H243607   3.367   5.164  16.523  0.4888 -1.3779  0.6444
 7398TIP3   OH243608   1.824   1.005   4.076 -0.1501  0.4196  0.0235
 7398TIP3    H143609   1.864   1.024   4.161 -0.3905  1.9077 -0.1598
 7398TIP3    H243610   1.867   1.066   4.016  1.6686 -2.1378 -1.4466
 7399TIP3   OH243611   6.659   0.452  11.998  0.6456 -0.3650  0.3844
 7399TIP3    H143612   6.596   0.524  11.989  0.3928 -0.2395  2.6226
 7399TIP3    H243613   6.690   0.458  12.088  1.3300 -2.5138  0.3479
 7400TIP3   OH243614   3.154   2.692   2.437 -0.8936 -0.1244 -0.6222
 7400TIP3    H143615   3.128   2.643   2.359  0.3890  0.1602 -1.2615
 7400TIP3    H243616   3.243   2.723   2.418 -1.1499  1.3074  0.3095
 7401TIP3   OH243617   1.264   6.031   6.531  0.5274  0.1382 -0.1208
 7401TIP3    H143618   1.212   6.110   6.542  1.0874  0.4867  0.0233
 7401TIP3    H243619   1.291   6.006   6.620 -1.0365 -1.1758  0.0403
 7402TIP3   OH243620   1.838   0.450   3.940  0.1495 -0.7153 -0.6093
 7402TIP3    H143621   1.826   0.532   3.988 -1.8424 -0.6546 -1.0963
 7402TIP3    H243622   1.933   0.437   3.937  0.3977 -0.0713  2.1978
 7403TIP3   OH243623   0.133   0.454  15.834 -0.2420  0.5267  0.1171
 7403TIP3    H143624   0.119   0.384  15.897 -1.5618  1.2129  0.6362
 7403TIP3    H243625   0.147   0.410  15.750  1.4016 -0.3895  0.8528
 7404TIP3   OH243626   3.727   3.991  11.803 -0.4889 -0.6419 -0.1374
 7404TIP3    H143627   3.688   3.915  11.760 -1.1808 -0.5407  0.2785
 7404TIP3    H243628   3.765   4.042  11.732 -2.0510 -0.2132 -0.7249
 7405TIP3   OH243629   1.651   5.614  12.020  0.6313 -0.3249 -0.2281
 7405TIP3    H143630   1.621   5.693  12.066  0.2732  0.3297 -1.5185
 7405TIP3    H243631   1.624   5.542  12.076  1.9901  0.4655  1.5809
 7406TIP3   OH243632   2.580   0.284  11.511  0.0009 -0.2589 -0.5589
 7406TIP3    H143633   2.636   0.346  11.464 -1.3944  0.2009 -1.6714
 7406TIP3    H243634   2.491   0.303  11.481 -0.5196 -2.6558 -0.7841
 7407TIP3   OH243635   5.590   1.894   1.449  0.1580  0.0022 -0.5942
 7407TIP3    H143636   5.567   1.836   1.521  0.6087 -1.0587 -1.2681
 7407TIP3    H243637   5.545   1.976   1.467 -2.2935 -1.2461 -0.7151
 7408TIP3   OH243638   6.389   3.240  11.618 -0.2716  0.0172 -0.4334
 7408TIP3    H143639   6.467   3.295  11.612 -1.5942  1.8517 -1.6347
 7408TIP3    H243640   6.380   3.223  11.712 -1.0068  3.7818  0.3511
 7409TIP3   OH243641   4.258   2.509  16.643 -0.0231 -0.0044  0.1739
 7409TIP3    H143642   4.308   2.563  16.582  0.0240 -0.1461  0.0860
 7409TIP3    H243643   4.313   2.432  16.658 -1.2183 -1.3330 -1.7927
 7410TIP3   OH243644   6.575   4.976  14.657  0.1294 -0.4330 -0.3228
 7410TIP3    H143645   6.499   4.918  14.661 -0.2267  0.0016 -0.6459
 7410TIP3    H243646   6.538   5.064  14.667  0.3060 -0.0207 -2.7994
 7411TIP3   OH243647   3.102   3.567  11.730  0.3045 -0.0712  0.1105
 7411TIP3    H143648   3.092   3.476  11.758 -0.3320  0.3421  1.2800
 7411TIP3    H243649   3.068   3.618  11.802  0.9265  1.1217 -0.4125
 7412TIP3   OH243650   0.098   1.190  12.284  0.2612 -0.4858 -0.0907
 7412TIP3    H143651   0.191   1.208  12.266 -0.1972  0.0338 -2.2388
 7412TIP3    H243652   0.071   1.263  12.340  1.4210 -1.3493  1.6912
 7413TIP3   OH243653   1.623   5.003   0.114 -0.2544 -0.1445  0.4872
 7413TIP3    H143654   1.548   4.999   0.175 -0.6230 -0.0274  0.0467
 7413TIP3    H243655   1.699   4.985   0.169 -0.2365  2.7500  1.5851
 7414TIP3   OH243656   2.704   0.721   4.972  0.1255  0.3954 -0.1286
 7414TIP3    H143657   2.659   0.802   4.999  0.5157  0.0847  1.5541
 7414TIP3    H243658   2.765   0.703   5.043 -0.9379 -2.1573  0.2268
 7415TIP3   OH243659   2.473   6.052   1.617  0.3896 -0.1615  0.3446
 7415TIP3    H143660   2.535   5.979   1.609 -1.2493 -1.5485 -0.3926
 7415TIP3    H243661   2.406   6.019   1.676 -0.7133  0.4985 -0.5068
 7416TIP3   OH243662   5.881   3.011  16.912 -0.3038 -0.0276 -0.0724
 7416TIP3    H143663   5.951   3.068  16.943  0.5071 -0.2348 -1.4493
 7416TIP3    H243664   5.924   2.949  16.853 -1.8686  0.9416 -2.3881
 7417TIP3   OH243665   0.892   5.029   3.434 -0.0494 -0.1505 -0.1340
 7417TIP3    H143666   0.829   5.097   3.455 -1.3464 -1.2183 -0.4288
 7417TIP3    H243667   0.869   5.001   3.346  0.7658 -0.6306 -0.2027
 7418TIP3   OH243668   3.147   2.039  12.733  0.2741 -0.6692 -0.3290
 7418TIP3    H143669   3.072   1.982  12.751 -0.9193  0.9912  0.2435
 7418TIP3    H243670   3.154   2.095  12.810  0.5037  0.8708 -1.4153
 7419TIP3   OH243671   4.763   4.026  13.745  0.8003 -0.0351 -0.0224
 7419TIP3    H143672   4.731   3.946  13.702  0.9822  0.3726 -0.9435
 7419TIP3    H243673   4.705   4.037  13.821 -0.1165 -0.2851 -0.6637
 7420TIP3   OH243674   3.394   0.824   2.383  0.6006  0.5136  0.6684
 7420TIP3    H143675   3.391   0.890   2.313  0.7331 -1.0546 -0.8853
 7420TIP3    H243676   3.470   0.849   2.436  2.5219 -0.0651 -1.6642
 7421TIP3   OH243677   5.170   2.778   3.873  0.4695 -0.6430  0.5822
 7421TIP3    H143678   5.257   2.740   3.885  0.2671 -1.2894  0.0417
 7421TIP3    H243679   5.118   2.743   3.945  0.7845  0.1728  1.2249
 7422TIP3   OH243680   0.009   2.283  13.717 -0.0270 -0.0669 -0.1242
 7422TIP3    H143681  -0.002   2.205  13.662 -1.3160  1.2184 -1.8039
 7422TIP3    H243682  -0.079   2.322  13.721  0.0669  0.0362  2.7101
 7423TIP3   OH243683   1.390   2.323  13.463  0.1159  0.5561  0.2611
 7423TIP3    H143684   1.449   2.250  13.482  0.9098  1.2238  0.4297
 7423TIP3    H243685   1.354   2.348  13.548  1.4067  1.6458  0.5252
 7424TIP3   OH243686   4.169   5.650  13.690 -0.4814 -0.3241 -0.7155
 7424TIP3    H143687   4.129   5.577  13.738 -1.3493  0.0724 -0.8134
 7424TIP3    H243688   4.136   5.728  13.735  0.0806  0.0191 -0.8922
 7425TIP3   OH243689   5.949   0.876   0.165  0.0863 -0.4824  0.3499
 7425TIP3    H143690   6.015   0.897   0.099 -0.1522  1.3901  0.6652
 7425TIP3    H243691   5.899   0.804   0.126  1.1365 -0.6935 -0.6756
 7426TIP3   OH243692   0.418   4.602   4.312  0.1938 -0.1524  0.5528
 7426TIP3    H143693   0.354   4.638   4.373 -0.7845 -2.3813  0.9751
 7426TIP3    H243694   0.365   4.557   4.245  1.2352  1.9217 -1.8297
 7427TIP3   OH243695   1.890   2.251   4.136  0.1684 -0.2210 -0.2560
 7427TIP3    H143696   1.941   2.179   4.174  1.3120  2.0500  2.9103
 7427TIP3    H243697   1.947   2.286   4.068 -0.0999 -1.7590 -1.3373
 7428TIP3   OH243698   2.133   0.859   2.179  0.0055  0.3482 -0.0118
 7428TIP3    H143699   2.054   0.818   2.144  0.1160  0.3494 -0.2649
 7428TIP3    H243700   2.138   0.829   2.270  0.2970 -0.5018 -0.3028
 7429TIP3   OH243701   5.678   4.715  11.541 -0.2935 -0.3554  1.1752
 7429TIP3    H143702   5.584   4.713  11.558 -0.2985  0.2027  1.2247
 7429TIP3    H243703   5.716   4.755  11.619 -0.1646  0.7704  0.5632
 7430TIP3   OH243704   0.330   2.161  12.922  0.2593 -0.0692 -0.2760
 7430TIP3    H143705   0.343   2.227  12.854 -2.3487 -0.3881 -1.1906
 7430TIP3    H243706   0.399   2.179  12.986 -0.5391  3.8612 -0.2520
 7431TIP3   OH243707   4.549   4.967  13.195 -0.4405  0.5378  0.0446
 7431TIP3    H143708   4.471   5.016  13.170 -0.1964  0.4558 -0.9237
 7431TIP3    H243709   4.558   4.982  13.289 -2.2322 -0.3234  0.3963
 7432TIP3   OH243710   4.847   5.871  16.947 -0.3222  0.1805  0.0108
 7432TIP3    H143711   4.891   5.792  16.980 -0.6380  1.1566  3.0097
 7432TIP3    H243712   4.786   5.895  17.016  0.6179  3.7262 -0.2144
 7433TIP3   OH243713   1.843   1.550  10.638 -0.4879 -0.3400 -1.2353
 7433TIP3    H143714   1.895   1.628  10.656  0.2424 -1.1850  0.6463
 7433TIP3    H243715   1.758   1.568  10.677 -0.3058 -0.4666 -0.7632
 7434TIP3   OH243716   4.455   1.586  13.187  0.2307  0.5698 -0.3164
 7434TIP3    H143717   4.457   1.505  13.238  1.1954  1.5640  1.3335
 7434TIP3    H243718   4.545   1.620  13.193  0.3857  0.7476 -2.7225
 7435TIP3   OH243719   3.987   5.135   1.623 -0.2802 -0.6074  0.4275
 7435TIP3    H143720   3.926   5.206   1.607  2.2774  1.8876  0.9484
 7435TIP3    H243721   3.938   5.071   1.675 -1.9130  2.1779  2.5525
 7436TIP3   OH243722   5.055   0.767   3.125 -0.1159  0.1016  0.2436
 7436TIP3    H143723   5.040   0.860   3.109  0.8198  0.2914  0.3890
 7436TIP3    H243724   5.004   0.722   3.058  0.2144  0.7549 -0.4535
 7437TIP3   OH243725   2.894   5.344  12.166 -0.2648 -0.8132  0.1718
 7437TIP3    H143726   2.834   5.363  12.094  0.7456 -0.1544 -0.5274
 7437TIP3    H243727   2.841   5.295  12.229 -1.5376 -0.2139 -0.3932
 7438TIP3   OH243728   3.711   4.720  15.907  0.1971 -0.4110  0.0721
 7438TIP3    H143729   3.687   4.810  15.885 -0.7340 -0.1024  2.0520
 7438TIP3    H243730   3.800   4.725  15.941  0.1207 -0.2033  0.2435
 7439TIP3   OH243731   2.355   5.146  12.796 -0.3338 -0.4374 -0.0119
 7439TIP3    H143732   2.366   5.079  12.863 -2.2267 -0.3093  0.4789
 7439TIP3    H243733   2.342   5.097  12.715 -2.1606 -0.7274  0.4164
 7440TIP3   OH243734   5.465   0.915  15.453 -0.0381 -0.0706 -0.2360
 7440TIP3    H143735   5.555   0.902  15.424  0.6205  0.5764  1.3765
 7440TIP3    H243736   5.418   0.838  15.422  1.0251 -0.3302 -1.2640
 7441TIP3   OH243737   1.300   3.787   3.630 -0.3126  0.2256 -0.6303
 7441TIP3    H143738   1.384   3.831   3.645 -0.9013  1.2577 -0.2240
 7441TIP3    H243739   1.242   3.857   3.600 -0.9199 -0.5590 -1.3270
 7442TIP3   OH243740   5.402   4.488  14.639  0.6246 -0.7078 -0.7405
 7442TIP3    H143741   5.324   4.540  14.622  0.6013  0.4459  2.1665
 7442TIP3    H243742   5.472   4.534  14.593 -0.1606 -1.0149 -2.3048
 7443TIP3   OH243743   3.908   2.655   2.223 -0.1805  0.1583 -0.0985
 7443TIP3    H143744   3.867   2.736   2.251  0.6021  0.4538  0.2081
 7443TIP3    H243745   3.849   2.586   2.255  0.7438  0.4649  2.4577
 7444TIP3   OH243746   3.719   6.453  14.185  0.3821  0.0095 -0.3267
 7444TIP3    H143747   3.643   6.473  14.239 -0.0553 -1.6718 -0.2702
 7444TIP3    H243748   3.751   6.539  14.156 -1.4456  0.7684 -0.2522
 7445TIP3   OH243749   5.892   5.891  15.195  0.3755  0.0282 -0.4392
 7445TIP3    H143750   5.855   5.807  15.221  1.5644 -0.8447 -1.4546
 7445TIP3    H243751   5.885   5.892  15.100 -1.2886  1.9079 -0.3610
 7446TIP3   OH243752   5.260   3.663  14.174 -0.5956  0.1079  0.6700
 7446TIP3    H143753   5.224   3.575  14.165  0.4120 -0.2175 -0.4941
 7446TIP3    H243754   5.347   3.649  14.211 -0.4083  0.5959  0.4225
 7447TIP3   OH243755   3.824   2.983  12.961 -0.2796  0.2253 -0.1431
 7447TIP3    H143756   3.905   2.966  12.912 -0.3669 -0.7657  0.0485
 7447TIP3    H243757   3.755   2.949  12.905 -0.6711  1.8590 -0.7095
 7448TIP3   OH243758   5.734   0.186  16.541 -0.8666 -0.2597 -0.1993
 7448TIP3    H143759   5.801   0.172  16.474 -0.2767 -3.5514  0.8775
 7448TIP3    H243760   5.709   0.097  16.568 -1.2788  0.8554  3.6916
 7449TIP3   OH243761   6.341   0.083   5.375  0.2799 -0.1886 -0.2516
 7449TIP3    H143762   6.336  -0.003   5.416 -0.8311  0.2131  0.4957
 7449TIP3    H243763   6.421   0.079   5.322  0.3866 -1.5833 -0.0400
 7450TIP3   OH243764   4.716   5.463  13.837 -0.6375 -0.6142  0.2874
 7450TIP3    H143765   4.621   5.468  13.839 -0.6010  0.4436  0.0060
 7450TIP3    H243766   4.736   5.407  13.762 -1.0303  0.0309 -0.3133
 7451TIP3   OH243767   0.256   3.241   5.126 -0.7512 -0.4089  0.3716
 7451TIP3    H143768   0.169   3.201   5.123 -1.0989  0.2462  1.2284
 7451TIP3    H243769   0.312   3.174   5.165 -1.2196 -0.2765  1.3175
 7452TIP3   OH243770   0.405   0.642  14.486  0.1100  0.0955  0.0234
 7452TIP3    H143771   0.354   0.724  14.486  0.3789  0.2661  0.4023
 7452TIP3    H243772   0.382   0.600  14.569 -0.4437 -0.4822 -0.4148
 7453TIP3   OH243773   1.024   3.460   1.566 -0.8733 -1.0923  0.4558
 7453TIP3    H143774   1.038   3.387   1.506 -0.6573 -1.4515  0.9339
 7453TIP3    H243775   0.930   3.477   1.563 -0.9861 -1.6698  0.6640
 7454TIP3   OH243776   6.114   3.987   1.913  0.1074  0.0418 -0.4255
 7454TIP3    H143777   6.169   4.041   1.855  0.0598 -0.2841 -0.7803
 7454TIP3    H243778   6.152   3.999   2.000 -0.1796  1.0018 -0.4271
 7455TIP3   OH243779   0.666   1.777   6.436 -0.3107  0.3410 -0.0831
 7455TIP3    H143780   0.594   1.722   6.404  0.6016  0.5431 -2.7599
 7455TIP3    H243781   0.625   1.862   6.453 -1.0611 -0.1076  0.3820
 7456TIP3   OH243782   4.390   4.894   5.506  0.5169  0.3062 -0.7433
 7456TIP3    H143783   4.483   4.894   5.528  0.7297  1.4938 -1.5441
 7456TIP3    H243784   4.346   4.909   5.590  0.9338 -1.6992 -0.1132
 7457TIP3   OH243785   1.081   5.457   4.852 -0.2010 -0.0800 -0.4106
 7457TIP3    H143786   1.096   5.540   4.806 -1.3465  0.5523  0.3029
 7457TIP3    H243787   1.017   5.411   4.797 -0.6122  0.1290 -0.1195
 7458TIP3   OH243788   1.382   2.620   4.182 -0.0348 -0.5726  0.3779
 7458TIP3    H143789   1.371   2.533   4.219  2.3381 -1.1032 -0.0216
 7458TIP3    H243790   1.404   2.604   4.090  0.7564  0.4280  0.3787
 7459TIP3   OH243791   2.032   0.176  13.902 -0.4542  0.0666  0.0093
 7459TIP3    H143792   2.082   0.228  13.965 -0.3658 -0.4338  0.3531
 7459TIP3    H243793   2.077   0.190  13.819 -0.7748  1.0088 -0.0223
 7460TIP3   OH243794   2.096   0.566   1.200 -0.1575 -0.0132 -0.4936
 7460TIP3    H143795   2.169   0.513   1.232 -0.6079  1.0778  2.6493
 7460TIP3    H243796   2.134   0.653   1.186 -0.8059  0.6296  1.4121
 7461TIP3   OH243797   1.463   1.123   0.986 -0.5583  0.1607  0.2181
 7461TIP3    H143798   1.553   1.153   0.984 -0.9713  1.4421 -0.3705
 7461TIP3    H243799   1.468   1.030   0.963  0.5193  0.4754 -0.9486
 7462TIP3   OH243800   1.353   4.477   6.208 -0.1699  0.6104  0.3274
 7462TIP3    H143801   1.435   4.526   6.198  0.3931 -0.6882 -2.1556
 7462TIP3    H243802   1.285   4.538   6.179  0.2128  0.8022 -0.1798
 7463TIP3   OH243803   6.546   4.349   4.139 -0.2291  0.1815  0.2089
 7463TIP3    H143804   6.584   4.326   4.223  0.0010  0.4206  0.1716
 7463TIP3    H243805   6.621   4.358   4.080 -0.4332 -0.6635 -0.1882
 7464TIP3   OH243806   0.263   0.768   4.985 -0.6884 -0.4541  0.3154
 7464TIP3    H143807   0.236   0.697   5.042  0.9137 -0.9792  0.4776
 7464TIP3    H243808   0.283   0.726   4.901 -0.0524 -0.1703  0.3103
 7465TIP3   OH243809   3.169   6.501   0.476 -0.2664  0.6182 -0.3721
 7465TIP3    H143810   3.203   6.584   0.510  0.2182 -0.1508  1.0914
 7465TIP3    H243811   3.212   6.490   0.392 -0.1442  1.7246 -0.4660
 7466TIP3   OH243812   2.716   3.623  14.608  0.0059 -0.4977  1.5126
 7466TIP3    H143813   2.680   3.588  14.527 -0.5559 -0.2642  1.6584
 7466TIP3    H243814   2.641   3.630  14.667  0.3426 -0.2969  1.9246
 7467TIP3   OH243815   4.224   3.693   5.064 -0.1390  0.0891 -0.1016
 7467TIP3    H143816   4.176   3.613   5.083 -0.8473  0.1699 -1.4329
 7467TIP3    H243817   4.269   3.675   4.981  0.3213  0.7953 -0.0142
 7468TIP3   OH243818   0.993   6.331   2.141  0.5079  0.1525 -0.0871
 7468TIP3    H143819   0.932   6.265   2.110 -0.5196  0.0271  2.0225
 7468TIP3    H243820   0.992   6.399   2.074 -0.8651 -0.4991 -0.7624
 7469TIP3   OH243821   3.170   3.262  14.739  0.1441  0.0315 -0.2506
 7469TIP3    H143822   3.084   3.283  14.775 -0.0468  0.2227 -0.8039
 7469TIP3    H243823   3.223   3.339  14.758  0.7667 -0.8473  1.8224
 7470TIP3   OH243824   6.752   5.781   6.157  0.4287  0.0399  0.4261
 7470TIP3    H143825   6.802   5.863   6.158  0.6244 -0.0416 -0.8785
 7470TIP3    H243826   6.675   5.801   6.103  1.1147 -0.9756 -0.9672
 7471TIP3   OH243827   3.782   4.045   2.529  0.6962 -0.1111  0.5912
 7471TIP3    H143828   3.780   3.950   2.528 -0.4468 -0.0966  0.8935
 7471TIP3    H243829   3.757   4.070   2.618  0.6880  0.4795  0.4330
 7472TIP3   OH243830   4.607   4.993   4.110 -0.1980 -0.2673  0.3882
 7472TIP3    H143831   4.685   5.007   4.056  0.3724 -0.4087  1.1591
 7472TIP3    H243832   4.568   4.913   4.074  1.0108 -1.2133  1.1174
 7473TIP3   OH243833   2.861   2.464  15.947  0.1174  0.0683  0.0139
 7473TIP3    H143834   2.818   2.538  15.990  0.4291  0.0189  0.4181
 7473TIP3    H243835   2.863   2.395  16.013  1.4279  0.3028  0.2453
 7474TIP3   OH243836   1.209   5.118   1.995  0.4045 -0.2945 -0.1145
 7474TIP3    H143837   1.148   5.159   1.934  0.5463  0.7788  0.4311
 7474TIP3    H243838   1.296   5.142   1.963  0.5268 -1.1768 -0.4581
 7475TIP3   OH243839   2.480   1.868  15.632 -0.1802  0.1122 -0.3513
 7475TIP3    H143840   2.432   1.901  15.709  0.7046 -1.4402  0.9394
 7475TIP3    H243841   2.499   1.946  15.580  1.7821  1.6918  2.4823
 7476TIP3   OH243842   6.250   3.887  13.502  0.1779 -0.0473 -0.2932
 7476TIP3    H143843   6.201   3.910  13.423 -1.4057 -0.4205  0.5434
 7476TIP3    H243844   6.184   3.857  13.564  1.4474 -0.3223  0.9915
 7477TIP3   OH243845   1.069   4.928  11.146 -0.6411  0.5863  0.2646
 7477TIP3    H143846   1.092   4.889  11.061  0.2180 -1.4497  1.3723
 7477TIP3    H243847   1.120   5.009  11.150 -1.5367  1.2993 -1.5902
 7478TIP3   OH243848   6.324   5.360  11.417 -0.1522 -0.1994  0.5256
 7478TIP3    H143849   6.404   5.374  11.366  1.2611 -0.5657  2.5202
 7478TIP3    H243850   6.346   5.390  11.505 -0.8467 -3.8008  2.1360
 7479TIP3   OH243851   3.110   4.017   5.553 -0.3059 -0.3333  0.5696
 7479TIP3    H143852   3.138   4.100   5.513 -1.4293 -0.2135 -0.0096
 7479TIP3    H243853   3.024   4.036   5.591 -1.4657 -1.6922 -1.2293
 7480TIP3   OH243854   2.844   3.599  13.217  0.1966 -0.5234  0.0565
 7480TIP3    H143855   2.847   3.662  13.144  0.9985  1.3636  1.6476
 7480TIP3    H243856   2.886   3.520  13.182 -1.4861 -0.5265 -2.2397
 7481TIP3   OH243857   1.422   6.785  14.564 -0.7240 -0.0174 -0.1345
 7481TIP3    H143858   1.408   6.866  14.612 -0.8306  1.1642 -2.0361
 7481TIP3    H243859   1.516   6.785  14.545  0.0256 -2.2486  2.9640
 7482TIP3   OH243860   1.421   3.637  12.299  0.2083  0.0069 -0.0107
 7482TIP3    H143861   1.387   3.719  12.335 -3.6352 -1.2534 -0.3439
 7482TIP3    H243862   1.381   3.569  12.353 -2.0156 -1.7713 -3.5336
 7483TIP3   OH243863   6.180   4.775   2.860  0.2557  0.2082  0.1208
 7483TIP3    H143864   6.236   4.830   2.915 -1.9443  1.7486  0.9443
 7483TIP3    H243865   6.142   4.711   2.920 -2.2433  1.9671  0.5334
 7484TIP3   OH243866   2.358   3.012   4.484 -0.0089 -0.0625 -0.3155
 7484TIP3    H143867   2.271   3.050   4.469 -0.1430 -0.0552  0.4371
 7484TIP3    H243868   2.398   3.008   4.397 -1.3162 -1.4200 -0.8967
 7485TIP3   OH243869   3.353   0.315  14.205 -0.1443  0.1624 -0.6479
 7485TIP3    H143870   3.294   0.240  14.193 -1.8092  0.7100  2.7773
 7485TIP3    H243871   3.326   0.378  14.139 -0.0695 -1.4424 -2.2801
 7486TIP3   OH243872   0.124   6.100  13.988  0.0355 -0.1956 -0.1853
 7486TIP3    H143873   0.030   6.094  13.974  0.0339  1.0945 -0.8732
 7486TIP3    H243874   0.134   6.107  14.083 -0.5163 -0.7385 -0.0811
 7487TIP3   OH243875   2.351   2.776  15.339  0.4013 -0.0562  0.0522
 7487TIP3    H143876   2.392   2.813  15.417  1.1356  0.8716 -0.7368
 7487TIP3    H243877   2.329   2.853  15.285 -1.7293 -0.5638  0.1100
 7488TIP3   OH243878   3.235   6.314  12.140  0.2152 -0.3994  0.5752
 7488TIP3    H143879   3.209   6.223  12.156 -0.5445 -0.4783 -0.8971
 7488TIP3    H243880   3.269   6.345  12.224  0.6670 -2.0981  1.0539
 7489TIP3   OH243881   5.019   3.375   5.285 -0.2884 -0.8860  0.5885
 7489TIP3    H143882   5.041   3.371   5.191  0.3957  0.8965  0.6316
 7489TIP3    H243883   4.923   3.373   5.287 -0.3215 -0.4453 -0.1789
 7490TIP3   OH243884   4.012   1.928   3.658  0.4170 -0.2645 -0.1747
 7490TIP3    H143885   4.107   1.914   3.651  0.3956 -0.5672  0.1183
 7490TIP3    H243886   4.003   2.020   3.686  0.5748  0.2047 -1.5906
 7491TIP3   OH243887   3.716   2.605   0.690  0.1836 -0.2145 -0.3860
 7491TIP3    H143888   3.706   2.668   0.761 -0.1441 -0.8171  0.1092
 7491TIP3    H243889   3.784   2.642   0.634  0.6343  0.1403  0.3843
 7492TIP3   OH243890   1.596   0.473   0.952  0.1660  0.3932  0.0347
 7492TIP3    H143891   1.614   0.460   0.859 -0.5331  0.1779 -0.0821
 7492TIP3    H243892   1.670   0.433   0.997  1.1898  1.6937 -0.4384
 7493TIP3   OH243893   2.053   6.712  17.043  0.2486 -0.1752  0.8074
 7493TIP3    H143894   2.050   6.787  17.101  2.2676  0.9275 -0.4302
 7493TIP3    H243895   1.961   6.695  17.021 -0.5535 -0.4748  3.9948
 7494TIP3   OH243896   4.447   0.565   3.155  0.2457  0.0432  0.8411
 7494TIP3    H143897   4.387   0.640   3.156 -0.8775 -0.8306  2.8016
 7494TIP3    H243898   4.481   0.564   3.065 -0.0210  2.6189  0.6208
 7495TIP3   OH243899   4.725   0.137  12.396 -0.0297  0.3129 -0.3264
 7495TIP3    H143900   4.705   0.165  12.307 -1.0099  0.1244 -0.1819
 7495TIP3    H243901   4.777   0.208  12.433  1.5805 -0.1957 -1.4674
 7496TIP3   OH243902   0.109   0.321  11.576 -0.6125 -0.3167 -0.3427
 7496TIP3    H143903   0.162   0.385  11.528  1.3935 -2.2227 -0.7942
 7496TIP3    H243904   0.057   0.374  11.636  1.2979  1.7353 -0.3668
 7497TIP3   OH243905   4.769   4.072   2.281  0.0437 -0.6663  0.8205
 7497TIP3    H143906   4.841   4.077   2.218  0.0278  1.4084  0.8788
 7497TIP3    H243907   4.709   4.007   2.244  1.0074 -1.0008 -0.2288
 7498TIP3   OH243908   3.988   6.606  16.233  0.3057  0.2191  0.3124
 7498TIP3    H143909   3.909   6.576  16.188  0.8770  0.6123 -1.0099
 7498TIP3    H243910   3.997   6.698  16.206  0.2654  0.7067  1.8501
 7499TIP3   OH243911   6.069   6.150   0.373 -0.8165  0.4365 -0.0111
 7499TIP3    H143912   6.134   6.178   0.308 -1.6413 -0.1290 -1.1332
 7499TIP3    H243913   6.079   6.211   0.446  0.6113  0.6747 -0.3807
 7500TIP3   OH243914   3.279   2.340   1.713 -0.5432  0.1926  0.0807
 7500TIP3    H143915   3.225   2.311   1.640  0.4007 -0.4476 -0.3837
 7500TIP3    H243916   3.260   2.275   1.782  2.1372 -2.1715 -1.2051
 7501TIP3   OH243917   4.003   3.714   3.945 -0.1596  0.4470  0.6127
 7501TIP3    H143918   3.986   3.647   3.878  0.3131  0.5258  0.4119
 7501TIP3    H243919   4.027   3.792   3.896 -1.4739  1.0005  0.8220
 7502TIP3   OH243920   4.833   3.934  16.292  0.8151 -0.0122  0.0655
 7502TIP3    H143921   4.788   4.017  16.308 -0.6998 -0.8584  0.3941
 7502TIP3    H243922   4.830   3.889  16.376 -1.1435 -1.6616 -0.8165
 7503TIP3   OH243923   5.629   6.058  14.745 -0.3566  0.1796 -0.2343
 7503TIP3    H143924   5.618   6.050  14.651  1.5615 -0.8327 -0.4339
 7503TIP3    H243925   5.616   5.970  14.779  0.0140  0.3251  0.3057
 7504TIP3   OH243926   0.275   2.063  12.491 -0.0337 -0.0299  0.1626
 7504TIP3    H143927   0.363   2.089  12.519  0.7787 -3.3633  1.1855
 7504TIP3    H243928   0.218   2.094  12.561  0.9534 -1.3144  1.6161
 7505TIP3   OH243929   2.673   0.349   4.678 -0.6481  0.4056 -0.0113
 7505TIP3    H143930   2.645   0.438   4.699 -0.4069  0.4711  0.0399
 7505TIP3    H243931   2.638   0.333   4.590 -2.6801 -0.3014  0.8607
 7506TIP3   OH243932   0.299   4.760   4.492  0.3769  0.1539  0.5925
 7506TIP3    H143933   0.320   4.847   4.527  0.3637 -0.1896  1.4793
 7506TIP3    H243934   0.333   4.699   4.558 -1.6172 -0.4705  1.1158
 7507TIP3   OH243935   2.994   1.646  14.587  0.2786  0.2742  0.1365
 7507TIP3    H143936   3.001   1.560  14.629 -1.7428  0.5122  1.0785
 7507TIP3    H243937   2.952   1.702  14.652  0.9297  1.8101 -0.7083
 7508TIP3   OH243938   1.323   1.786   3.408 -0.0056  0.1313 -0.6101
 7508TIP3    H143939   1.354   1.696   3.404 -1.4449 -0.3502 -2.1908
 7508TIP3    H243940   1.295   1.798   3.499  2.2385 -0.2497  0.1778
 7509TIP3   OH243941   4.246   5.836   1.822 -0.3488  0.1185  0.1783
 7509TIP3    H143942   4.252   5.814   1.915  2.3954  1.2433  0.3773
 7509TIP3    H243943   4.172   5.896   1.817 -2.9706 -2.8089  0.8932
 7510TIP3   OH243944   1.128   5.856  11.520 -0.0399  0.7806 -0.4174
 7510TIP3    H143945   1.058   5.811  11.473  1.3593 -2.3542  0.2148
 7510TIP3    H243946   1.204   5.848  11.463  0.4439  1.7801  0.0567
 7511TIP3   OH243947   1.936   6.001   0.149 -0.5505  0.1207 -0.2710
 7511TIP3    H143948   1.887   5.924   0.120 -0.9818  0.2590  0.0836
 7511TIP3    H243949   1.872   6.054   0.196 -0.7805  1.6490 -2.1819
 7512TIP3   OH243950   6.279   5.730   4.805 -0.5154  0.1133 -0.4202
 7512TIP3    H143951   6.255   5.797   4.870 -1.0703 -0.7746  0.3184
 7512TIP3    H243952   6.294   5.651   4.857  2.5410  0.1978 -1.0044
 7513TIP3   OH243953   2.840   4.186  12.492  0.2886 -0.0891  0.4942
 7513TIP3    H143954   2.888   4.241  12.553  0.6496  1.8169 -1.3758
 7513TIP3    H243955   2.904   4.122  12.461  0.6660  0.2505  0.5726
 7514TIP3   OH243956   5.837   4.889  16.310 -0.1061 -0.0991  0.1074
 7514TIP3    H143957   5.748   4.862  16.287 -0.1296  0.3534 -0.3491
 7514TIP3    H243958   5.893   4.826  16.266 -0.1881  0.0354 -0.1983
 7515TIP3   OH243959   5.640   6.401  14.359  0.1148  0.1393  0.1072
 7515TIP3    H143960   5.576   6.456  14.314 -0.3855 -1.1750 -0.8455
 7515TIP3    H243961   5.712   6.392  14.297  0.6899  0.6124  0.6940
 7516TIP3   OH243962   1.201   1.297   0.022 -0.1168  0.0507 -0.2069
 7516TIP3    H143963   1.160   1.314  -0.063 -0.3514  1.9718  0.2430
 7516TIP3    H243964   1.130   1.307   0.085  0.8854  3.4732  0.5856
 7517TIP3   OH243965   3.473   6.717   5.143 -0.0015 -0.1990  0.0188
 7517TIP3    H143966   3.526   6.646   5.177 -2.0330 -2.5282 -1.3733
 7517TIP3    H243967   3.401   6.726   5.206  0.0661  0.4170  0.0185
 7518TIP3   OH243968   2.333   5.328  14.818  0.2517  0.0898 -0.1938
 7518TIP3    H143969   2.342   5.353  14.726  1.7301 -1.3145 -0.4923
 7518TIP3    H243970   2.363   5.404  14.867  0.2657  0.5520 -0.9069
 7519TIP3   OH243971   1.678   3.010  12.216  0.1225 -0.2426  0.1096
 7519TIP3    H143972   1.639   3.061  12.287 -0.5101  1.3310 -1.3164
 7519TIP3    H243973   1.604   2.974  12.168  0.3567  1.3513 -1.5934
 7520TIP3   OH243974   0.067   4.851   4.357  0.2597  0.5633  0.5297
 7520TIP3    H143975   0.158   4.842   4.386  0.2178 -0.7386  0.3299
 7520TIP3    H243976   0.015   4.817   4.429 -0.1705  2.3524  1.1211
 7521TIP3   OH243977   5.215   3.431   1.468 -0.0862  0.5124  0.4688
 7521TIP3    H143978   5.238   3.405   1.378  1.2751  3.4137 -0.1368
 7521TIP3    H243979   5.178   3.352   1.507 -0.2560 -0.9985 -2.4748
 7522TIP3   OH243980   0.054   1.961  11.291  0.0258  0.0196 -0.2160
 7522TIP3    H143981   0.025   1.928  11.376  2.0820  0.4853  0.7411
 7522TIP3    H243982  -0.021   1.949  11.233 -0.7716 -2.1910  1.1602
 7523TIP3   OH243983   2.397   2.016  16.621 -0.7822 -0.0711  0.3344
 7523TIP3    H143984   2.442   1.974  16.548 -1.4324 -1.9934  0.9707
 7523TIP3    H243985   2.441   1.982  16.699 -0.0977  1.9401  0.8984
 7524TIP3   OH243986   2.605   0.149  16.013  0.2174 -0.6051 -0.1787
 7524TIP3    H143987   2.511   0.149  16.032  0.2537 -0.8347  0.0179
 7524TIP3    H243988   2.620   0.228  15.962  0.2895  0.6375  1.6799
 7525TIP3   OH243989   4.306   3.796  13.547 -0.3227  0.1143  0.1443
 7525TIP3    H143990   4.274   3.887  13.554  1.0965  0.6575 -0.2116
 7525TIP3    H243991   4.245   3.754  13.486 -0.1656  1.2365 -0.8285
 7526TIP3   OH243992   4.659   5.667  11.732  0.0564  0.4952 -0.6590
 7526TIP3    H143993   4.663   5.596  11.795 -1.0506  2.2561  1.5265
 7526TIP3    H243994   4.632   5.625  11.650 -0.6734 -1.5752  0.5749
 7527TIP3   OH243995   3.701   0.767  12.970  0.5811  0.0754 -0.9876
 7527TIP3    H143996   3.765   0.704  13.004  0.6036  0.3782 -0.4570
 7527TIP3    H243997   3.683   0.737  12.881  1.6451  0.1148 -1.2313
 7528TIP3   OH243998   6.555   0.952  11.531  0.5755  0.4321 -0.3188
 7528TIP3    H143999   6.613   1.011  11.580 -0.8173  1.8037 -0.2138
 7528TIP3    H244000   6.482   1.008  11.505 -1.0201 -1.3461  0.1096
 7529TIP3   OH244001   4.960   2.131  12.114 -0.1793 -0.5522  0.3997
 7529TIP3    H144002   4.920   2.058  12.068  1.3467 -0.9225 -0.4006
 7529TIP3    H244003   4.893   2.160  12.176 -0.9639 -2.3476  0.4401
 7530TIP3   OH244004   4.253   5.555  10.653  0.4061  0.2415 -0.5100
 7530TIP3    H144005   4.296   5.630  10.693 -0.7233  0.4118  0.4364
 7530TIP3    H244006   4.306   5.480  10.678  0.8233  0.5778 -0.3788
 7531TIP3   OH244007   0.204   5.988   4.323  0.0394  0.0986  0.0014
 7531TIP3    H144008   0.199   5.999   4.229  0.2423  0.3420  0.0183
 7531TIP3    H244009   0.120   6.018   4.356 -0.6728 -1.5215 -0.2387
 7532TIP3   OH244010   3.820   5.303  10.939 -0.3927  0.7498  0.7388
 7532TIP3    H144011   3.836   5.228  10.996 -1.5528 -1.1527 -1.2787
 7532TIP3    H244012   3.905   5.320  10.898 -0.0630  0.6906  1.3957
 7533TIP3   OH244013   6.216   3.440   0.842  0.4331 -0.1119 -0.1955
 7533TIP3    H144014   6.291   3.452   0.783  0.9140 -2.6157 -0.2288
 7533TIP3    H244015   6.240   3.364   0.896 -1.5571 -0.1984  0.6505
 7534TIP3   OH244016   6.250   0.242   6.658  0.2057 -0.6897  0.7807
 7534TIP3    H144017   6.166   0.196   6.653  0.1311 -0.5509  0.7433
 7534TIP3    H244018   6.228   0.334   6.643  0.3840 -0.6715  0.6199
 7535TIP3   OH244019   5.123   3.799  12.147 -0.4139 -0.5567 -0.3925
 7535TIP3    H144020   5.076   3.871  12.105 -0.0816  0.2992  0.6876
 7535TIP3    H244021   5.214   3.811  12.120 -0.4476 -0.9232 -0.6810
 7536TIP3   OH244022   4.749   5.474   3.600  0.0086 -0.0190  0.4044
 7536TIP3    H144023   4.732   5.451   3.692  0.3522 -1.2870  0.1717
 7536TIP3    H244024   4.810   5.407   3.569  0.1042  0.5464 -0.6833
 7537TIP3   OH244025   5.984   3.540  16.970 -0.4186  0.2298 -0.1076
 7537TIP3    H144026   6.054   3.501  16.918  0.7885  0.9438  0.9151
 7537TIP3    H244027   5.903   3.512  16.927  0.4909  1.4781 -2.8777
 7538TIP3   OH244028   1.592   5.453  14.525 -0.3836 -0.0476 -0.4668
 7538TIP3    H144029   1.680   5.463  14.488 -0.1197 -1.9585 -0.4745
 7538TIP3    H244030   1.557   5.376  14.481 -0.8444 -1.1734  1.7639
 7539TIP3   OH244031   1.704   5.635   4.801  0.3465  0.2239 -0.0176
 7539TIP3    H144032   1.760   5.677   4.866  1.0912  0.6310 -0.8907
 7539TIP3    H244033   1.711   5.692   4.724  0.7984 -1.1092 -0.9867
 7540TIP3   OH244034   2.339   0.645  16.776 -0.1991  0.3434  0.1711
 7540TIP3    H144035   2.330   0.629  16.870  2.2791  1.7702  0.7177
 7540TIP3    H244036   2.328   0.739  16.767  0.7395  0.3745 -0.7858
 7541TIP3   OH244037   4.944   2.193   4.109  0.7327 -0.2361  0.0650
 7541TIP3    H144038   4.853   2.174   4.133  0.3783  2.1310  0.8129
 7541TIP3    H244039   4.993   2.115   4.136 -0.7015 -0.5062  2.0542
 7542TIP3   OH244040   2.254   6.043  12.653  0.2749  0.3864  0.3033
 7542TIP3    H144041   2.342   6.060  12.617  1.1168 -1.0288  1.5528
 7542TIP3    H244042   2.196   6.099  12.602  1.5803 -0.4113 -2.2391
 7543TIP3   OH244043   3.332   6.225  13.589 -0.2959  0.0700 -0.2859
 7543TIP3    H144044   3.317   6.317  13.608  1.7721  0.4491 -0.2760
 7543TIP3    H244045   3.248   6.182  13.609 -1.2646  1.9072 -0.2264
 7544TIP3   OH244046   5.862   4.904   5.726 -0.1891  0.0463 -0.3717
 7544TIP3    H144047   5.809   4.876   5.801 -1.4167 -0.5335 -1.4276
 7544TIP3    H244048   5.911   4.825   5.702 -0.9716 -0.2151 -1.1366
 7545TIP3   OH244049   0.445   4.498  14.783  0.5100 -0.1675  0.4449
 7545TIP3    H144050   0.515   4.508  14.847 -0.7285 -0.6769  1.9292
 7545TIP3    H244051   0.398   4.582  14.785 -0.4132 -0.6807  1.3302
 7546TIP3   OH244052   1.058   3.179  14.613 -0.6032  0.1577  0.2139
 7546TIP3    H144053   1.044   3.126  14.534 -0.4736  0.3417  0.0646
 7546TIP3    H244054   0.996   3.144  14.677 -0.7938  0.0838 -0.0090
 7547TIP3   OH244055   6.460   0.605   0.064 -0.5029 -0.1616 -0.1971
 7547TIP3    H144056   6.510   0.590  -0.016 -0.4090  1.7136 -0.5378
 7547TIP3    H244057   6.381   0.651   0.036 -0.8268 -0.1282  0.7055
 7548TIP3   OH244058   3.712   2.123  12.493 -0.3580 -0.3229 -0.2246
 7548TIP3    H144059   3.735   2.166  12.410 -2.2330 -0.5756 -0.9296
 7548TIP3    H244060   3.761   2.041  12.492  2.0702  1.0269  0.4191
 7549TIP3   OH244061   5.846   6.771  13.727 -0.0551 -0.6663 -0.1316
 7549TIP3    H144062   5.792   6.697  13.699 -0.8478 -0.5240  0.9802
 7549TIP3    H244063   5.931   6.755  13.686 -1.3424  0.0357 -3.4514
 7550TIP3   OH244064   5.194   3.858  17.060 -0.1040 -0.3752  0.4199
 7550TIP3    H144065   5.193   3.814  17.145 -1.7545 -0.7074  0.2630
 7550TIP3    H244066   5.200   3.787  16.996  2.0829 -0.0827  0.2431
 7551TIP3   OH244067   1.106   0.491   4.184 -0.2973 -0.3284  0.7010
 7551TIP3    H144068   1.151   0.563   4.228  1.1684 -0.1934 -0.9540
 7551TIP3    H244069   1.175   0.440   4.143 -1.5103  1.5696 -4.5536
 7552TIP3   OH244070   2.117   0.750  16.175 -0.0179  0.2364  0.5204
 7552TIP3    H144071   2.128   0.765  16.081  0.0060 -0.0044  0.4840
 7552TIP3    H244072   2.091   0.835  16.210  1.4344  0.7182  0.5230
 7553TIP3   OH244073   1.471   6.264  14.272  0.0147  0.3994  0.7367
 7553TIP3    H144074   1.444   6.173  14.259 -0.7001  0.4592  1.6867
 7553TIP3    H244075   1.404   6.315  14.226  0.5511  0.4523 -0.0062
 7554TIP3   OH244076   4.505   4.506   5.307  0.4457 -0.2206 -0.2602
 7554TIP3    H144077   4.470   4.419   5.288 -0.8098 -0.1927  1.6184
 7554TIP3    H244078   4.554   4.531   5.229 -0.4446 -1.9768 -1.4243
 7555TIP3   OH244079   4.125   4.639   1.093 -0.1405  0.4290  0.4084
 7555TIP3    H144080   4.161   4.571   1.150 -0.1054 -0.7184 -0.9280
 7555TIP3    H244081   4.159   4.721   1.129  1.6368 -0.4176  0.7687
 7556TIP3   OH244082   2.615   0.945   0.950  0.5639 -0.1800 -0.2279
 7556TIP3    H144083   2.666   1.009   0.999 -1.4892  1.7489 -0.4310
 7556TIP3    H244084   2.550   0.997   0.902  0.0038 -2.2888 -1.9414
 7557TIP3   OH244085   3.932   0.285  13.035 -0.1434  0.3153 -0.0744
 7557TIP3    H144086   3.922   0.258  12.944  0.1848  1.3057 -0.4104
 7557TIP3    H244087   3.986   0.216  13.075  2.0071  1.2048 -1.2927
 7558TIP3   OH244088   0.413   4.843   1.802  0.1052 -0.6127  0.0643
 7558TIP3    H144089   0.408   4.892   1.885 -0.2270 -1.6762  0.6917
 7558TIP3    H244090   0.421   4.911   1.735  2.4120  0.2513  1.0942
 7559TIP3   OH244091   4.057   4.230  15.156 -0.5222  0.6507  0.3037
 7559TIP3    H144092   3.967   4.215  15.187 -0.5977 -0.5855 -0.4498
 7559TIP3    H244093   4.073   4.322  15.174 -1.0358  0.3412  2.7641
 7560TIP3   OH244094   5.639   4.708   2.207  0.3021  0.2601 -0.3860
 7560TIP3    H144095   5.669   4.733   2.294 -2.4347 -0.4063  0.8642
 7560TIP3    H244096   5.631   4.790   2.159 -1.7968  1.1649  1.3364
 7561TIP3   OH244097   4.056   1.848  12.379  0.4079 -0.6499 -0.0372
 7561TIP3    H144098   4.024   1.830  12.291 -0.0167 -0.1204  0.0032
 7561TIP3    H244099   4.150   1.865  12.368 -0.2080  2.9989 -0.9587
 7562TIP3   OH244100   0.587   4.479  12.301  0.0156  0.0229 -0.3313
 7562TIP3    H144101   0.550   4.562  12.329  0.7265 -0.1497  1.2770
 7562TIP3    H244102   0.565   4.418  12.372  1.2731 -0.6393 -0.4775
 7563TIP3   OH244103   2.799   3.546   1.498 -0.0266  0.0570 -0.1267
 7563TIP3    H144104   2.826   3.638   1.492 -1.3490  0.5852  1.1498
 7563TIP3    H244105   2.816   3.510   1.411  1.6183  1.1733 -0.3204
 7564TIP3   OH244106   4.435   0.566  10.648  0.2511  0.3845  0.2229
 7564TIP3    H144107   4.440   0.653  10.689  0.2799 -0.0707  1.2232
 7564TIP3    H244108   4.523   0.552  10.612  0.3996  0.5587  0.5103
 7565TIP3   OH244109   1.832   6.713   2.603  0.3394  0.4079 -0.4520
 7565TIP3    H144110   1.834   6.712   2.508  1.5751  1.6621 -0.4740
 7565TIP3    H244111   1.822   6.806   2.626 -1.2991  0.0133  0.6516
 7566TIP3   OH244112   0.090   6.307   1.461  0.0060  0.3863  0.4151
 7566TIP3    H144113   0.037   6.230   1.476  1.1422 -0.8228 -1.3320
 7566TIP3    H244114   0.116   6.336   1.548 -2.5204  0.3790  1.2496
 7567TIP3   OH244115   5.910   5.321  10.390  0.5358 -0.0201 -0.3403
 7567TIP3    H144116   5.953   5.406  10.400 -0.0802  0.2885 -0.1958
 7567TIP3    H244117   5.832   5.340  10.337  0.7787 -0.6298 -0.9287
 7568TIP3   OH244118   3.315   5.564   2.808  0.2507  0.1962 -0.5255
 7568TIP3    H144119   3.391   5.610   2.772 -0.3284  1.9344  0.3589
 7568TIP3    H244120   3.295   5.611   2.890 -1.9376 -0.0158 -0.8731
 7569TIP3   OH244121   0.633   1.272  15.461 -0.1040  0.1601 -0.1639
 7569TIP3    H144122   0.549   1.227  15.464 -0.3760  0.6306 -0.4694
 7569TIP3    H244123   0.614   1.359  15.496  0.2751  0.2358 -0.1464
 7570TIP3   OH244124   2.123   4.867   5.117 -0.3980 -0.0957 -0.0297
 7570TIP3    H144125   2.155   4.946   5.072 -0.8830 -1.3151 -2.6872
 7570TIP3    H244126   2.036   4.892   5.147 -1.4147 -0.1056 -2.6436
 7571TIP3   OH244127   2.565   5.483   0.220 -0.5654  0.4632 -0.1098
 7571TIP3    H144128   2.584   5.475   0.314 -0.1206 -0.1685 -0.2531
 7571TIP3    H244129   2.568   5.394   0.187  0.5634  0.7974 -0.9797
 7572TIP3   OH244130   5.775   0.653  14.355  0.2616  0.0433  0.1743
 7572TIP3    H144131   5.860   0.683  14.385 -0.1585  0.3506  1.0965
 7572TIP3    H244132   5.791   0.620  14.266  1.0345  1.5405 -0.2789
 7573TIP3   OH244133   0.921   4.810  12.168 -0.2437  0.4764  0.2577
 7573TIP3    H144134   0.963   4.883  12.213  1.0813 -0.8074  1.1611
 7573TIP3    H244135   0.898   4.846  12.082  3.1517  1.1842 -0.5091
 7574TIP3   OH244136   4.389   5.519  13.796 -0.5874  0.4330 -0.0498
 7574TIP3    H144137   4.435   5.602  13.794 -0.3448  0.3418  0.9637
 7574TIP3    H244138   4.301   5.539  13.766 -1.1451  1.4956  2.0923
 7575TIP3   OH244139   6.646   1.037   5.216 -0.2536 -0.2175  0.6325
 7575TIP3    H144140   6.567   0.990   5.245 -0.9284  0.2135 -0.4484
 7575TIP3    H244141   6.635   1.045   5.121  0.4970  0.9611  0.6342
 7576TIP3   OH244142   5.805   5.331   3.009  0.4309 -0.1305 -0.3281
 7576TIP3    H144143   5.786   5.408   2.955 -0.0277  0.1711  0.2554
 7576TIP3    H244144   5.736   5.330   3.074  0.6178 -0.8637 -0.1351
 7577TIP3   OH244145   6.391   3.174  15.989  0.3087 -0.3173  0.5039
 7577TIP3    H144146   6.402   3.228  15.910 -2.0007  1.9467  1.5739
 7577TIP3    H244147   6.480   3.167  16.025  1.3504 -1.0336 -1.9839
 7578TIP3   OH244148   2.119   6.216  13.673 -0.0612  0.3725  0.0674
 7578TIP3    H144149   2.140   6.187  13.585 -0.3301  1.0855 -0.2368
 7578TIP3    H244150   2.194   6.189  13.726  0.0198 -0.2159 -0.3374
 7579TIP3   OH244151   3.851   5.927   4.095  0.3639 -0.0658  0.3242
 7579TIP3    H144152   3.770   5.884   4.069  1.4460 -1.9081 -0.1912
 7579TIP3    H244153   3.823   6.010   4.132 -1.8432 -1.0820  1.1217
 7580TIP3   OH244154   0.445   1.108   4.951  0.1347  0.2698  0.2687
 7580TIP3    H144155   0.510   1.172   4.921 -0.1641 -0.2037 -1.5112
 7580TIP3    H244156   0.375   1.114   4.886  0.2370 -2.0546 -0.1296
 7581TIP3   OH244157   0.309   2.428  15.791 -0.4017  0.6410 -0.4490
 7581TIP3    H144158   0.325   2.522  15.789  1.9035  0.3925  1.3258
 7581TIP3    H244159   0.396   2.389  15.775 -1.1961 -1.1817 -0.5990
 7582TIP3   OH244160   2.602   2.084   4.528  0.3564 -0.0801 -0.5615
 7582TIP3    H144161   2.554   2.086   4.445 -0.7485  0.2551  0.0518
 7582TIP3    H244162   2.546   2.034   4.587  1.0602 -0.1966  0.0228
 7583TIP3   OH244163   1.814   2.129  10.591 -0.6657 -0.2811  0.6851
 7583TIP3    H144164   1.899   2.109  10.550 -0.0927  1.5365  0.9015
 7583TIP3    H244165   1.811   2.072  10.668 -0.4401 -1.6094 -0.2510
 7584TIP3   OH244166   5.765   2.252   0.379 -0.2993 -0.0154  0.2922
 7584TIP3    H144167   5.825   2.185   0.412 -0.8242 -0.4869  0.3092
 7584TIP3    H244168   5.813   2.295   0.309 -0.1449 -0.7639 -0.0722
 7585TIP3   OH244169   5.798   1.030  14.246 -0.0716  0.5916 -0.3228
 7585TIP3    H144170   5.710   0.994  14.231  0.3125  0.4475 -2.5599
 7585TIP3    H244171   5.787   1.089  14.320 -1.2643 -2.1653  1.8805
 7586TIP3   OH244172   0.836   2.783  15.309  0.3025 -0.1184 -0.2718
 7586TIP3    H144173   0.891   2.768  15.386  1.1647  0.0791 -0.8335
 7586TIP3    H244174   0.850   2.705  15.255 -0.0027 -0.0829 -0.4004
 7587TIP3   OH244175   4.820   6.172   2.445 -0.0442 -0.4567 -0.0425
 7587TIP3    H144176   4.831   6.251   2.392 -1.9055  0.4077  0.7555
 7587TIP3    H244177   4.879   6.108   2.406 -0.7457  0.3798 -2.6679
 7588TIP3   OH244178   2.261   1.211   5.079 -0.4640  0.5050 -0.2204
 7588TIP3    H144179   2.275   1.304   5.097  0.9736  0.3591 -0.4827
 7588TIP3    H244180   2.325   1.166   5.134 -1.1917 -0.3452 -0.0494
 7589TIP3   OH244181   3.708   1.436   5.260  0.0598  0.0868  0.3550
 7589TIP3    H144182   3.746   1.497   5.323  0.7376 -0.5974  0.6295
 7589TIP3    H244183   3.630   1.402   5.303  0.5298 -0.3931  0.8583
 7590TIP3   OH244184   4.415   4.454   1.690  0.4225  0.4956  0.0481
 7590TIP3    H144185   4.417   4.538   1.736 -0.5159  0.3963  0.2716
 7590TIP3    H244186   4.326   4.422   1.701  1.2540 -1.4793  1.6579
 7591TIP3   OH244187   5.318   0.114   5.338 -0.5876  0.3671  0.0791
 7591TIP3    H144188   5.249   0.176   5.363 -1.1739 -1.0281  2.1858
 7591TIP3    H244189   5.396   0.145   5.383 -0.5005  0.4048 -0.0954
 7592TIP3   OH244190   2.364   5.176  11.382  0.2811 -0.5606 -0.4781
 7592TIP3    H144191   2.426   5.191  11.453 -2.8709 -1.8534  2.8317
 7592TIP3    H244192   2.336   5.263  11.356 -0.1868 -0.0475  1.5661
 7593TIP3   OH244193   4.445   2.672  14.435  0.1146 -0.2056 -0.0414
 7593TIP3    H144194   4.529   2.706  14.404 -0.6733  0.5562 -1.4544
 7593TIP3    H244195   4.421   2.731  14.507  0.0371  0.6011 -0.7098
 7594TIP3   OH244196   2.052   2.031   2.896  0.3716  0.0700  0.3258
 7594TIP3    H144197   1.967   1.992   2.877 -0.2245  1.2278  0.5484
 7594TIP3    H244198   2.043   2.123   2.872  1.4830  0.2694  0.5991
 7595TIP3   OH244199   0.450   4.027  16.636 -0.4096 -0.0807 -0.1598
 7595TIP3    H144200   0.434   4.098  16.574 -0.7007 -0.8411 -0.9909
 7595TIP3    H244201   0.364   3.988  16.651 -0.0747 -1.1588 -0.8636
 7596TIP3   OH244202   4.157   4.492   2.268  0.5864 -0.2594  0.4610
 7596TIP3    H144203   4.243   4.453   2.280 -0.2879 -2.2595  0.5546
 7596TIP3    H244204   4.119   4.493   2.356 -0.4371 -1.7942  0.0715
 7597TIP3   OH244205   5.142   3.441   3.006 -0.2002 -0.1969 -0.0917
 7597TIP3    H144206   5.068   3.447   3.066 -0.1935  0.8347 -0.1718
 7597TIP3    H244207   5.219   3.434   3.063 -0.2537  0.0506  0.0106
 7598TIP3   OH244208   2.702   6.570   6.321 -0.3570  0.4754 -0.3741
 7598TIP3    H144209   2.795   6.577   6.297 -0.5122  0.1533 -1.0974
 7598TIP3    H244210   2.702   6.521   6.404  0.0905 -0.0042 -0.6497
 7599TIP3   OH244211   0.246   0.922  10.603  0.2774 -0.0848  0.2322
 7599TIP3    H144212   0.178   0.973  10.647 -0.5886 -0.9549 -0.0744
 7599TIP3    H244213   0.327   0.949  10.646 -0.5098 -0.7404  2.2330
 7600TIP3   OH244214   4.983   2.047   4.551  0.6731 -0.0602 -0.3163
 7600TIP3    H144215   4.961   2.051   4.644  2.5291 -0.7771  0.2001
 7600TIP3    H244216   4.977   2.137   4.521 -0.8869  0.0515  0.2383
 7601TIP3   OH244217   4.035   4.136  14.872  0.5966 -0.2334  0.1350
 7601TIP3    H144218   4.027   4.227  14.844  1.2789 -0.0448  0.5238
 7601TIP3    H244219   4.072   4.141  14.960  1.2693 -0.8968 -0.0934
 7602TIP3   OH244220   6.052   1.063  13.744 -0.6562 -0.7562 -0.2907
 7602TIP3    H144221   5.980   1.053  13.806 -1.7617 -0.0773 -1.4254
 7602TIP3    H244222   6.087   1.150  13.761  1.0706 -1.6995  1.4071
 7603TIP3   OH244223   6.737   3.146   0.809 -0.2746 -0.2971  0.0465
 7603TIP3    H144224   6.708   3.075   0.866  1.1673 -1.4561 -0.5825
 7603TIP3    H244225   6.727   3.111   0.721 -1.8897  1.2471 -0.4375
 7604TIP3   OH244226   5.762   1.431   2.384  0.0327  0.4278  0.1610
 7604TIP3    H144227   5.845   1.472   2.411  0.2738  0.3310 -0.4267
 7604TIP3    H244228   5.786   1.340   2.365 -0.0426  0.5971 -0.7933
 7605TIP3   OH244229   4.512   1.461   4.906  0.3410 -0.2233  0.6608
 7605TIP3    H144230   4.506   1.404   4.829  1.0231 -0.4585  0.7794
 7605TIP3    H244231   4.424   1.458   4.944 -0.0384 -0.0293 -0.1551
 7606TIP3   OH244232   0.950   6.337  12.009 -0.0252  0.4843  0.2370
 7606TIP3    H144233   0.995   6.421  12.013  1.6548 -0.3561 -0.0614
 7606TIP3    H244234   0.907   6.328  12.094  0.8277  1.0982  0.7460
 7607TIP3   OH244235   6.688   2.960   1.908 -0.6525  0.2025  0.0286
 7607TIP3    H144236   6.710   2.915   1.990  0.1092 -1.1346 -0.8709
 7607TIP3    H244237   6.626   3.028   1.934 -1.5458 -1.1066  1.5334
 7608TIP3   OH244238   3.663   0.448   6.708 -0.6119 -0.1172 -0.3280
 7608TIP3    H144239   3.742   0.422   6.661 -1.2788  0.7592 -2.0211
 7608TIP3    H244240   3.695   0.479   6.793  0.4752 -3.2989  0.5566
 7609TIP3   OH244241   3.018   4.781  14.619  0.3642 -0.6378 -0.0706
 7609TIP3    H144242   3.074   4.728  14.563 -0.3054 -1.3575 -0.0689
 7609TIP3    H244243   2.943   4.805  14.564  1.2711  1.4671 -0.5063
 7610TIP3   OH244244   1.663   1.606  12.833  0.3680  0.6311  0.3097
 7610TIP3    H144245   1.684   1.566  12.917  0.6390 -1.2159 -0.5856
 7610TIP3    H244246   1.744   1.600  12.782  0.0000  1.0202 -0.3494
 7611TIP3   OH244247   2.189   5.878  11.675 -0.2132 -0.0329 -0.1679
 7611TIP3    H144248   2.174   5.817  11.603 -1.6700  0.6140 -0.4521
 7611TIP3    H244249   2.211   5.823  11.750 -2.4023 -1.0022 -0.1779
 7612TIP3   OH244250   3.809   4.865   2.068  0.0654  0.5046 -0.3828
 7612TIP3    H144251   3.855   4.841   2.149 -0.8060  0.6452  0.1705
 7612TIP3    H244252   3.755   4.789   2.048 -0.4216  0.8217 -0.3045
 7613TIP3   OH244253   0.623   0.531  13.649 -0.0759 -0.0572  0.1240
 7613TIP3    H144254   0.585   0.600  13.595 -2.3850 -0.5008  1.0599
 7613TIP3    H244255   0.609   0.451  13.599  2.4777  0.0411 -0.8993
 7614TIP3   OH244256   2.711   2.871  12.598  0.1025  0.9526 -0.3834
 7614TIP3    H144257   2.720   2.786  12.555 -1.8496  0.8597 -0.7033
 7614TIP3    H244258   2.772   2.867  12.672  1.7519  0.1889 -1.7028
 7615TIP3   OH244259   1.435   1.929   4.640 -0.2389 -0.3791  0.0895
 7615TIP3    H144260   1.496   1.971   4.579 -0.2201 -1.2039 -0.4870
 7615TIP3    H244261   1.362   1.990   4.649  1.2823  1.2882  1.9165
 7616TIP3   OH244262   2.416   6.492  10.330  0.0168 -0.1845  0.1269
 7616TIP3    H144263   2.410   6.452  10.417 -1.0746 -0.7380 -0.1835
 7616TIP3    H244264   2.364   6.435  10.274  1.4170 -0.3133 -1.0857
 7617TIP3   OH244265   5.759   4.235   4.702  0.2769 -0.0766  0.2556
 7617TIP3    H144266   5.806   4.318   4.692  0.2767  0.0999  1.4868
 7617TIP3    H244267   5.683   4.257   4.755  1.4016 -1.2083  2.4874
 7618TIP3   OH244268   6.501   2.024  12.631 -1.0801  0.2228 -0.1595
 7618TIP3    H144269   6.540   1.977  12.704 -0.8194  0.1989 -0.3127
 7618TIP3    H244270   6.541   1.985  12.553  1.1027  2.3853 -0.2357
 7619TIP3   OH244271   4.506   0.342   5.062  0.3553  0.7859 -0.5374
 7619TIP3    H144272   4.431   0.322   5.118 -1.3442  3.1453 -1.8115
 7619TIP3    H244273   4.481   0.309   4.976  0.8789  1.4202 -0.9343
 7620TIP3   OH244274   2.415   0.030   1.511  0.3173  0.3894 -0.4353
 7620TIP3    H144275   2.360  -0.024   1.568 -0.6995  0.2130 -1.5556
 7620TIP3    H244276   2.451  -0.030   1.447  1.8411  0.5107  0.2653
 7621TIP3   OH244277   5.808   6.413   2.081  0.0216  0.0958 -0.6023
 7621TIP3    H144278   5.739   6.429   2.145 -1.0821  1.2319 -1.9926
 7621TIP3    H244279   5.762   6.374   2.006  0.8739  0.8582 -1.5505
 7622TIP3   OH244280   1.743   5.053   5.542 -0.0872  0.4066 -0.1054
 7622TIP3    H144281   1.780   4.980   5.492  0.2358  1.4910 -1.5142
 7622TIP3    H244282   1.782   5.044   5.630  0.3860 -0.7774 -0.4168
 7623TIP3   OH244283   4.519   5.463   2.881 -0.3145 -0.2935  0.4006
 7623TIP3    H144284   4.543   5.415   2.960  1.7305  1.0349  0.6560
 7623TIP3    H244285   4.532   5.400   2.810  2.2367 -0.2129  0.7287
 7624TIP3   OH244286   6.004   4.920   0.693  0.8604  0.3102 -0.1513
 7624TIP3    H144287   5.989   4.928   0.599 -2.9594  0.8358  0.3290
 7624TIP3    H244288   5.991   4.827   0.712 -0.8441  0.5593  0.0865
 7625TIP3   OH244289   2.181   5.454   5.267  0.0818  0.2401 -0.4645
 7625TIP3    H144290   2.246   5.387   5.289 -1.6505 -1.7519 -1.1043
 7625TIP3    H244291   2.126   5.460   5.346 -0.2982  0.2338 -0.7267
 7626TIP3   OH244292   3.144   3.720  17.067  0.1182 -0.1972  0.3801
 7626TIP3    H144293   3.210   3.778  17.031  1.9642 -0.7684  2.6082
 7626TIP3    H244294   3.159   3.636  17.025 -0.3110  0.0701 -0.3267
 7627TIP3   OH244295   2.243   5.435  17.018 -0.1773 -0.2295  0.2330
 7627TIP3    H144296   2.283   5.519  16.997  0.5339 -1.1628 -2.5609
 7627TIP3    H244297   2.171   5.457  17.078  0.9921  2.1205  0.8975
 7628TIP3   OH244298   5.879   1.044   2.359 -0.1107  0.0742 -0.0260
 7628TIP3    H144299   5.816   1.085   2.299  0.9751  1.2533 -0.4173
 7628TIP3    H244300   5.961   1.044   2.311  0.1376 -1.8136  0.3234
 7629TIP3   OH244301   0.215   2.376  14.246  0.2200  0.6496 -0.4974
 7629TIP3    H144302   0.211   2.433  14.170  0.1568  1.2278 -0.0718
 7629TIP3    H244303   0.124   2.360  14.270  0.2359  0.3269 -0.6402
 7630TIP3   OH244304   0.414   3.080  11.687 -0.5789 -0.8571  0.6202
 7630TIP3    H144305   0.352   3.025  11.734 -2.5489  0.0130 -0.8147
 7630TIP3    H244306   0.424   3.036  11.602 -1.5741  0.5091 -0.2496
 7631TIP3   OH244307   0.946   4.253  11.309 -0.1312 -0.2785  0.0812
 7631TIP3    H144308   0.894   4.204  11.373 -1.7479  2.6147  1.1525
 7631TIP3    H244309   0.884   4.276  11.240  0.4630  0.6022 -0.1793
 7632TIP3   OH244310   0.832   4.697  13.593 -0.0395  0.2979  0.1820
 7632TIP3    H144311   0.797   4.775  13.636  0.6217  1.2829 -0.9667
 7632TIP3    H244312   0.919   4.725  13.562 -0.3097 -0.4876 -1.3671
 7633TIP3   OH244313   2.691   3.088  16.259 -0.1769 -0.7453 -0.0703
 7633TIP3    H144314   2.728   3.177  16.262  0.1575 -0.8825  2.5733
 7633TIP3    H244315   2.703   3.060  16.168  1.5664  1.1399 -0.5050
 7634TIP3   OH244316   1.397   1.679  11.990  0.3611  0.3485  0.0817
 7634TIP3    H144317   1.447   1.664  11.910  0.7861  0.6782  0.2816
 7634TIP3    H244318   1.420   1.767  12.017  3.0141 -0.9094  2.4762
 7635TIP3   OH244319   2.641   0.495  13.110 -0.5766 -0.8764  0.9294
 7635TIP3    H144320   2.563   0.537  13.075 -0.6665 -0.4055  1.6457
 7635TIP3    H244321   2.663   0.426  13.048 -0.6720 -0.0246 -0.0749
 7636TIP3   OH244322   2.942   0.998  13.074 -0.6780 -0.1174 -0.5157
 7636TIP3    H144323   3.020   1.052  13.089 -2.2858  1.6935  2.3243
 7636TIP3    H244324   2.962   0.948  12.995  2.3031  2.1340 -1.3709
 7637TIP3   OH244325   2.424   3.969  12.322  0.3530  0.3640 -0.1786
 7637TIP3    H144326   2.513   3.983  12.353  0.1989  1.5084 -0.2024
 7637TIP3    H244327   2.433   3.954  12.228  0.6778 -1.5434  0.1172
 7638TIP3   OH244328   2.420   3.389  14.321 -0.3637 -0.3942  0.0140
 7638TIP3    H144329   2.406   3.467  14.268 -0.1931 -0.8337 -0.6804
 7638TIP3    H244330   2.492   3.413  14.380 -0.4586  0.0420 -0.0472
 7639TIP3   OH244331   6.798   4.898   2.237  0.1293  0.0602 -0.6255
 7639TIP3    H144332   6.837   4.814   2.259 -0.6996  0.0180  0.8734
 7639TIP3    H244333   6.703   4.881   2.238 -0.1462  1.2826  1.2725
 7640TIP3   OH244334   4.224   5.734  15.800 -0.0269  0.1161 -0.5146
 7640TIP3    H144335   4.214   5.686  15.718 -0.6023 -0.0355 -0.3652
 7640TIP3    H244336   4.134   5.744  15.833  0.0017  1.8135 -0.8336
 7641TIP3   OH244337   6.569   4.635  11.569 -0.1637 -0.2422 -0.0358
 7641TIP3    H144338   6.633   4.579  11.614 -0.2703  0.6745  1.3097
 7641TIP3    H244339   6.498   4.646  11.633 -0.2455  1.2448 -0.3622
 7642TIP3   OH244340   1.888   3.943   1.395 -0.2154 -0.2063 -0.3916
 7642TIP3    H144341   1.930   4.029   1.392  0.6473 -0.5004  1.7515
 7642TIP3    H244342   1.848   3.933   1.308  2.1512  1.0897 -1.7288
 7643TIP3   OH244343   3.287   6.697  13.176  0.1685 -0.9116  0.1252
 7643TIP3    H144344   3.311   6.605  13.177  0.5636 -0.8608  2.4423
 7643TIP3    H244345   3.348   6.738  13.115  1.3653 -1.8930  0.6189
 7644TIP3   OH244346   0.075   3.871  16.456 -0.2601 -0.1595  0.1618
 7644TIP3    H144347   0.057   3.859  16.362 -1.4656 -0.6552  0.4352
 7644TIP3    H244348   0.046   3.790  16.496  1.6158 -0.5382  0.8203
 7645TIP3   OH244349   2.216   5.713   2.162 -0.0302 -0.2907 -0.0745
 7645TIP3    H144350   2.310   5.716   2.148  0.2010  1.4778  1.5228
 7645TIP3    H244351   2.205   5.670   2.247 -0.6087  0.1895  0.1053
 7646TIP3   OH244352   3.579   3.763  11.696  0.0991 -0.4246  0.1027
 7646TIP3    H144353   3.491   3.800  11.695  0.0403 -0.5139 -1.6200
 7646TIP3    H244354   3.584   3.712  11.616  2.2941  1.0448 -0.8063
 7647TIP3   OH244355   3.780   4.424   2.605 -0.5741  0.3752 -0.3914
 7647TIP3    H144356   3.698   4.382   2.579 -0.9512  0.2479  0.9433
 7647TIP3    H244357   3.795   4.394   2.695  0.6623  0.8152 -0.4322
 7648TIP3   OH244358   2.033   0.533   0.665  0.3192  0.0969  0.1989
 7648TIP3    H144359   2.104   0.596   0.649  0.1112  0.3272  0.1845
 7648TIP3    H244360   2.073   0.466   0.721  0.7467 -0.1414 -0.3773
 7649TIP3   OH244361   6.381   2.938  12.612  0.4412 -0.1772  0.4684
 7649TIP3    H144362   6.423   2.858  12.579 -0.0239 -0.6679  1.0264
 7649TIP3    H244363   6.290   2.931  12.584  0.9811  1.5994 -2.0129
 7650TIP3   OH244364   0.605   3.028  11.211  0.0006  0.5537 -0.2760
 7650TIP3    H144365   0.700   3.015  11.214 -0.0067  0.5855  0.0891
 7650TIP3    H244366   0.580   3.000  11.122 -0.0451 -2.0988  0.4830
 7651TIP3   OH244367   0.894   0.211  14.844 -0.4279  0.0793 -0.1667
 7651TIP3    H144368   0.941   0.139  14.801 -1.8747  0.3546 -2.3579
 7651TIP3    H244369   0.924   0.208  14.935 -0.5799 -3.4535 -0.0943
 7652TIP3   OH244370   1.937   4.162   6.022  0.2786 -0.3285 -0.5780
 7652TIP3    H144371   1.882   4.096   6.064  0.6035 -2.4794 -3.2476
 7652TIP3    H244372   1.875   4.215   5.972  0.2888 -0.5164 -0.7922
 7653TIP3   OH244373   1.729   4.705   1.419  0.0451 -0.0939  0.0887
 7653TIP3    H144374   1.665   4.741   1.481  0.5567 -3.1682  2.6222
 7653TIP3    H244375   1.681   4.638   1.371  0.0225  1.3641 -2.0973
 7654TIP3   OH244376   6.401   1.082   3.044  0.2156  0.4150 -0.5485
 7654TIP3    H144377   6.475   1.093   3.104  0.6874 -0.4135 -0.9604
 7654TIP3    H244378   6.414   0.996   3.006 -0.8865  0.3338 -0.7567
 7655TIP3   OH244379   2.417   2.688  13.124 -0.1022  0.3051  0.0669
 7655TIP3    H144380   2.410   2.759  13.060  0.9199  1.3083  1.0227
 7655TIP3    H244381   2.465   2.619  13.079 -0.6584  0.4055 -0.7066
 7656TIP3   OH244382   3.342   4.487  14.559  0.1383  0.1836  0.3679
 7656TIP3    H144383   3.418   4.523  14.513  0.3774  0.4496  0.9677
 7656TIP3    H244384   3.266   4.519  14.509  0.4280 -0.6221 -0.6200
 7657TIP3   OH244385   3.276   6.577  11.514  0.5891  0.3953 -0.2905
 7657TIP3    H144386   3.308   6.508  11.457 -1.3179  1.4135 -2.8219
 7657TIP3    H244387   3.197   6.540  11.554  0.7388  0.3828 -0.0126
 7658TIP3   OH244388   2.563   0.501  16.339 -0.5078 -0.2180  0.0585
 7658TIP3    H144389   2.640   0.555  16.353 -0.4965  0.0141 -0.8533
 7658TIP3    H244390   2.587   0.443  16.267 -0.7679 -0.9743  0.5595
 7659TIP3   OH244391   5.941   2.510  13.064 -0.1388  0.7476 -0.1191
 7659TIP3    H144392   6.015   2.459  13.029 -0.1581 -0.1772  1.1322
 7659TIP3    H244393   5.945   2.497  13.158 -3.9780 -2.3781 -0.1251
 7660TIP3   OH244394   5.553   1.291  16.926 -0.2053 -0.4307  0.0037
 7660TIP3    H144395   5.626   1.299  16.865 -0.1038 -0.9336  0.0562
 7660TIP3    H244396   5.484   1.249  16.875 -0.9154  1.1724 -0.4254
 7661TIP3   OH244397   2.184   1.416   5.595  0.0805 -0.3249  0.0636
 7661TIP3    H144398   2.185   1.474   5.519  0.9380 -0.1608  0.1917
 7661TIP3    H244399   2.103   1.366   5.585 -0.7710  1.0227  0.0602
 7662TIP3   OH244400   2.069   2.672  11.557  0.5888 -0.1164 -0.4938
 7662TIP3    H144401   2.071   2.577  11.570 -0.0185 -0.2690 -1.4076
 7662TIP3    H244402   1.981   2.698  11.587  0.9980  0.2717  0.4088
 7663TIP3   OH244403   1.461   3.492  12.669 -0.1343  0.5198  0.2878
 7663TIP3    H144404   1.462   3.533  12.755  0.1861  0.1897  0.4398
 7663TIP3    H244405   1.551   3.500  12.637 -0.2761  0.7426 -0.0672
 7664TIP3   OH244406   1.257   4.353   2.754  0.3277  0.0815 -0.3409
 7664TIP3    H144407   1.264   4.415   2.681  1.4366  1.1373  0.6023
 7664TIP3    H244408   1.165   4.358   2.781  0.8415  3.4232  1.3838
 7665TIP3   OH244409   1.940   1.381   0.991  0.8127  0.1975 -0.4872
 7665TIP3    H144410   1.869   1.326   1.025  0.6210 -1.2194 -2.9882
 7665TIP3    H244411   1.897   1.464   0.969  0.6637  0.6076  1.1739
 7666TIP3   OH244412   3.771   4.462  15.241 -0.3703 -0.0169  0.0670
 7666TIP3    H144413   3.789   4.369  15.254 -0.7402  0.0902  1.5105
 7666TIP3    H244414   3.855   4.499  15.212  0.3547 -0.4397  1.5507
 7667TIP3   OH244415   2.268   3.236   1.479  0.5780  0.5978  0.2688
 7667TIP3    H144416   2.282   3.331   1.488  0.1630  0.7732 -0.8196
 7667TIP3    H244417   2.227   3.226   1.393  2.4701 -0.7645 -0.5249
 7668TIP3   OH244418   4.303   3.883   6.184  0.0779  0.3032  0.1474
 7668TIP3    H144419   4.301   3.834   6.266  1.0408  0.4445  0.2737
 7668TIP3    H244420   4.213   3.879   6.150 -0.4950  0.8381  1.5477
 7669TIP3   OH244421   6.444   3.147  15.215 -0.1238  0.3281  0.3717
 7669TIP3    H144422   6.411   3.057  15.205  2.3495 -0.6288  0.2023
 7669TIP3    H244423   6.425   3.188  15.131 -0.5961 -0.2778  0.1693
 7670TIP3   OH244424   0.116   1.355   1.064 -0.1638  0.2429  0.3448
 7670TIP3    H144425   0.136   1.286   1.128 -0.8306 -0.7578 -0.4941
 7670TIP3    H244426   0.202   1.383   1.032  0.1073 -0.4966  0.3948
 7671TIP3   OH244427   5.280   2.341   3.793  0.4864 -0.2081 -0.5481
 7671TIP3    H144428   5.193   2.344   3.832 -0.0105 -0.8373 -1.5801
 7671TIP3    H244429   5.292   2.250   3.767  2.2529 -0.5823  1.3225
 7672TIP3   OH244430   1.150   1.358  14.982 -0.2335  0.4349 -0.1368
 7672TIP3    H144431   1.098   1.434  15.010 -1.0126 -0.1757  0.1259
 7672TIP3    H244432   1.239   1.377  15.011 -0.4816  1.1060  0.2052
 7673TIP3   OH244433   0.949   1.363   4.547  0.3458 -0.4716 -0.1577
 7673TIP3    H144434   0.936   1.452   4.516  0.3857 -0.5967 -0.5324
 7673TIP3    H244435   0.885   1.353   4.617 -0.3086 -0.4666 -0.7541
 7674TIP3   OH244436   4.454   6.591   0.788 -0.4313  0.7571  0.5252
 7674TIP3    H144437   4.535   6.552   0.754  0.0290  2.1888 -0.0962
 7674TIP3    H244438   4.442   6.549   0.874  0.0299 -0.7091 -0.0870
 7675TIP3   OH244439   2.615   3.274   4.662  0.0575  0.2402  0.1149
 7675TIP3    H144440   2.696   3.285   4.712 -0.3833 -1.1441  1.1946
 7675TIP3    H244441   2.628   3.191   4.615 -0.8060 -0.0680  0.4211
 7676TIP3   OH244442   0.380   5.870  10.956  0.5269  0.7542  0.0342
 7676TIP3    H144443   0.327   5.883  10.877  0.4041  2.9839  0.4232
 7676TIP3    H244444   0.317   5.860  11.026  0.6160 -2.1080 -0.1703
 7677TIP3   OH244445   6.017   2.751  12.774  0.1965  0.1287  0.3543
 7677TIP3    H144446   6.102   2.775  12.809  0.4587 -0.1235 -0.1116
 7677TIP3    H244447   6.018   2.655  12.770 -0.0962  0.1235  0.3139
 7678TIP3   OH244448   1.012   6.726  14.338 -0.2806 -0.1857 -0.1185
 7678TIP3    H144449   1.100   6.728  14.302 -0.7734 -0.1507 -1.4154
 7678TIP3    H244450   1.021   6.684  14.423  1.0777  0.4884  0.0906
 7679TIP3   OH244451   6.482   0.026   1.140 -0.3463  0.7015 -0.5729
 7679TIP3    H144452   6.491  -0.063   1.173 -1.0089  0.4847 -0.9533
 7679TIP3    H244453   6.439   0.016   1.055 -2.5519  1.5114  0.3898
 7680TIP3   OH244454   5.151   0.474  15.492  0.2753 -0.8084  0.1705
 7680TIP3    H144455   5.090   0.470  15.566 -1.5192 -1.6341 -1.2694
 7680TIP3    H244456   5.152   0.385  15.456  2.6495 -0.9174  0.3306
 7681TIP3   OH244457   4.759   0.734  10.906 -0.3265  0.0820  0.0393
 7681TIP3    H144458   4.827   0.700  10.848 -2.3297 -3.2270 -0.6627
 7681TIP3    H244459   4.716   0.803  10.856  1.4785  1.1302 -0.1117
 7682TIP3   OH244460   2.051   0.225  16.143 -0.1629 -0.6411  0.5300
 7682TIP3    H144461   1.970   0.197  16.185 -0.4193 -0.1409  0.3782
 7682TIP3    H244462   2.030   0.231  16.050 -0.2129  0.3509  0.5910
 7683TIP3   OH244463   3.077   2.608  13.818 -0.0989  0.1578 -0.2852
 7683TIP3    H144464   3.053   2.640  13.905 -0.6469 -0.4436 -0.2090
 7683TIP3    H244465   3.163   2.567  13.831  0.2619  0.9209 -0.2295
 7684TIP3   OH244466   5.235   5.895   1.359 -0.4504  0.0112  0.5386
 7684TIP3    H144467   5.269   5.903   1.270  0.5162 -0.7612  0.8225
 7684TIP3    H244468   5.224   5.986   1.388  1.4515  0.3056  0.4567
 7685TIP3   OH244469   3.459   1.813   2.224  0.7450 -0.1898 -0.1839
 7685TIP3    H144470   3.398   1.775   2.287  1.6955 -0.8927  0.3394
 7685TIP3    H244471   3.445   1.762   2.144  2.5357 -2.2357  0.7269
 7686TIP3   OH244472   3.300   3.629  12.413 -0.4579 -0.3286  0.5160
 7686TIP3    H144473   3.280   3.562  12.479 -1.8884  0.2937  0.7671
 7686TIP3    H244474   3.379   3.672  12.445 -0.5496 -0.7119  1.2866
 7687TIP3   OH244475   0.316   5.643   2.881  0.1299 -0.5390 -0.1574
 7687TIP3    H144476   0.255   5.666   2.950 -0.4928  0.2406 -0.9432
 7687TIP3    H244477   0.290   5.554   2.855 -2.2728  0.5738 -2.0438
 7688TIP3   OH244478   5.190   3.822  10.225 -0.5086 -0.5345  0.6532
 7688TIP3    H144479   5.117   3.764  10.205 -0.9342  0.7999 -2.0208
 7688TIP3    H244480   5.268   3.767  10.214 -0.9748 -1.0486 -0.1833
 7689TIP3   OH244481   1.149   4.825  10.890 -0.3949 -0.5779 -0.0176
 7689TIP3    H144482   1.227   4.881  10.891 -1.2635  0.6394  1.1658
 7689TIP3    H244483   1.169   4.759  10.822  1.4355  0.0027 -0.1067
 7690TIP3   OH244484   6.687   2.915  12.491  0.5154  0.0356 -0.3636
 7690TIP3    H144485   6.608   2.955  12.457 -0.3075 -0.8993  0.3841
 7690TIP3    H244486   6.757   2.976  12.469 -0.2406  0.3517 -2.0222
 7691TIP3   OH244487   4.714   3.564  16.822 -0.2422 -0.2538 -0.3422
 7691TIP3    H144488   4.799   3.520  16.823 -0.4083 -0.7210 -2.1062
 7691TIP3    H244489   4.662   3.513  16.759 -1.2985  0.9375 -0.4761
 7692TIP3   OH244490   4.620   5.679  12.614 -0.1492  0.2887 -0.2764
 7692TIP3    H144491   4.592   5.616  12.547  0.5497 -1.4668  0.9932
 7692TIP3    H244492   4.668   5.746  12.566  0.0473 -0.7484 -1.5761
 7693TIP3   OH244493   3.889   2.470  15.352 -0.0384  0.4913  0.0004
 7693TIP3    H144494   3.911   2.394  15.406 -1.7660  0.0903  0.2324
 7693TIP3    H244495   3.841   2.433  15.278  0.6703  1.2056 -0.8280
 7694TIP3   OH244496   1.433   2.686  15.650  0.0027  0.3042 -0.3130
 7694TIP3    H144497   1.463   2.707  15.562 -0.6305  1.0595 -0.3561
 7694TIP3    H244498   1.496   2.730  15.707 -0.8640  1.6729 -0.4018
 7695TIP3   OH244499   4.405   2.756  15.674  0.1183  0.2481  0.1000
 7695TIP3    H144500   4.473   2.824  15.671  0.9774 -0.6257 -1.1874
 7695TIP3    H244501   4.441   2.684  15.623 -1.8518 -0.1826 -0.7844
 7696TIP3   OH244502   0.693   3.852  13.845 -0.7792 -0.1975 -0.0512
 7696TIP3    H144503   0.759   3.920  13.834 -1.0062 -0.2740 -2.4736
 7696TIP3    H244504   0.742   3.774  13.872 -0.1296  0.2021 -0.0808
 7697TIP3   OH244505   5.930   4.499   4.383  0.0196  0.1817 -0.3264
 7697TIP3    H144506   6.021   4.472   4.371 -0.4763 -1.6733 -0.2373
 7697TIP3    H244507   5.934   4.565   4.452  1.1770 -0.9154  0.7309
 7698TIP3   OH244508   5.189   2.600  14.628  0.2240 -0.1585  0.0410
 7698TIP3    H144509   5.149   2.666  14.571 -0.0089  0.7196  1.1816
 7698TIP3    H244510   5.125   2.530  14.634 -0.0891  0.1120 -0.1284
 7699TIP3   OH244511   4.143   2.769  15.868 -0.0368 -0.3172 -0.0034
 7699TIP3    H144512   4.179   2.770  15.780 -1.7676 -0.2636 -0.7311
 7699TIP3    H244513   4.195   2.834  15.916  0.8834 -0.3195 -0.9693
 7700TIP3   OH244514   0.403   0.717  14.164 -0.5212  0.4077  0.0783
 7700TIP3    H144515   0.401   0.781  14.235  0.6563  0.0361  0.4668
 7700TIP3    H244516   0.496   0.706  14.145 -0.8055  0.2191 -1.2760
 7701TIP3   OH244517   3.052   3.662  16.240 -0.6378  0.4929  0.1262
 7701TIP3    H144518   2.968   3.685  16.280 -1.4897 -0.9353 -0.7550
 7701TIP3    H244519   3.029   3.603  16.168  0.9939  1.3652 -1.1931
 7702TIP3   OH244520   6.769   0.820   2.627 -1.1456 -0.7764  0.3581
 7702TIP3    H144521   6.814   0.859   2.552 -0.1547  1.0679  1.8308
 7702TIP3    H244522   6.839   0.776   2.676 -1.4779 -0.4895  1.0967
 7703TIP3   OH244523   4.440   5.788  13.893 -0.5279  0.0764  0.3112
 7703TIP3    H144524   4.466   5.868  13.848  0.3782 -0.4691 -0.1835
 7703TIP3    H244525   4.460   5.804  13.985  2.2905 -0.5282 -0.1113
 7704TIP3   OH244526   4.047   3.817   6.094 -0.5797  0.4831 -0.7433
 7704TIP3    H144527   4.041   3.776   6.008 -0.3573 -1.1872 -0.0029
 7704TIP3    H244528   3.991   3.763   6.150 -1.0044  1.7500  0.0995
 7705TIP3   OH244529   3.208   2.473  16.426  0.3345 -0.4771 -0.5482
 7705TIP3    H144530   3.149   2.402  16.452  0.3864 -0.4633 -0.3923
 7705TIP3    H244531   3.293   2.448  16.461 -0.1891  1.0266  2.0505
 7706TIP3   OH244532   4.268   5.541   3.729 -0.8622  0.0641 -0.1744
 7706TIP3    H144533   4.347   5.507   3.772 -1.2681 -0.2569  0.3279
 7706TIP3    H244534   4.200   5.478   3.751 -1.2618  0.3393 -0.6118
 7707TIP3   OH244535   0.039   3.225  16.219  0.3051 -0.4139  0.3206
 7707TIP3    H144536   0.118   3.203  16.169  1.6234 -1.3024  2.6265
 7707TIP3    H244537   0.053   3.316  16.246 -0.8607  0.4050 -1.5830
 7708TIP3   OH244538   1.710   5.050  15.272 -0.1591  0.1042  0.1425
 7708TIP3    H144539   1.631   5.057  15.325 -0.4797  0.2723 -0.3607
 7708TIP3    H244540   1.710   5.127  15.216 -0.3632 -0.5857 -0.8346
 7709TIP3   OH244541   3.365   1.517  17.006  0.4592 -0.3457 -0.0187
 7709TIP3    H144542   3.378   1.514  16.911 -0.5633 -1.1053 -0.1456
 7709TIP3    H244543   3.396   1.604  17.032  3.6586 -1.1815 -0.5708
 7710TIP3   OH244544   2.174   1.294  12.104 -0.3282 -0.0008 -0.2396
 7710TIP3    H144545   2.179   1.386  12.080 -2.0356  0.2281  0.2064
 7710TIP3    H244546   2.263   1.261  12.089  0.8760  2.1735  1.5654
 7711TIP3   OH244547   1.536   4.491  15.171  0.4409 -0.2180  0.2867
 7711TIP3    H144548   1.559   4.482  15.264  0.1929 -0.9940  0.2881
 7711TIP3    H244549   1.455   4.541  15.171  0.5389 -0.0568  0.4741
 7712TIP3   OH244550   3.810   0.756   1.811  0.5625  0.8151 -0.5578
 7712TIP3    H144551   3.870   0.769   1.738  1.1032  1.2270 -0.0433
 7712TIP3    H244552   3.864   0.764   1.889 -0.2048  1.4387 -0.0747
 7713TIP3   OH244553   0.064   5.088   5.546 -0.1000 -0.3961 -0.2297
 7713TIP3    H144554   0.032   5.178   5.535 -0.8115 -0.4578  1.0910
 7713TIP3    H244555   0.107   5.089   5.632  1.8795 -0.7873 -1.1618
 7714TIP3   OH244556   2.903   0.565  14.788 -0.2622 -0.4547  0.3404
 7714TIP3    H144557   2.867   0.515  14.714 -0.4454  1.0668 -0.6336
 7714TIP3    H244558   2.849   0.539  14.863 -1.2065 -0.7279 -0.4148
 7715TIP3   OH244559   0.669   0.830  12.869  0.3655  0.6773 -0.2306
 7715TIP3    H144560   0.690   0.749  12.915 -1.6172  0.8673  1.1411
 7715TIP3    H244561   0.751   0.879  12.869  1.3200 -0.8457 -0.0964
 7716TIP3   OH244562   4.591   1.025   1.719 -0.0137  0.3435 -0.2184
 7716TIP3    H144563   4.507   0.981   1.705 -0.4296  0.1512  2.3624
 7716TIP3    H244564   4.655   0.954   1.713 -0.2313  0.1708 -0.5220
 7717TIP3   OH244565   2.282   1.508  15.648 -0.1269 -0.4357  0.2745
 7717TIP3    H144566   2.282   1.550  15.562  1.4559 -2.5612 -0.8644
 7717TIP3    H244567   2.353   1.551  15.695 -0.3524  0.0777  0.1455
 7718TIP3   OH244568   3.408   4.927   3.286  0.3232 -0.0405  0.3690
 7718TIP3    H144569   3.417   4.921   3.381 -1.2052  0.1445  0.5382
 7718TIP3    H244570   3.341   4.994   3.271  0.2170 -0.3788 -0.8315
 7719TIP3   OH244571   5.411   4.503  15.031 -0.7267  0.0353 -0.0207
 7719TIP3    H144572   5.416   4.462  15.117  0.1571 -0.7668 -0.4331
 7719TIP3    H244573   5.417   4.430  14.969  0.0633  0.7127 -0.7641
 7720TIP3   OH244574   4.193   3.431  14.514 -0.3408 -0.0321  0.2766
 7720TIP3    H144575   4.180   3.417  14.421  0.0103  0.4932  0.1407
 7720TIP3    H244576   4.258   3.501  14.519 -1.9863  1.5197  0.8953
 7721TIP3   OH244577   3.217   1.948   3.280 -0.3394  0.3691  0.0193
 7721TIP3    H144578   3.228   2.042   3.291 -1.6293  0.8232 -2.1416
 7721TIP3    H244579   3.135   1.938   3.232  0.0811 -1.8375 -0.3678
 7722TIP3   OH244580   4.853   4.517  11.942  0.5010  0.5950  0.2379
 7722TIP3    H144581   4.812   4.432  11.961  1.8776  0.1729  1.5705
 7722TIP3    H244582   4.837   4.569  12.021 -0.0322  1.4798 -0.4377
 7723TIP3   OH244583   1.049   0.370   0.499 -0.7233  0.4502  0.2248
 7723TIP3    H144584   1.022   0.416   0.578 -2.4015  1.6424 -0.9997
 7723TIP3    H244585   1.090   0.437   0.445  0.0813 -0.2843 -0.1131
 7724TIP3   OH244586   2.581   5.662  14.090 -0.7622 -0.4373 -0.0183
 7724TIP3    H144587   2.583   5.717  14.011  0.1596 -1.0516 -0.4464
 7724TIP3    H244588   2.589   5.724  14.162  0.9228 -0.0140 -0.5146
 7725TIP3   OH244589   4.509   4.209   6.542 -0.1331  0.3729  0.2801
 7725TIP3    H144590   4.508   4.131   6.487 -1.0953  1.5371 -1.4377
 7725TIP3    H244591   4.442   4.193   6.609  0.9378 -0.9829  1.0955
 7726TIP3   OH244592   6.185   5.038   5.155 -0.2851  0.4640  0.5583
 7726TIP3    H144593   6.095   5.005   5.150  0.2856 -1.2078  0.6510
 7726TIP3    H244594   6.201   5.049   5.249 -1.2640  3.4360  0.4562
 7727TIP3   OH244595   6.389   0.760   1.700  0.1197  0.0148  0.1248
 7727TIP3    H144596   6.446   0.826   1.661 -0.0421 -0.0244 -0.1821
 7727TIP3    H244597   6.413   0.678   1.656 -0.2585  0.0212 -0.1039
 7728TIP3   OH244598   6.568   4.042   1.356 -0.1442 -0.1431 -0.1713
 7728TIP3    H144599   6.487   4.019   1.400  0.8934 -2.4394  0.7042
 7728TIP3    H244600   6.635   4.039   1.425  0.9202  0.2817 -1.1375
 7729TIP3   OH244601   5.684   4.471  13.411 -0.1233 -0.1417  0.2094
 7729TIP3    H144602   5.670   4.407  13.341 -0.6257 -0.3789  0.5204
 7729TIP3    H244603   5.654   4.426  13.490  0.8634 -0.0472  0.6495
 7730TIP3   OH244604   1.859   0.269  17.071  0.2266 -0.2578 -0.2851
 7730TIP3    H144605   1.928   0.335  17.079  0.6788 -0.4649 -2.0112
 7730TIP3    H244606   1.889   0.196  17.125  2.0765 -0.8702 -2.0069
 7731TIP3   OH244607   3.772   2.237  15.903  0.2300  0.0075 -0.1309
 7731TIP3    H144608   3.747   2.261  15.992 -0.3118 -1.2265  0.0692
 7731TIP3    H244609   3.690   2.229  15.856  0.4918  0.2163 -0.6306
 7732TIP3   OH244610   4.161   0.182   1.314  0.1724  0.3334  0.5299
 7732TIP3    H144611   4.171   0.114   1.248 -1.0670  0.0266  0.6357
 7732TIP3    H244612   4.235   0.241   1.299  0.5187 -0.3163 -0.4119
 7733TIP3   OH244613   4.105   2.333  15.857  0.5549 -0.3886 -0.1563
 7733TIP3    H144614   4.095   2.258  15.799  0.8996 -2.4375  2.2809
 7733TIP3    H244615   4.016   2.367  15.868  0.4344 -0.2170 -1.4917
 7734TIP3   OH244616   1.505   4.128  14.778  0.1945  0.6789  0.1627
 7734TIP3    H144617   1.504   4.180  14.859  0.1854 -0.7875  1.1418
 7734TIP3    H244618   1.598   4.121  14.755  0.2913  0.1807  0.6774
 7735TIP3   OH244619   1.966   2.620  13.760 -0.1713  0.1309 -0.0464
 7735TIP3    H144620   1.981   2.637  13.853 -0.5649  1.0814 -0.1394
 7735TIP3    H244621   2.052   2.596  13.726 -0.0103 -0.1629  0.5519
 7736TIP3   OH244622   0.295   4.002  16.319 -0.0047 -0.2747 -0.2449
 7736TIP3    H144623   0.304   3.920  16.367  1.7610  1.0208  1.8597
 7736TIP3    H244624   0.323   4.069  16.382  0.7050  1.7299 -2.5593
 7737TIP3   OH244625   3.650   3.797   1.748 -0.0411  0.9512  0.6064
 7737TIP3    H144626   3.561   3.765   1.768 -0.6298  2.1648  0.0248
 7737TIP3    H244627   3.636   3.883   1.708  1.3376  0.6382 -0.6428
 7738TIP3   OH244628   5.231   1.130   0.772  0.3648 -0.8428  0.5392
 7738TIP3    H144629   5.244   1.183   0.694 -0.9949 -0.6374  0.4430
 7738TIP3    H244630   5.320   1.104   0.798  0.8025 -1.3755 -1.3711
 7739TIP3   OH244631   1.970   4.396   4.341  0.2615  0.0903  0.8100
 7739TIP3    H144632   2.007   4.311   4.365 -0.4792 -0.9141 -1.3664
 7739TIP3    H244633   1.906   4.414   4.410 -1.1263 -2.2112  0.2309
 7740TIP3   OH244634   6.033   0.117   6.441  0.1489 -0.0552  0.4008
 7740TIP3    H144635   6.061   0.069   6.519 -0.8789  1.2127  1.5880
 7740TIP3    H244636   5.992   0.197   6.475  0.7034  1.0899 -1.4676
 7741TIP3   OH244637   4.746   2.296   2.283 -0.4456 -0.2025  0.7556
 7741TIP3    H144638   4.657   2.270   2.309 -1.0783 -0.0873 -1.1029
 7741TIP3    H244639   4.795   2.214   2.278 -1.2966 -0.6758 -1.0290
 7742TIP3   OH244640   1.955   4.958   1.695  0.2152 -0.3339  0.1506
 7742TIP3    H144641   1.981   4.878   1.741  0.7469  0.2320  0.8585
 7742TIP3    H244642   1.916   4.927   1.613 -0.8357 -1.3720  1.0108
 7743TIP3   OH244643   0.895   1.453  13.153  0.3622  0.5806  0.5640
 7743TIP3    H144644   0.981   1.491  13.174 -0.1401  1.0217  1.9278
 7743TIP3    H244645   0.862   1.421  13.237 -1.5007  1.8395  0.3657
 7744TIP3   OH244646   1.325   5.162  13.670 -0.0817  0.6365  0.2855
 7744TIP3    H144647   1.250   5.105  13.688  0.4767  0.0532  0.7725
 7744TIP3    H244648   1.382   5.152  13.747 -0.0595  1.9910  0.4766
 7745TIP3   OH244649   3.817   2.310  12.309  0.3723  0.3832  0.1713
 7745TIP3    H144650   3.805   2.387  12.364 -0.2044 -0.0747  0.7071
 7745TIP3    H244651   3.911   2.306  12.294  0.5238  0.6296  0.9718
 7746TIP3   OH244652   6.782   4.077   1.548  0.0249 -0.0997  0.1841
 7746TIP3    H144653   6.726   4.065   1.625  1.4503 -2.5148  0.9463
 7746TIP3    H244654   6.868   4.098   1.584  0.0662  1.8859 -0.9194
 7747TIP3   OH244655   5.199   6.047   4.251 -0.4638 -0.5518 -0.1674
 7747TIP3    H144656   5.116   6.086   4.279 -0.4100 -0.4662 -0.1271
 7747TIP3    H244657   5.266   6.109   4.281 -0.3932 -0.5531 -0.3180
 7748TIP3   OH244658   4.519   3.897  11.770 -0.7688 -0.2342  0.3244
 7748TIP3    H144659   4.569   3.930  11.696 -1.8942 -0.3866 -0.5358
 7748TIP3    H244660   4.583   3.853  11.825  0.5430  2.0684  0.7627
 7749TIP3   OH244661   3.660   1.502  12.126 -0.8146 -0.4585  0.0751
 7749TIP3    H144662   3.711   1.457  12.059 -1.0510  0.4761 -0.7623
 7749TIP3    H244663   3.592   1.549  12.077 -0.8344  0.4636  0.9424
 7750TIP3   OH244664   1.581   1.050   2.264 -1.1041 -0.1058  0.6301
 7750TIP3    H144665   1.556   1.075   2.353  0.9419 -0.3662  1.3365
 7750TIP3    H244666   1.657   0.993   2.275 -1.3943 -0.9453 -1.2545
 7751TIP3   OH244667   5.746   3.490  16.550  0.8244 -0.5590  0.3022
 7751TIP3    H144668   5.778   3.418  16.495 -0.8767 -1.6446  0.6435
 7751TIP3    H244669   5.701   3.549  16.489  1.5002 -0.2132  0.1352
 7752TIP3   OH244670   5.347   3.342   3.498  0.3967  1.0022 -0.0546
 7752TIP3    H144671   5.417   3.394   3.460  0.7220 -0.5527 -1.7344
 7752TIP3    H244672   5.363   3.253   3.466 -0.2188 -0.1419  2.5642
 7753TIP3   OH244673   5.247   1.613  12.965  0.0111 -0.2203 -0.6994
 7753TIP3    H144674   5.281   1.559  13.037  1.5462  0.9445 -0.5029
 7753TIP3    H244675   5.234   1.551  12.893  1.9232 -0.8486 -0.5535
 7754TIP3   OH244676   1.447   1.933   5.655  0.6432 -0.3063 -0.6083
 7754TIP3    H144677   1.500   2.013   5.652 -2.3021  1.8877  0.2159
 7754TIP3    H244678   1.447   1.907   5.747  1.3935 -1.1591 -0.8359
 7755TIP3   OH244679   5.757   1.922  13.255 -0.1092  0.1893  0.3965
 7755TIP3    H144680   5.775   1.829  13.268 -1.6710 -0.0581  0.9520
 7755TIP3    H244681   5.662   1.928  13.248 -0.1024  1.8482  1.1648
 7756TIP3   OH244682   0.687   6.648   4.336 -0.4865 -0.0451 -0.1079
 7756TIP3    H144683   0.663   6.672   4.247  2.5810  1.1207 -0.7480
 7756TIP3    H244684   0.713   6.556   4.330 -3.3794 -0.9994  0.3849
 7757TIP3   OH244685   3.974   0.390   0.036 -0.2167 -0.0883  0.1809
 7757TIP3    H144686   3.903   0.328   0.019  1.1529 -1.9866  1.0829
 7757TIP3    H244687   3.962   0.416   0.127  1.2216 -1.8737  0.9541
 7758TIP3   OH244688   0.675   3.835  14.829 -0.6316  0.0597 -0.1600
 7758TIP3    H144689   0.767   3.860  14.843 -0.6816  0.7131 -0.8932
 7758TIP3    H244690   0.657   3.863  14.739 -2.2315  2.0980  0.7214
 7759TIP3   OH244691   2.489   0.171  15.587 -0.0038 -0.3646 -0.4889
 7759TIP3    H144692   2.493   0.221  15.505 -0.8782 -0.5304 -0.6358
 7759TIP3    H244693   2.548   0.218  15.646 -2.3191  2.0986  0.0461
 7760TIP3   OH244694   3.620   3.191  15.608  0.1377  0.0666  0.0970
 7760TIP3    H144695   3.666   3.268  15.641 -0.0620 -0.5083  1.7934
 7760TIP3    H244696   3.572   3.223  15.532  1.1770  1.2815 -0.0876
 7761TIP3   OH244697   5.013   1.655   4.263 -0.1866 -0.2737 -0.1582
 7761TIP3    H144698   5.082   1.702   4.217  0.2690 -0.2360  0.5512
 7761TIP3    H244699   5.053   1.628   4.346 -1.3270  0.6971  0.7478
 7762TIP3   OH244700   5.588   3.153   1.252  0.5070  0.1878 -0.0947
 7762TIP3    H144701   5.569   3.070   1.294  0.1276  0.6161  0.5944
 7762TIP3    H244702   5.585   3.133   1.158 -0.8779 -0.3128  0.0225
 7763TIP3   OH244703   0.238   4.734   2.124  0.0524  0.3691 -0.1314
 7763TIP3    H144704   0.258   4.701   2.211  0.2380 -1.3930 -0.8006
 7763TIP3    H244705   0.170   4.676   2.091 -1.1150  1.9616 -0.5980
 7764TIP3   OH244706   4.914   0.585   0.238 -0.2567 -0.1551 -0.3246
 7764TIP3    H144707   4.999   0.543   0.222 -0.6596 -0.9251 -0.4801
 7764TIP3    H244708   4.915   0.604   0.332 -0.1461 -0.7058 -0.2055
 7765TIP3   OH244709   4.950   0.866  14.192  0.0250 -1.0603 -0.2125
 7765TIP3    H144710   4.967   0.810  14.268  1.6727 -1.4192 -0.7867
 7765TIP3    H244711   5.036   0.875  14.151 -0.2809  1.4911 -0.4311
 7766TIP3   OH244712   2.725   6.802   3.206  0.3531  0.4235 -0.2116
 7766TIP3    H144713   2.666   6.796   3.281 -2.0825  1.2663 -1.9099
 7766TIP3    H244714   2.735   6.896   3.191  0.3650  0.2673 -1.2414
 7767TIP3   OH244715   5.975   4.525   4.779 -0.3118 -0.4310  0.0156
 7767TIP3    H144716   5.923   4.558   4.706 -0.9912  0.5990  0.9305
 7767TIP3    H244717   5.928   4.554   4.857  0.5635 -1.2326  0.8771
 7768TIP3   OH244718   2.488   3.966   2.753  0.5766  0.0681  0.5149
 7768TIP3    H144719   2.509   3.877   2.726  0.4615 -0.6755  2.6763
 7768TIP3    H244720   2.441   3.956   2.836 -0.8642  2.0736  0.0325
 7769TIP3   OH244721   5.971   3.175   2.156  0.2933  0.2402 -0.1664
 7769TIP3    H144722   6.015   3.259   2.140  2.8751 -0.9712  0.0411
 7769TIP3    H244723   5.982   3.160   2.250 -0.6833 -0.0690 -0.0941
 7770TIP3   OH244724   1.007   1.229  16.212  0.2816  0.3661  0.4205
 7770TIP3    H144725   0.916   1.233  16.185  0.2785  0.1879  0.4026
 7770TIP3    H244726   1.041   1.317  16.196  0.1376  0.4077  0.3426
 7771TIP3   OH244727   3.340   1.581  11.256  0.2848 -0.3428 -0.1237
 7771TIP3    H144728   3.259   1.626  11.279 -0.3060 -1.0257 -0.8168
 7771TIP3    H244729   3.410   1.639  11.286 -0.4518 -0.0891  1.1419
 7772TIP3   OH244730   3.842   3.721   1.421 -0.1338  0.1961 -0.1558
 7772TIP3    H144731   3.798   3.638   1.407 -2.3887  1.5278 -1.6004
 7772TIP3    H244732   3.841   3.733   1.516 -2.0847 -0.3061 -0.0805
 7773TIP3   OH244733   2.532   6.619  13.241 -1.0013  0.3196  0.1895
 7773TIP3    H144734   2.457   6.613  13.299 -0.1296 -1.7425  1.1876
 7773TIP3    H244735   2.573   6.533  13.244 -0.5851  0.2503 -3.0792
 7774TIP3   OH244736   2.183   2.287   1.433 -0.0962 -0.0788  0.0338
 7774TIP3    H144737   2.131   2.236   1.372 -0.2515  0.7421 -0.5388
 7774TIP3    H244738   2.248   2.332   1.378 -0.9310  1.5177  0.3133
 7775TIP3   OH244739   2.975   3.584   0.242  0.4464 -0.2750  0.7368
 7775TIP3    H144740   2.921   3.543   0.175 -0.0116 -0.4281  1.1907
 7775TIP3    H244741   3.065   3.566   0.216  0.2960  0.3011 -0.2332
 7776TIP3   OH244742   2.206   2.824   2.294  0.2101 -0.1384 -0.1955
 7776TIP3    H144743   2.160   2.887   2.239  2.8785  2.6532  0.4785
 7776TIP3    H244744   2.251   2.878   2.360 -1.2137 -3.1233  3.6153
 7777TIP3   OH244745   6.132   0.441   4.826  0.0046  0.4062 -0.1804
 7777TIP3    H144746   6.063   0.384   4.861  0.5762  1.2179  2.4725
 7777TIP3    H244747   6.120   0.437   4.731 -2.4464 -0.9954  0.1019
 7778TIP3   OH244748   6.167   5.011  13.047 -0.1273 -0.2910 -0.2106
 7778TIP3    H144749   6.097   4.978  12.990 -0.0557  1.0806 -1.1386
 7778TIP3    H244750   6.241   5.026  12.988 -0.2575  1.7751  0.0652
 7779TIP3   OH244751   1.295   0.886   5.363 -0.2224 -0.1948  1.0550
 7779TIP3    H144752   1.267   0.929   5.443  0.8243 -0.4630  1.5814
 7779TIP3    H244753   1.371   0.936   5.334  3.0381 -3.3096  3.3755
 7780TIP3   OH244754   4.941   6.789   4.479  0.4252 -0.1959  0.1773
 7780TIP3    H144755   5.025   6.793   4.524  0.7491 -0.1730 -0.4230
 7780TIP3    H244756   4.918   6.697   4.479  1.4536 -0.4987 -1.4554
 7781TIP3   OH244757   5.447   1.825  14.593  0.1335 -0.3213 -0.4663
 7781TIP3    H144758   5.503   1.765  14.642 -1.2654 -0.0956  1.5061
 7781TIP3    H244759   5.488   1.911  14.605 -0.9610 -0.0337  1.6202
 7782TIP3   OH244760   3.382   0.924   0.794  0.3845 -0.4385 -0.2730
 7782TIP3    H144761   3.293   0.960   0.790  0.4534  0.1577  2.0783
 7782TIP3    H244762   3.432   0.990   0.842  1.2052 -2.3560  1.6784
 7783TIP3   OH244763   6.490   2.661   2.138  0.0604  0.2975 -0.2319
 7783TIP3    H144764   6.414   2.665   2.080 -0.9414 -2.4233  0.7149
 7783TIP3    H244765   6.527   2.749   2.136 -0.1624  0.4805 -4.5880
 7784TIP3   OH244766   5.409   6.096   2.155  0.0493  0.1746  0.0365
 7784TIP3    H144767   5.437   6.067   2.068  3.9634  0.7809  0.8977
 7784TIP3    H244768   5.392   6.015   2.204 -2.2545 -0.1713 -1.1725
 7785TIP3   OH244769   6.358   2.967   3.995 -0.2215 -0.0924  0.5807
 7785TIP3    H144770   6.286   3.022   4.026 -1.5755 -0.6606 -1.3703
 7785TIP3    H244771   6.437   3.011   4.027 -1.3961  0.6198  2.6765
 7786TIP3   OH244772   2.583   4.549   3.557 -0.7481  0.8510 -0.4340
 7786TIP3    H144773   2.658   4.506   3.515 -0.7185  0.0010  0.4412
 7786TIP3    H244774   2.518   4.557   3.488 -1.3133 -1.9742 -0.3380
 7787TIP3   OH244775   1.188   2.417  14.251 -0.4503  0.5151  0.1486
 7787TIP3    H144776   1.177   2.438  14.158 -1.0581  0.0757  0.1056
 7787TIP3    H244777   1.098   2.400  14.282 -0.1887  0.0120  0.6511
 7788TIP3   OH244778   1.015   4.290  16.160  0.1439  0.0401  0.0417
 7788TIP3    H144779   0.956   4.366  16.155  0.3070  0.2630  1.2357
 7788TIP3    H244780   1.031   4.267  16.069 -1.7892 -0.0201 -0.3332
 7789TIP3   OH244781   6.514   4.228  13.652 -0.3957 -0.1271  0.0720
 7789TIP3    H144782   6.508   4.178  13.571 -0.1086  0.0843 -0.0839
 7789TIP3    H244783   6.438   4.201  13.703 -0.5634 -0.2815 -0.2567
 7790TIP3   OH244784   4.682   1.195  15.570 -0.4711 -0.0722 -0.6075
 7790TIP3    H144785   4.633   1.241  15.638 -0.1269  0.9906 -1.0710
 7790TIP3    H244786   4.764   1.243  15.563  0.9955 -2.2336  0.6571
 7791TIP3   OH244787   0.895   4.172  13.608 -0.1341 -0.0282 -0.0339
 7791TIP3    H144788   0.840   4.153  13.532 -0.1216  3.1437 -0.9888
 7791TIP3    H244789   0.860   4.255  13.642  0.7492 -0.6490  2.6166
 7792TIP3   OH244790   0.287   1.842  15.032 -0.0070 -0.1544 -0.1251
 7792TIP3    H144791   0.348   1.836  15.106  0.2881 -0.4080 -0.3852
 7792TIP3    H244792   0.344   1.854  14.955 -0.3412  0.9159 -0.2205
 7793TIP3   OH244793   4.373   6.662   4.207  0.1695  0.1185  0.1319
 7793TIP3    H144794   4.407   6.610   4.280 -0.1943  0.3115  0.4393
 7793TIP3    H244795   4.317   6.727   4.248  0.3014  0.4995 -0.2880
 7794TIP3   OH244796   1.964   3.435   4.328 -0.3770 -0.0488 -0.2959
 7794TIP3    H144797   1.911   3.514   4.323 -0.5054 -0.1851 -1.2727
 7794TIP3    H244798   1.901   3.365   4.343 -0.3504 -0.0648 -0.2600
 7795TIP3   OH244799   6.081   0.106   3.727 -0.1477 -0.6331  0.4400
 7795TIP3    H144800   6.116   0.053   3.656 -1.0875 -2.4256  1.2641
 7795TIP3    H244801   5.990   0.078   3.736 -0.9372  1.6824  0.4164
 7796TIP3   OH244802   6.664   4.523   4.796  0.1560 -0.1913 -0.3135
 7796TIP3    H144803   6.710   4.607   4.793 -0.8643  0.4586  1.0231
 7796TIP3    H244804   6.655   4.504   4.889  1.0530 -2.2063 -0.5944
 7797TIP3   OH244805   6.740   0.152  11.402  0.4930  0.8628 -0.0916
 7797TIP3    H144806   6.796   0.089  11.356  0.7436  1.8589 -1.2075
 7797TIP3    H244807   6.801   0.219  11.434  0.0620  1.3468 -0.2788
 7798TIP3   OH244808   5.932   0.880   6.570 -0.0813 -0.4577 -0.2555
 7798TIP3    H144809   5.921   0.974   6.558 -0.9771 -0.6528 -1.0286
 7798TIP3    H244810   5.853   0.852   6.617 -0.4569 -1.0310 -1.2057
 7799TIP3   OH244811   5.098   4.639   1.199 -0.1315 -0.1801 -0.0357
 7799TIP3    H144812   5.019   4.626   1.145  1.3423 -2.2517 -1.8486
 7799TIP3    H244813   5.165   4.666   1.136  0.5443  2.1553  1.5633
 7800TIP3   OH244814   5.849   1.955  14.537  0.1350  0.0436 -0.2266
 7800TIP3    H144815   5.839   1.866  14.503 -0.0461 -0.6776  1.5760
 7800TIP3    H244816   5.932   1.985  14.502 -0.4698 -0.2679 -2.0141
 7801TIP3   OH244817   3.109   3.419   5.822  0.1319 -0.0305  0.4007
 7801TIP3    H144818   3.201   3.420   5.795  0.3551  0.4834  1.1415
 7801TIP3    H244819   3.103   3.488   5.888 -1.4650  2.0499 -1.7457
 7802TIP3   OH244820   2.421   4.000  11.500 -0.1678  0.4525 -0.0563
 7802TIP3    H144821   2.377   4.029  11.580 -4.3132 -1.1658 -1.4457
 7802TIP3    H244822   2.488   3.939  11.531  0.1622  1.8474  2.2261
 7803TIP3   OH244823   3.885   3.226   4.150 -0.0775 -0.3390  0.0246
 7803TIP3    H144824   3.853   3.169   4.219 -1.1059 -0.5966 -0.6448
 7803TIP3    H244825   3.826   3.210   4.076  0.9707 -0.0583 -0.9068
 7804TIP3   OH244826   6.096   5.739   0.437 -0.3682  0.1455  0.0034
 7804TIP3    H144827   6.179   5.751   0.481 -0.2107  4.5187 -0.9698
 7804TIP3    H244828   6.118   5.697   0.354  1.3063  2.6388 -0.9451
 7805TIP3   OH244829   3.714   4.686   0.335 -0.1410 -0.5173  0.2941
 7805TIP3    H144830   3.678   4.637   0.409 -0.5519 -1.2319 -0.3545
 7805TIP3    H244831   3.797   4.643   0.315 -0.6856 -1.2416 -0.5243
 7806TIP3   OH244832   4.187   0.379  15.514 -0.6042 -0.3589 -0.2092
 7806TIP3    H144833   4.174   0.311  15.449  1.4822 -1.6583  0.6548
 7806TIP3    H244834   4.180   0.334  15.598 -0.0618  0.6615  0.4070
 7807TIP3   OH244835   0.192   4.383   5.042  0.1973  0.2739 -0.4563
 7807TIP3    H144836   0.267   4.325   5.060  1.3006  1.4361 -1.1511
 7807TIP3    H244837   0.173   4.423   5.127  0.0264 -0.3938 -0.1702
 7808TIP3   OH244838   2.522   4.262   5.510  0.6567  0.2893  0.1553
 7808TIP3    H144839   2.453   4.235   5.570 -0.8366  0.9932 -1.1569
 7808TIP3    H244840   2.509   4.357   5.500  0.9988  0.2272 -1.0661
 7809TIP3   OH244841   6.646   3.044   5.707  0.1196  0.4715 -0.3860
 7809TIP3    H144842   6.585   2.980   5.670 -1.5257  1.6908  0.1089
 7809TIP3    H244843   6.713   2.991   5.749 -1.3526 -0.9502  0.2817
 7810TIP3   OH244844   0.536   2.442  11.739  0.8417  0.1240  0.1241
 7810TIP3    H144845   0.534   2.502  11.664 -1.5229 -0.1691 -0.1163
 7810TIP3    H244846   0.520   2.499  11.814  2.0472  0.2429  0.3174
 7811TIP3   OH244847   3.331   1.937   3.661  0.5721 -0.3987  0.1312
 7811TIP3    H144848   3.316   1.953   3.754  1.4511 -0.1029  0.2347
 7811TIP3    H244849   3.250   1.897   3.630 -0.2055  0.6403  0.7475
 7812TIP3   OH244850   0.563   3.615   2.963  0.1744  0.0154  0.1245
 7812TIP3    H144851   0.598   3.629   2.875 -0.9531  0.8581 -0.2077
 7812TIP3    H244852   0.528   3.700   2.989 -0.1095 -0.3956  1.1147
 7813TIP3   OH244853   3.080   1.864  13.834  0.1064 -0.3742 -0.1574
 7813TIP3    H144854   3.143   1.801  13.799  0.3637  0.2622 -0.8652
 7813TIP3    H244855   3.014   1.873  13.766  1.0374  1.4873 -0.8977
 7814TIP3   OH244856   1.938   0.610  12.233  0.4590  0.0951  0.2627
 7814TIP3    H144857   2.024   0.646  12.213 -0.0167  1.1859  0.0860
 7814TIP3    H244858   1.895   0.602  12.148  0.0217  0.5199  0.4410
 7815TIP3   OH244859   5.663   3.267   5.062 -0.1872 -0.8286  0.6035
 7815TIP3    H144860   5.621   3.242   4.979 -0.2533 -2.0115  0.9651
 7815TIP3    H244861   5.631   3.355   5.079  0.3012 -0.3175 -0.9248
 7816TIP3   OH244862   0.565   1.319   3.236  0.4334  0.2822 -0.1481
 7816TIP3    H144863   0.489   1.313   3.294  1.9066 -0.5241  1.8238
 7816TIP3    H244864   0.532   1.294   3.150 -1.9954  2.1296  0.1319
 7817TIP3   OH244865   2.200   4.719  12.014 -0.3399 -0.2576  0.1119
 7817TIP3    H144866   2.173   4.656  11.946  2.3573 -0.9971 -0.3927
 7817TIP3    H244867   2.230   4.664  12.086  0.9795  0.4418  0.1162
 7818TIP3   OH244868   3.068   6.756  11.685 -0.4734  0.3563 -0.5946
 7818TIP3    H144869   3.024   6.780  11.767 -1.1250 -0.1985 -0.7699
 7818TIP3    H244870   3.132   6.825  11.671  1.4241 -0.8130  1.6763
 7819TIP3   OH244871   0.045   6.791   5.415  0.1382  0.5586 -0.0545
 7819TIP3    H144872   0.015   6.882   5.419 -0.4650  0.4289 -1.2296
 7819TIP3    H244873   0.009   6.750   5.493 -0.0752  1.1824  0.1788
 7820TIP3   OH244874   0.877   0.075   5.664  0.0664  0.7392  0.1107
 7820TIP3    H144875   0.831  -0.004   5.635  0.6891  0.7039 -0.8027
 7820TIP3    H244876   0.809   0.126   5.708 -0.3261 -0.3315  0.7889
 7821TIP3   OH244877   6.669   3.593   1.517 -0.4632 -0.7199  0.3666
 7821TIP3    H144878   6.590   3.625   1.561 -1.6853  0.0494 -2.2080
 7821TIP3    H244879   6.729   3.667   1.517 -1.3690  0.0498 -1.2366
 7822TIP3   OH244880   5.452   4.260  12.065 -0.2330  0.0377 -0.0251
 7822TIP3    H144881   5.415   4.282  12.150 -0.7187 -0.4481 -0.1066
 7822TIP3    H244882   5.381   4.218  12.018  0.0352  0.3035 -0.6768
 7823TIP3   OH244883   4.006   6.134  14.376 -0.3977 -0.4005 -0.0018
 7823TIP3    H144884   4.016   6.040  14.361  0.3989 -0.2182 -0.6668
 7823TIP3    H244885   4.020   6.174  14.291 -0.9865  0.3197  0.2233
 7824TIP3   OH244886   6.324   6.771   5.997 -0.6366  0.5802 -0.1219
 7824TIP3    H144887   6.355   6.726   6.076  1.0047  2.0717  0.1465
 7824TIP3    H244888   6.263   6.710   5.957 -2.0184 -0.0029  2.6277
 7825TIP3   OH244889   6.050   4.894  12.334 -0.4631 -0.1873  0.0730
 7825TIP3    H144890   6.045   4.800  12.316  0.0026 -0.0770 -0.6552
 7825TIP3    H244891   6.132   4.906  12.381  0.0860  0.0036 -0.8935
 7826TIP3   OH244892   1.407   2.755  13.519  0.2369 -0.6451 -0.0532
 7826TIP3    H144893   1.467   2.683  13.501  1.0760  0.0311 -0.0436
 7826TIP3    H244894   1.450   2.832  13.480  0.1866  0.1445  1.3842
 7827TIP3   OH244895   6.478   3.733   5.142 -0.0234  0.9494  0.0531
 7827TIP3    H144896   6.428   3.696   5.070 -1.0649  1.2729  0.5824
 7827TIP3    H244897   6.415   3.741   5.214  1.3336 -0.8767  1.5606
 7828TIP3   OH244898   0.083   3.751  15.964 -0.2412 -0.2759  0.3050
 7828TIP3    H144899   0.055   3.679  15.907  0.4575  0.9043 -1.6169
 7828TIP3    H244900   0.149   3.798  15.913 -1.8042  2.7003  0.7793
 7829TIP3   OH244901   4.035   1.535   3.356  0.5660 -0.4436  0.4019
 7829TIP3    H144902   4.094   1.540   3.431  0.5861  2.1686  0.3047
 7829TIP3    H244903   4.066   1.603   3.296 -0.2438 -1.5953 -1.3945
 7830TIP3   OH244904   5.174   1.743   3.604  0.4313 -0.2088  0.3119
 7830TIP3    H144905   5.200   1.785   3.686 -1.3737 -0.6147  1.1549
 7830TIP3    H244906   5.095   1.790   3.577  1.3241  0.3082 -1.5527
 7831TIP3   OH244907   6.585   2.967   0.559  0.0420  0.0943 -0.2366
 7831TIP3    H144908   6.535   2.889   0.584  0.2396 -0.3332 -1.1470
 7831TIP3    H244909   6.528   3.013   0.497  0.1814  0.3584 -0.1701
 7832TIP3   OH244910   1.228   3.115   0.473  0.4869  0.3573 -0.0632
 7832TIP3    H144911   1.251   3.203   0.443  1.7843  0.0217 -0.1305
 7832TIP3    H244912   1.174   3.130   0.551  0.4205  1.2165 -0.2658
 7833TIP3   OH244913   4.322   5.005   0.426  0.5571 -0.1776 -0.4004
 7833TIP3    H144914   4.326   5.035   0.335  0.6128 -0.4988 -0.5070
 7833TIP3    H244915   4.243   4.952   0.430  0.9752 -0.8156 -0.4675
 7834TIP3   OH244916   2.226   2.509  13.044  0.1245  0.2721 -0.3912
 7834TIP3    H144917   2.306   2.462  13.020  0.2661 -1.3033  2.7377
 7834TIP3    H244918   2.256   2.584  13.095 -0.3090  1.9822 -2.4728
 7835TIP3   OH244919   0.851   0.222  16.863  0.1978  0.1577 -0.6889
 7835TIP3    H144920   0.810   0.159  16.922  0.7912  0.7131  0.3637
 7835TIP3    H244921   0.872   0.172  16.785  2.8220 -1.6298  0.9802
 7836TIP3   OH244922   4.838   2.175   3.029 -0.1071 -0.3548  0.5670
 7836TIP3    H144923   4.848   2.081   3.019 -2.9359 -0.5432 -1.3701
 7836TIP3    H244924   4.767   2.186   3.092  0.1018  0.4862  0.6763
 7837TIP3   OH244925   3.628   3.628  16.740 -0.0960  0.3068  0.1348
 7837TIP3    H144926   3.669   3.605  16.657  1.8770  0.1778  1.0838
 7837TIP3    H244927   3.671   3.710  16.766 -0.0590 -0.0856  1.4110
 7838TIP3   OH244928   5.749   6.678   5.379  0.6381 -0.3538 -0.7658
 7838TIP3    H144929   5.796   6.669   5.462 -0.0126 -0.0044 -0.3466
 7838TIP3    H244930   5.680   6.612   5.384 -1.7270  1.9860  0.6318
 7839TIP3   OH244931   2.215   0.701  11.912  0.9852  0.1034  0.0162
 7839TIP3    H144932   2.295   0.666  11.875  0.7228  0.8317 -1.3418
 7839TIP3    H244933   2.194   0.777  11.856 -2.0072 -1.5373 -1.3772
 7840TIP3   OH244934   2.104   0.932   5.807  0.1053  0.4718 -0.3264
 7840TIP3    H144935   2.164   0.973   5.744  0.4390 -0.1894 -0.4495
 7840TIP3    H244936   2.111   0.838   5.788  0.5556  0.2261  0.9968
 7841TIP3   OH244937   4.244   5.885   2.853 -0.2531 -0.0894 -0.6587
 7841TIP3    H144938   4.149   5.870   2.855 -0.4353  1.0289  1.7014
 7841TIP3    H244939   4.257   5.967   2.900  1.8807 -0.0353 -1.2297
 7842TIP3   OH244940   0.856   4.515  10.776 -0.2920 -0.9311 -0.0219
 7842TIP3    H144941   0.771   4.507  10.732 -0.3335  2.1381 -0.7372
 7842TIP3    H244942   0.912   4.450  10.734 -1.3645 -0.6216 -2.0253
 7843TIP3   OH244943   0.785   6.187  15.952  0.1556 -0.2256  0.1066
 7843TIP3    H144944   0.754   6.108  15.907  1.9789 -0.7901 -0.2296
 7843TIP3    H244945   0.860   6.217  15.900  0.0260  1.2487  0.7124
 7844TIP3   OH244946   1.750   0.372  12.223 -0.5339  0.1828 -0.1554
 7844TIP3    H144947   1.714   0.326  12.299  0.3537  0.9878  0.7886
 7844TIP3    H244948   1.805   0.440  12.261  2.2526 -1.1651 -1.4838
 7845TIP3   OH244949   2.316   3.671   5.430  0.4057  0.5880  0.2747
 7845TIP3    H144950   2.290   3.664   5.338 -0.2367 -0.9842  0.5400
 7845TIP3    H244951   2.409   3.693   5.427  0.6715 -0.5632 -0.7684
 7846TIP3   OH244952   4.569   3.218  14.043  0.1143 -0.0520 -0.5351
 7846TIP3    H144953   4.484   3.257  14.023 -0.5985 -1.2770  0.0261
 7846TIP3    H244954   4.631   3.270  13.991 -1.0057  0.5987 -1.2820
 7847TIP3   OH244955   6.044   0.930  12.979 -0.1373  0.9017 -0.2478
 7847TIP3    H144956   6.053   0.967  13.067  0.7194  0.1789 -0.0187
 7847TIP3    H244957   5.953   0.946  12.955 -1.4605 -2.0875  2.2371
 7848TIP3   OH244958   6.222   3.528  15.238 -0.2594  0.5156 -0.1462
 7848TIP3    H144959   6.279   3.603  15.258  2.2950 -1.6281  1.3209
 7848TIP3    H244960   6.278   3.468  15.189 -2.0452 -0.7198 -0.7679
 7849TIP3   OH244961   1.451   6.548   4.947 -0.4855  0.4627  0.4188
 7849TIP3    H144962   1.522   6.486   4.935 -2.2840 -1.7283  0.5110
 7849TIP3    H244963   1.480   6.606   5.018  1.8708  0.7765 -0.7056
 7850TIP3   OH244964   2.911   5.697  14.066 -0.0351 -0.0391  0.3913
 7850TIP3    H144965   2.879   5.691  14.157 -1.2604 -1.2192 -0.0748
 7850TIP3    H244966   2.872   5.621  14.023  1.0529  0.1568 -0.9818
 7851TIP3   OH244967   1.379   1.494   1.592  0.4831 -0.5593  0.1505
 7851TIP3    H144968   1.297   1.540   1.573  0.4949  0.3081  1.9674
 7851TIP3    H244969   1.448   1.558   1.573  0.6690 -0.8451 -0.1431
 7852TIP3   OH244970   5.066   6.338   4.479 -0.0871  0.2333 -0.1059
 7852TIP3    H144971   5.045   6.250   4.510 -1.6939  0.5346 -0.2342
 7852TIP3    H244972   5.072   6.329   4.384  0.6826  0.0842 -0.0413
 7853TIP3   OH244973   6.353   1.823   6.415  0.4316 -0.1743  0.1300
 7853TIP3    H144974   6.332   1.907   6.456 -0.7260 -0.0887 -0.6056
 7853TIP3    H244975   6.310   1.758   6.470  1.1226 -0.2765  0.5595
 7854TIP3   OH244976   3.726   1.538   4.214 -0.3232  0.4524 -0.2015
 7854TIP3    H144977   3.687   1.607   4.267  1.2997  0.6093  0.8646
 7854TIP3    H244978   3.681   1.458   4.242  1.2483  0.3530  2.3529
 7855TIP3   OH244979   4.797   6.443   1.355  0.1116  0.3793 -0.1498
 7855TIP3    H144980   4.733   6.411   1.418 -0.8106 -0.3464 -1.4019
 7855TIP3    H244981   4.878   6.453   1.405 -0.9920  1.5108  1.5353
 7856TIP3   OH244982   0.700   5.756  11.526 -0.5013 -0.1111  0.5176
 7856TIP3    H144983   0.790   5.743  11.495 -0.6103  0.2780  0.0411
 7856TIP3    H244984   0.703   5.727  11.618  0.3024  0.6240  0.7408
 7857TIP3   OH244985   0.579   2.071   2.702 -0.0431  0.0453  0.5979
 7857TIP3    H144986   0.501   2.085   2.649  1.2595  0.2622 -1.3991
 7857TIP3    H244987   0.575   2.138   2.770 -1.1803  0.5662  0.0401
 7858TIP3   OH244988   4.802   3.650  15.910 -0.1705 -0.6350  0.0601
 7858TIP3    H144989   4.741   3.579  15.890  0.5506 -1.1642 -0.2893
 7858TIP3    H244990   4.888   3.608  15.915  0.1428  0.0618  0.7776
 7859TIP3   OH244991   2.151   3.295   0.231 -0.2658 -0.1721  0.0638
 7859TIP3    H144992   2.083   3.236   0.196 -1.3342  0.3707  1.1447
 7859TIP3    H244993   2.163   3.267   0.322  0.2578  0.3584  0.1634
 7860TIP3   OH244994   6.647   0.780   5.808 -0.3441  0.0648 -0.4529
 7860TIP3    H144995   6.622   0.820   5.891 -0.2799  1.1694 -0.9463
 7860TIP3    H244996   6.737   0.808   5.794 -0.2070 -0.4787 -0.6876
 7861TIP3   OH244997   0.835   2.038  13.880 -0.1796 -0.0628 -0.4572
 7861TIP3    H144998   0.803   1.976  13.814 -0.8298  0.1107 -0.3149
 7861TIP3    H244999   0.788   2.119  13.861  0.2220  0.2147 -0.2706
 7862TIP3   OH245000   6.274   0.804  14.549  0.0333 -0.8475  0.2665
 7862TIP3    H145001   6.344   0.748  14.515 -0.6209 -0.2504 -2.2971
 7862TIP3    H245002   6.320   0.885  14.575  0.8492 -2.0894  3.1577
 7863TIP3   OH245003   5.267   0.922   6.385 -0.1143  0.5075  0.0134
 7863TIP3    H145004   5.309   0.854   6.437  0.8668  0.2807 -1.0464
 7863TIP3    H245005   5.202   0.960   6.444  0.8946  0.2042  1.3721
 7864TIP3   OH245006   4.744   6.277  13.137 -1.1893 -0.2181  0.3963
 7864TIP3    H145007   4.651   6.253  13.144 -1.1095 -0.4049  0.8933
 7864TIP3    H245008   4.782   6.207  13.083 -1.1717 -0.6247  0.9237
 7865TIP3   OH245009   5.249   3.533  13.507  0.5208  0.2361 -0.7898
 7865TIP3    H145010   5.217   3.585  13.433 -0.8656  0.8224  0.1646
 7865TIP3    H245011   5.304   3.594  13.557 -1.0230  0.8257  0.2741
 7866TIP3   OH245012   2.256   4.895   2.150 -0.5348 -0.0158  0.3306
 7866TIP3    H145013   2.272   4.929   2.062 -3.6225 -0.8853 -0.6796
 7866TIP3    H245014   2.250   4.973   2.205  2.0469  0.5157 -0.0212
 7867TIP3   OH245015   6.488   5.775  11.869  0.2836  0.6380  0.0577
 7867TIP3    H145016   6.565   5.831  11.879  2.1941 -1.7635 -0.5200
 7867TIP3    H245017   6.473   5.771  11.775  1.2476 -1.1287 -0.0568
 7868TIP3   OH245018   3.382   1.752   3.188  0.1159 -0.4010  0.2094
 7868TIP3    H145019   3.309   1.811   3.204  0.4278 -0.5289  2.2902
 7868TIP3    H245020   3.347   1.688   3.125 -0.8725  0.7523 -0.4478
 7869TIP3   OH245021   2.481   4.144  11.922  0.1159  0.5287  0.4366
 7869TIP3    H145022   2.491   4.059  11.965  0.4128  0.1274 -0.3921
 7869TIP3    H245023   2.516   4.207  11.984  0.6044 -0.0357  0.7499
 7870TIP3   OH245024   4.614   0.847   0.212  0.6169  0.6639 -0.3641
 7870TIP3    H145025   4.683   0.802   0.164  2.0887  1.3530  1.0411
 7870TIP3    H245026   4.581   0.913   0.151  0.5228 -0.2680 -1.3625
 7871TIP3   OH245027   3.267   6.085  13.059 -0.2415 -0.8186  0.2950
 7871TIP3    H145028   3.232   6.070  13.146 -1.7813 -1.0593 -0.3278
 7871TIP3    H245029   3.193   6.071  13.000 -0.5005  3.7133 -0.8160
 7872TIP3   OH245030   4.853   1.440  14.848  0.0015  0.4609 -0.2910
 7872TIP3    H145031   4.841   1.523  14.893 -0.9091 -0.4530  1.2307
 7872TIP3    H245032   4.765   1.413  14.822  0.4854  0.9186 -2.6292
 7873TIP3   OH245033   6.325   0.947  11.854  0.2261  0.2846 -0.0718
 7873TIP3    H145034   6.304   1.029  11.810  3.0182  0.2047 -1.7383
 7873TIP3    H245035   6.376   0.973  11.931  1.6657  0.1200 -0.9511
 7874TIP3   OH245036   5.042   3.501  15.874 -0.2372 -0.5187  0.3737
 7874TIP3    H145037   5.132   3.532  15.885 -0.0585 -0.3918 -1.2087
 7874TIP3    H245038   5.048   3.433  15.806 -1.5081  0.5094 -0.8271
 7875TIP3   OH245039   3.440   5.480  16.338 -0.1031 -0.0101 -0.1557
 7875TIP3    H145040   3.508   5.439  16.393 -0.6340 -1.8349 -0.7956
 7875TIP3    H245041   3.402   5.548  16.394  0.9956 -0.1915  0.8609
 7876TIP3   OH245042   5.683   6.417  16.342 -0.6863 -0.5600 -0.4253
 7876TIP3    H145043   5.628   6.456  16.410 -0.0855 -0.5624  0.0736
 7876TIP3    H245044   5.751   6.483  16.325 -1.1918 -0.2873 -1.4920
 7877TIP3   OH245045   2.298   0.432  13.481  0.0320 -0.2849  0.6982
 7877TIP3    H145046   2.313   0.521  13.449 -1.0696 -1.0254 -2.1854
 7877TIP3    H245047   2.385   0.393  13.486  0.3824  0.4474  0.3854
 7878TIP3   OH245048   6.010   4.080  16.344 -0.5649 -0.7343  0.0298
 7878TIP3    H145049   6.090   4.102  16.391  0.4221  0.3528 -2.0572
 7878TIP3    H245050   5.950   4.151  16.365 -0.4464 -0.7122  0.3073
 7879TIP3   OH245051   4.166   2.210  16.520 -0.2137  0.0489  0.3018
 7879TIP3    H145052   4.118   2.232  16.599 -0.1759 -0.8417  0.5769
 7879TIP3    H245053   4.105   2.229  16.449  0.4963  2.9996  0.3550
 7880TIP3   OH245054   3.678   0.411  15.884 -0.2853 -0.2007  0.0731
 7880TIP3    H145055   3.732   0.421  15.806  0.7061  0.7085  0.8498
 7880TIP3    H245056   3.734   0.364  15.946 -0.8787 -0.4712  0.4127
 7881TIP3   OH245057   6.389   0.205  10.569 -0.0874  0.4516 -0.1479
 7881TIP3    H145058   6.417   0.285  10.523 -0.1408  1.2882  1.2331
 7881TIP3    H245059   6.469   0.169  10.606 -0.0848 -0.0710 -0.6542
 7882TIP3   OH245060   1.367   4.752   2.273  0.0419  0.0740 -0.0209
 7882TIP3    H145061   1.381   4.659   2.290  0.1540  0.4182  2.1625
 7882TIP3    H245062   1.309   4.780   2.344  0.9778  1.9104  0.0816
 7883TIP3   OH245063   4.389   6.742   2.038  0.5403  0.3909  0.5889
 7883TIP3    H145064   4.446   6.728   1.962 -1.4380 -1.1518 -0.7253
 7883TIP3    H245065   4.346   6.826   2.020 -0.0983 -0.0787 -0.1833
 7884TIP3   OH245066   0.600   4.205   3.514 -0.3840 -0.3551 -0.2231
 7884TIP3    H145067   0.646   4.288   3.500  1.7982 -1.1885  1.3623
 7884TIP3    H245068   0.666   4.147   3.552 -2.4243 -2.1414  0.8501
 7885TIP3   OH245069   3.947   1.526   3.649 -0.1845 -0.2065 -0.2368
 7885TIP3    H145070   3.936   1.608   3.601  0.9665 -1.3317 -2.6045
 7885TIP3    H245071   4.042   1.517   3.660 -0.4008  0.1357  2.6431
 7886TIP3   OH245072   5.259   1.332  14.894 -0.0090  0.4345  0.0084
 7886TIP3    H145073   5.353   1.348  14.890  0.0698  0.8396  2.2945
 7886TIP3    H245074   5.227   1.393  14.961 -1.9315  0.3867 -0.8027
 7887TIP3   OH245075   4.185   6.340  11.250 -0.3374  0.1867  0.4412
 7887TIP3    H145076   4.119   6.313  11.186 -0.8741  1.7627  0.3058
 7887TIP3    H245077   4.248   6.390  11.199  0.2134 -0.0980  0.8355
 7888TIP3   OH245078   5.790   6.469   1.713 -0.0516 -0.6921 -0.5435
 7888TIP3    H145079   5.865   6.523   1.689 -0.0422 -0.6076 -0.3323
 7888TIP3    H245080   5.806   6.384   1.671 -0.4399 -0.2993 -1.4953
 7889TIP3   OH245081   6.485   1.306  11.728  0.2349 -0.7394 -0.0471
 7889TIP3    H145082   6.394   1.282  11.747  0.1641  0.3582  1.1429
 7889TIP3    H245083   6.536   1.258  11.792  0.1391  1.6146  1.9317
 7890TIP3   OH245084   0.306   1.338   0.483 -0.0707 -0.0198 -0.8193
 7890TIP3    H145085   0.352   1.257   0.462  0.5411 -0.2825  1.2647
 7890TIP3    H245086   0.312   1.345   0.579 -1.4434  1.7012 -0.8041
 7891TIP3   OH245087   0.703   5.799   5.457 -0.4150 -0.1814 -0.3356
 7891TIP3    H145088   0.771   5.748   5.501 -0.7577 -1.7375 -1.5023
 7891TIP3    H245089   0.622   5.775   5.503 -0.2194  1.7466  1.1201
 7892TIP3   OH245090   3.045   0.553  16.310 -0.3422  0.7267  0.0782
 7892TIP3    H145091   3.007   0.567  16.224 -0.6760 -0.9888 -0.0915
 7892TIP3    H245092   2.972   0.522  16.364 -0.2601  2.3161  1.1484
 7893TIP3   OH245093   5.534   3.047  13.782 -0.6762  0.5231  0.0919
 7893TIP3    H145094   5.626   3.067  13.766 -0.6874 -0.2489 -1.0012
 7893TIP3    H245095   5.500   3.126  13.825  0.9886 -0.0070  2.6140
 7894TIP3   OH245096   3.728   1.236  13.535 -0.1757 -0.2005  0.1193
 7894TIP3    H145097   3.769   1.263  13.453  1.0038  0.6661  0.9601
 7894TIP3    H245098   3.682   1.314  13.566 -0.6508 -0.5363  0.2677
 7895TIP3   OH245099   4.689   0.566  10.619  0.3233  0.4205  0.0794
 7895TIP3    H145100   4.751   0.632  10.649  3.2066 -1.5875 -0.9848
 7895TIP3    H245101   4.733   0.483  10.637 -1.7409 -1.1053 -1.4875
 7896TIP3   OH245102   6.604   4.488  13.028  0.7508 -0.2935 -0.1391
 7896TIP3    H145103   6.682   4.452  13.069  1.1931  0.9319  0.1542
 7896TIP3    H245104   6.555   4.412  12.996  1.1351 -1.1881  1.3280
 7897TIP3   OH245105   1.162   5.923  13.787  0.5042 -0.1373 -0.2510
 7897TIP3    H145106   1.077   5.880  13.774  1.0673 -0.9390 -1.4378
 7897TIP3    H245107   1.207   5.912  13.703  2.3287 -0.9677  0.7937
 7898TIP3   OH245108   0.028   5.724   1.800 -0.3952 -0.2354 -0.1715
 7898TIP3    H145109  -0.026   5.802   1.783  0.6409  0.8992  1.4380
 7898TIP3    H245110   0.118   5.757   1.797  0.1128 -1.6150 -0.5410
 7899TIP3   OH245111   6.217   3.371   2.329  0.0024 -0.2610  0.7655
 7899TIP3    H145112   6.255   3.442   2.277 -0.4965 -1.0325 -0.6677
 7899TIP3    H245113   6.282   3.301   2.325 -1.7475 -1.9127 -2.3986
 7900TIP3   OH245114   5.020   4.587  11.315 -0.0171  0.1643 -0.6369
 7900TIP3    H145115   4.994   4.611  11.404  2.0013  0.9212 -0.1972
 7900TIP3    H245116   4.942   4.548  11.277 -0.8501 -0.4716  1.5726
 7901TIP3   OH245117   0.300   4.208   4.349  0.0974 -0.5667  0.0477
 7901TIP3    H145118   0.223   4.252   4.314  0.4860  1.1279  1.1768
 7901TIP3    H245119   0.374   4.255   4.309  0.5391 -0.9700  0.3758
 7902TIP3   OH245120   2.410   6.110   4.189  0.6588  0.1326  0.6200
 7902TIP3    H145121   2.350   6.138   4.257  0.3553  0.9574  0.0213
 7902TIP3    H245122   2.497   6.124   4.227  0.4956 -0.9278  1.4299
 7903TIP3   OH245123   2.013   5.083  15.998  0.4171 -0.3148 -0.0412
 7903TIP3    H145124   1.979   4.999  16.029  0.1607  0.1846  1.0392
 7903TIP3    H245125   2.003   5.079  15.903 -1.0722 -0.8664  0.1241
 7904TIP3   OH245126   1.820   3.035   4.716  0.6182  0.0491  0.2723
 7904TIP3    H145127   1.880   3.098   4.755  0.5902  0.1602  0.1351
 7904TIP3    H245128   1.736   3.051   4.759  1.3458 -2.1654  2.7793
 7905TIP3   OH245129   1.725   1.373   5.318 -0.0761  0.8251 -0.2918
 7905TIP3    H145130   1.724   1.334   5.230  0.7931  0.8946 -0.3399
 7905TIP3    H245131   1.632   1.384   5.340 -0.4061 -1.8126 -0.0253
 7906TIP3   OH245132   3.205   1.519   3.710  0.3803  0.1537  0.0596
 7906TIP3    H145133   3.237   1.573   3.637  0.9395  1.9411  1.5635
 7906TIP3    H245134   3.115   1.548   3.723  0.8165  1.0630  1.1464
 7907TIP3   OH245135   0.155   2.596  12.594 -0.1646  0.8390 -0.7832
 7907TIP3    H145136   0.127   2.625  12.508 -1.2830  0.1187 -0.6871
 7907TIP3    H245137   0.074   2.573  12.640  0.4544  0.5660  0.2216
 7908TIP3   OH245138   6.215   6.249   4.603  0.0304 -0.5687 -0.6005
 7908TIP3    H145139   6.154   6.227   4.533  1.1786 -0.0520 -1.8150
 7908TIP3    H245140   6.212   6.344   4.609 -1.6556 -0.6948  1.5929
 7909TIP3   OH245141   3.511   4.740   1.302 -0.1257  0.0455  0.3944
 7909TIP3    H145142   3.449   4.798   1.259 -0.8025  0.5160  1.9160
 7909TIP3    H245143   3.464   4.657   1.312  0.9671 -0.9534 -2.1063
 7910TIP3   OH245144   5.811   0.486  11.205  0.7393  0.2546 -0.0726
 7910TIP3    H145145   5.863   0.502  11.284 -0.5144 -1.1434  1.1139
 7910TIP3    H245146   5.875   0.480  11.135  1.8087  2.5771  0.6152
 7911TIP3   OH245147   0.483   6.344  16.821 -0.6981 -0.4131  0.2872
 7911TIP3    H145148   0.574   6.363  16.843 -0.2270 -3.1645  1.0897
 7911TIP3    H245149   0.432   6.381  16.893 -0.3058  1.4163 -0.3193
 7912TIP3   OH245150   5.087   1.471   3.973  0.4860 -0.1033  0.1608
 7912TIP3    H145151   5.008   1.432   4.012  0.9092  0.2261  1.3903
 7912TIP3    H245152   5.068   1.475   3.880 -1.7456  1.7407  0.6126
 7913TIP3   OH245153   5.028   3.833  15.853 -0.0548 -0.3557 -0.1921
 7913TIP3    H145154   5.050   3.740  15.840  1.8757  0.0240 -0.0418
 7913TIP3    H245155   4.998   3.863  15.767 -1.5370 -1.2890 -0.0390
 7914TIP3   OH245156   6.260   0.433   1.074  0.0715 -0.4138 -0.0230
 7914TIP3    H145157   6.233   0.520   1.042 -0.0013 -0.7076 -0.7807
 7914TIP3    H245158   6.341   0.415   1.027  0.2160 -0.6550  0.3172
 7915TIP3   OH245159   4.254   4.831   2.958 -0.2973 -0.2032 -0.1221
 7915TIP3    H145160   4.273   4.864   2.870 -0.1869  0.6535  0.2125
 7915TIP3    H245161   4.180   4.883   2.988  0.6950  0.6807  0.9154
 7916TIP3   OH245162   5.869   1.246   3.401 -0.4284 -0.0478 -0.7622
 7916TIP3    H145163   5.959   1.223   3.426 -0.1178  0.5966 -1.2426
 7916TIP3    H245164   5.815   1.179   3.441  0.1748  0.1390  0.4022
 7917TIP3   OH245165   4.205   1.070  14.955  0.0352  0.0028  0.6472
 7917TIP3    H145166   4.189   0.984  14.993 -0.1827 -0.4299 -0.3996
 7917TIP3    H245167   4.286   1.100  14.997  1.1912 -1.5575 -0.3797
 7918TIP3   OH245168   1.270   4.488   5.873 -0.5854 -0.5135  0.2899
 7918TIP3    H145169   1.246   4.543   5.947 -0.4111  0.5795 -0.4408
 7918TIP3    H245170   1.264   4.398   5.906  0.4886 -0.0232  1.9175
 7919TIP3   OH245171   4.898   5.971   3.525  0.3950  0.4217 -0.3614
 7919TIP3    H145172   4.991   5.954   3.509  0.0428  0.1916 -2.4807
 7919TIP3    H245173   4.874   5.910   3.595  1.8052  0.4229  0.1458
 7920TIP3   OH245174   2.848   0.771  11.620  0.3122  0.3975  0.2699
 7920TIP3    H145175   2.888   0.858  11.618 -2.7271  1.9174 -0.7014
 7920TIP3    H245176   2.908   0.715  11.571  1.8035  2.2024 -0.0540
 7921TIP3   OH245177   5.648   2.191  11.899  0.2448  0.8855 -0.0896
 7921TIP3    H145178   5.733   2.207  11.941  0.0723  1.7431 -0.0536
 7921TIP3    H245179   5.655   2.102  11.865 -0.0039 -0.3404  2.7596
 7922TIP3   OH245180   3.479   4.831   2.411 -0.3858 -0.2121  0.3313
 7922TIP3    H145181   3.557   4.797   2.367  1.5643  2.7063  1.2206
 7922TIP3    H245182   3.493   4.810   2.503 -0.3100  0.8288  0.5716
 7923TIP3   OH245183   4.658   3.654  12.230  0.0713  0.4065 -0.2839
 7923TIP3    H145184   4.725   3.676  12.166  1.3405 -0.5747  0.6589
 7923TIP3    H245185   4.672   3.561  12.250 -0.9602  0.4203  0.6311
 7924TIP3   OH245186   3.369   0.333   2.460  0.3925  0.5791  0.1959
 7924TIP3    H145187   3.328   0.339   2.546 -0.5518  0.1945 -0.2102
 7924TIP3    H245188   3.443   0.394   2.464  1.2986 -0.5469  1.7790
 7925TIP3   OH245189   2.834   4.319   4.123  0.1050 -0.0575 -0.1483
 7925TIP3    H145190   2.836   4.410   4.154  0.9466 -0.9175  2.5735
 7925TIP3    H245191   2.750   4.285   4.155  0.9493 -0.9508  1.1977
 7926TIP3   OH245192   5.863   3.835   1.553  0.0914 -0.6981 -0.4027
 7926TIP3    H145193   5.847   3.882   1.635 -1.7461  3.5293 -2.9042
 7926TIP3    H245194   5.779   3.795   1.531 -0.2644  0.5984 -1.5226
 7927TIP3   OH245195   5.204   3.173   0.319 -0.0946  0.1030 -0.1302
 7927TIP3    H145196   5.137   3.225   0.363 -0.2737  0.4530 -0.8098
 7927TIP3    H245197   5.190   3.188   0.226 -1.3622 -2.6650 -0.4651
 7928TIP3   OH245198   5.799   1.103  14.808  0.0961  0.3056  0.2578
 7928TIP3    H145199   5.829   1.034  14.749 -1.1144 -0.0467  0.0167
 7928TIP3    H245200   5.826   1.184  14.766 -0.4798  0.0465 -0.6525
 7929TIP3   OH245201   0.833   5.108   2.514 -0.1056  0.6238  0.1006
 7929TIP3    H145202   0.863   5.021   2.542 -0.2338  0.3620 -0.5539
 7929TIP3    H245203   0.912   5.161   2.511 -0.3124  1.2752  2.9859
 7930TIP3   OH245204   5.910   5.570  15.610 -0.4018 -0.3497 -0.0954
 7930TIP3    H145205   5.869   5.625  15.676  0.8100 -0.0968  0.4769
 7930TIP3    H245206   5.940   5.493  15.658 -0.1523 -0.4996 -0.4825
 7931TIP3   OH245207   6.115   4.997  14.854  0.0371  0.4703  0.2436
 7931TIP3    H145208   6.110   4.981  14.760  0.3574 -1.9385  0.5786
 7931TIP3    H245209   6.024   5.005  14.882 -0.1626 -0.8008  0.0036
 7932TIP3   OH245210   4.113   5.483   1.018  0.4468  0.1050  0.6260
 7932TIP3    H145211   4.132   5.569   0.981  1.4040 -0.6758 -0.8105
 7932TIP3    H245212   4.041   5.498   1.079 -0.1019  1.7567 -0.3558
 7933TIP3   OH245213   1.167   3.294   2.030 -0.9143 -0.0387 -0.2917
 7933TIP3    H145214   1.222   3.221   2.002  1.3382  1.3218  0.3455
 7933TIP3    H245215   1.130   3.266   2.114  0.3190 -0.2990  0.1815
 7934TIP3   OH245216   1.724   0.621   4.522 -0.2422  0.4265  0.5348
 7934TIP3    H145217   1.711   0.610   4.428 -0.3932  1.4004  0.4336
 7934TIP3    H245218   1.679   0.547   4.562  0.7007 -0.5717 -0.1999
 7935TIP3   OH245219   5.859   1.670  16.946 -0.4372  0.1560  0.0601
 7935TIP3    H145220   5.875   1.606  17.015 -0.5423  0.8384  0.7376
 7935TIP3    H245221   5.806   1.623  16.881  2.3501 -1.5064 -1.1988
 7936TIP3   OH245222   1.676   4.041  15.174 -0.2165  0.7076  0.5460
 7936TIP3    H145223   1.757   4.014  15.218 -0.5890  0.9324  1.3885
 7936TIP3    H245224   1.632   4.099  15.236 -0.5922  1.3195 -0.2746
 7937TIP3   OH245225   0.291   2.926  14.541  0.5262  0.3414 -0.2481
 7937TIP3    H145226   0.368   2.871  14.559  0.6462  0.7318  0.4476
 7937TIP3    H245227   0.256   2.891  14.459  0.0339 -1.4118  0.6643
 7938TIP3   OH245228   5.620   5.505  11.946  0.0491 -0.1885  0.1925
 7938TIP3    H145229   5.558   5.562  11.992  0.2252 -0.1622  0.3973
 7938TIP3    H245230   5.669   5.462  12.016 -0.5473 -1.1099  0.0623
 7939TIP3   OH245231   3.822   5.195   0.717 -0.4419  0.4584 -0.2466
 7939TIP3    H145232   3.840   5.169   0.627 -1.5286 -0.0684 -0.3339
 7939TIP3    H245233   3.896   5.161   0.768 -1.0379 -1.4787 -0.5846
 7940TIP3   OH245234   1.072   0.194   4.423 -0.4994 -0.1167  0.2227
 7940TIP3    H145235   1.010   0.151   4.481  0.0565 -2.5394 -0.8398
 7940TIP3    H245236   1.035   0.183   4.336  0.0698  0.9118 -0.1685
 7941TIP3   OH245237   1.763   4.573  13.448 -0.4929  0.4233 -0.0614
 7941TIP3    H145238   1.719   4.635  13.505 -0.1897 -0.0871  0.7386
 7941TIP3    H245239   1.824   4.526  13.505  0.6739  0.7051 -1.0274
 7942TIP3   OH245240   4.242   3.715  14.998  0.1574  0.8466  0.0075
 7942TIP3    H145241   4.297   3.727  14.920  1.4321 -0.3068  0.6694
 7942TIP3    H245242   4.270   3.784  15.058  1.0196  0.2053  0.3805
 7943TIP3   OH245243   1.661   1.449   4.969 -0.6436  0.1042  0.0567
 7943TIP3    H145244   1.744   1.495   4.988 -0.0304 -1.3872  1.1369
 7943TIP3    H245245   1.642   1.473   4.878  0.7420  0.8345 -0.0811
 7944TIP3   OH245246   2.860   0.738  15.146 -0.4523  0.3513 -0.1676
 7944TIP3    H145247   2.876   0.676  15.074  0.6339  1.0700 -0.5684
 7944TIP3    H245248   2.777   0.779  15.124  0.1234  0.9568 -1.3291
 7945TIP3   OH245249   2.167   1.054   0.947  0.3237  0.5403  0.1720
 7945TIP3    H145250   2.072   1.048   0.954  0.3819 -0.1413  0.4125
 7945TIP3    H245251   2.189   1.138   0.988 -0.3219  1.5413 -1.4102
 7946TIP3   OH245252   6.670   4.594   2.545  0.5849  0.1033 -0.3442
 7946TIP3    H145253   6.762   4.598   2.572  0.6607  1.0715 -0.6874
 7946TIP3    H245254   6.627   4.542   2.612  1.0504  1.1891  0.8248
 7947TIP3   OH245255   5.498   0.949   4.282  0.0763  0.4272  0.2711
 7947TIP3    H145256   5.540   1.035   4.275  0.6770  0.1919  0.9366
 7947TIP3    H245257   5.565   0.887   4.252 -0.3491  0.1793 -0.1926
 7948TIP3   OH245258   0.204   6.279  14.825  0.1947  0.6959  0.8173
 7948TIP3    H145259   0.114   6.309  14.836 -0.7403 -0.4932 -2.4749
 7948TIP3    H245260   0.212   6.204  14.884 -0.1685  2.1114  2.7746
 7949TIP3   OH245261   2.334   3.867   2.047  0.4355  0.3416 -0.0864
 7949TIP3    H145262   2.257   3.873   2.104  0.5472  0.4316  0.0513
 7949TIP3    H245263   2.405   3.907   2.096  0.6866 -0.1860 -0.0154
 7950TIP3   OH245264   6.707   0.475   4.501 -0.1415 -0.5904  0.5022
 7950TIP3    H145265   6.642   0.546   4.505  0.6776  0.2418 -0.3302
 7950TIP3    H245266   6.682   0.425   4.423  1.0725  0.6370 -0.7206
 7951TIP3   OH245267   6.504   3.849  12.413 -0.1405 -0.0005 -0.8370
 7951TIP3    H145268   6.471   3.934  12.385 -0.8893 -0.7093 -2.2163
 7951TIP3    H245269   6.430   3.808  12.458 -0.5406 -0.7926 -2.1628
 7952TIP3   OH245270   6.307   6.198   2.586  0.2944 -0.2686 -0.1440
 7952TIP3    H145271   6.301   6.131   2.655  1.8605 -0.6564 -0.3381
 7952TIP3    H245272   6.232   6.255   2.601  0.3741 -0.5771  1.6511
 7953TIP3   OH245273   5.654   3.572   5.052  0.5199  0.1897  0.0553
 7953TIP3    H145274   5.624   3.640   4.992 -1.9435  0.2742  1.2159
 7953TIP3    H245275   5.712   3.618   5.113  0.3855  0.8350 -0.2879
 7954TIP3   OH245276   3.548   0.018   3.195 -0.4406  0.0888  0.5006
 7954TIP3    H145277   3.640   0.001   3.174  0.6944  3.7317  1.7483
 7954TIP3    H245278   3.499  -0.016   3.120  1.9504 -1.4363 -0.4733
 7955TIP3   OH245279   2.978   2.961  12.179  0.4276 -0.0170  0.2805
 7955TIP3    H145280   2.995   2.904  12.104 -0.5914  0.6617 -0.4838
 7955TIP3    H245281   3.013   2.913  12.254  2.5213 -0.2228 -0.7365
 7956TIP3   OH245282   2.670   0.025  13.302 -0.1794  0.1467  0.2231
 7956TIP3    H145283   2.692  -0.068  13.295  3.1494  0.8897 -1.8137
 7956TIP3    H245284   2.586   0.033  13.257 -0.1600 -1.7763 -0.2742
 7957TIP3   OH245285   1.500   1.978   3.356  0.0896  0.1157 -0.2403
 7957TIP3    H145286   1.433   2.047   3.354 -0.1342 -0.1165 -1.8875
 7957TIP3    H245287   1.451   1.897   3.364  0.2097 -0.0123 -0.7927
 7958TIP3   OH245288   5.944   4.958  12.887 -0.3205  0.5080  0.1744
 7958TIP3    H145289   5.869   4.901  12.871 -0.9200  1.2616  0.2845
 7958TIP3    H245290   5.956   5.005  12.804 -1.0604  1.6473  0.7010
 7959TIP3   OH245291   3.407   3.968  15.402  0.0467  0.1664  0.5538
 7959TIP3    H145292   3.371   3.891  15.445  1.0178 -0.4848  0.2292
 7959TIP3    H245293   3.456   3.934  15.328  0.2755  1.1162  0.2524
 7960TIP3   OH245294   3.842   2.693   3.283  0.2187  0.0291 -0.3866
 7960TIP3    H145295   3.804   2.607   3.300 -1.5383  0.8455  0.0235
 7960TIP3    H245296   3.930   2.689   3.320  0.3494 -1.7241 -0.7998
 7961TIP3   OH245297   3.598   4.082   4.623 -0.3539 -0.0667 -0.2755
 7961TIP3    H145298   3.631   4.042   4.542 -1.2363  0.1618 -0.7635
 7961TIP3    H245299   3.516   4.037   4.640  0.8790 -1.7126  1.7917
 7962TIP3   OH245300   2.841   5.792  10.741  0.4579 -0.5955  0.2677
 7962TIP3    H145301   2.791   5.857  10.690  1.0776  0.2049  0.6496
 7962TIP3    H245302   2.843   5.714  10.685 -0.6240 -0.4180 -0.0460
 7963TIP3   OH245303   6.514   3.738   3.189 -0.1621 -0.0802  0.0254
 7963TIP3    H145304   6.477   3.798   3.253 -0.5299  0.0112 -0.2631
 7963TIP3    H245305   6.607   3.735   3.209  0.0058  1.1767 -0.4113
 7964TIP3   OH245306   6.592   4.243   4.439  0.0439 -0.4919 -0.5581
 7964TIP3    H145307   6.515   4.282   4.479  1.4200  3.6883 -1.5422
 7964TIP3    H245308   6.653   4.228   4.512 -0.2375 -0.0796 -0.2370
 7965TIP3   OH245309   2.503   1.560   3.786 -0.4172 -0.0099  0.3004
 7965TIP3    H145310   2.581   1.510   3.814 -0.1807 -0.2381 -0.7303
 7965TIP3    H245311   2.539   1.641   3.750 -0.7538  0.5254  1.1349
 7966TIP3   OH245312   2.567   2.423  13.770  0.5611  0.3132 -0.2074
 7966TIP3    H145313   2.576   2.357  13.702  1.3811 -0.3619  0.5343
 7966TIP3    H245314   2.642   2.408  13.828  0.0581  1.0759  0.6663
 7967TIP3   OH245315   4.326   1.807   0.312 -0.1039  0.1828  0.0197
 7967TIP3    H145316   4.247   1.859   0.298  0.4514  2.1375  3.1589
 7967TIP3    H245317   4.394   1.872   0.332  1.3469 -1.6190  1.2748
 7968TIP3   OH245318   1.795   1.079   5.350  0.0893 -0.7361 -0.5742
 7968TIP3    H145319   1.878   1.070   5.398 -0.7314  0.8754  1.2676
 7968TIP3    H245320   1.819   1.126   5.270  1.0297 -0.7377 -0.3146
 7969TIP3   OH245321   1.561   0.091  13.829  0.7628  0.1102  0.2929
 7969TIP3    H145322   1.656   0.085  13.829  0.7151 -3.8248 -1.9077
 7969TIP3    H245323   1.534   0.049  13.748 -2.8743  4.1375 -0.9410
 7970TIP3   OH245324   3.514   3.282   5.712  0.3116 -0.2930 -0.1948
 7970TIP3    H145325   3.515   3.376   5.727  0.4113  0.0784 -2.2279
 7970TIP3    H245326   3.529   3.243   5.798  2.6094  1.5908  0.3344
 7971TIP3   OH245327   3.625   1.515  15.350  0.2146  0.4221  0.1337
 7971TIP3    H145328   3.719   1.528  15.363  0.4294 -0.9876  0.0708
 7971TIP3    H245329   3.585   1.591  15.392  1.2921  0.1803  1.6665
 7972TIP3   OH245330   3.238   5.368   5.454 -0.2560  0.0841 -0.2419
 7972TIP3    H145331   3.325   5.376   5.415 -0.2917  1.8103 -0.0640
 7972TIP3    H245332   3.186   5.435   5.410 -0.9797  0.3392  0.9544
 7973TIP3   OH245333   1.854   4.649   1.008  0.1302  0.2357 -0.3114
 7973TIP3    H145334   1.934   4.684   1.048 -1.3964  1.6640  1.6611
 7973TIP3    H245335   1.871   4.653   0.914  2.3138  0.6306  0.0423
 7974TIP3   OH245336   1.461   0.526   3.108  0.0717 -0.2024 -0.3306
 7974TIP3    H145337   1.416   0.600   3.148  0.1416  1.2595 -2.7469
 7974TIP3    H245338   1.407   0.505   3.031  0.1813 -2.5453  0.1766
 7975TIP3   OH245339   5.784   6.276   6.015 -0.2076  0.4069  0.2474
 7975TIP3    H145340   5.750   6.221   6.085 -0.4239 -0.4638 -0.5212
 7975TIP3    H245341   5.796   6.362   6.055  0.0078 -0.1610  1.4330
 7976TIP3   OH245342   4.678   4.228  11.475 -0.6577  0.0495 -0.1106
 7976TIP3    H145343   4.707   4.232  11.384 -0.4489 -1.0332 -0.1000
 7976TIP3    H245344   4.693   4.316  11.509  2.0779 -0.2639 -0.2741
 7977TIP3   OH245345   3.122   1.788   5.690 -0.4553 -0.2934 -0.2043
 7977TIP3    H145346   3.104   1.819   5.602 -3.1291  1.0024  0.6823
 7977TIP3    H245347   3.132   1.693   5.681  1.7413  0.0432 -2.1451
 7978TIP3   OH245348   2.132   3.224   2.410  0.2461 -0.3943 -0.0685
 7978TIP3    H145349   2.115   3.315   2.384  1.8829  0.2034  0.7748
 7978TIP3    H245350   2.052   3.197   2.454 -0.5265  0.4087 -0.9405
 7979TIP3   OH245351   3.433   3.079   0.670  0.2914  0.1020 -0.0203
 7979TIP3    H145352   3.500   3.039   0.614 -0.8518 -1.2946 -0.4466
 7979TIP3    H245353   3.357   3.089   0.612  0.3769  2.6044  0.1683
 7980TIP3   OH245354   1.791   4.841  11.208 -0.1019  0.1871 -0.2177
 7980TIP3    H145355   1.712   4.796  11.180  0.0700  0.4650 -1.1764
 7980TIP3    H245356   1.862   4.793  11.165  0.2521 -0.0004  0.5560
 7981TIP3   OH245357   0.167   3.295  11.800 -0.3525 -0.3861 -0.3120
 7981TIP3    H145358   0.224   3.301  11.876  0.5230 -1.6940 -0.8243
 7981TIP3    H245359   0.142   3.203  11.797 -2.6648  0.1757 -0.0099
 7982TIP3   OH245360   5.800   3.589  14.110  0.1386  0.2295  0.0807
 7982TIP3    H145361   5.770   3.659  14.168 -1.9723 -1.3006  0.9830
 7982TIP3    H245362   5.894   3.603  14.102 -0.2588  3.5032 -0.3114
 7983TIP3   OH245363   3.276   0.746  14.155 -0.1140  0.5384 -0.0840
 7983TIP3    H145364   3.181   0.757  14.145 -0.2222 -0.0886  0.1960
 7983TIP3    H245365   3.310   0.835  14.161 -0.5212  0.8193 -1.6484
 7984TIP3   OH245366   5.775   2.243   5.437 -0.3919  0.2458  0.0633
 7984TIP3    H145367   5.776   2.184   5.362 -0.1407 -0.4303  0.5855
 7984TIP3    H245368   5.791   2.330   5.400 -1.6014  0.1109 -0.8146
 7985TIP3   OH245369   0.120   5.715  12.393  0.6233 -0.1407 -0.5609
 7985TIP3    H145370   0.143   5.800  12.356  1.7367 -0.4369 -0.5860
 7985TIP3    H245371   0.194   5.658  12.371 -0.1980 -1.1825 -0.7427
 7986TIP3   OH245372   2.549   5.913  13.923 -0.0391  0.3726  0.4277
 7986TIP3    H145373   2.468   5.958  13.948 -0.5873  0.8544 -1.9051
 7986TIP3    H245374   2.619   5.974  13.948 -0.4718  0.5069  1.3337
 7987TIP3   OH245375   1.728   1.009  15.323 -0.4949 -0.4181  0.7695
 7987TIP3    H145376   1.731   1.034  15.415 -0.4635  1.1091  0.3906
 7987TIP3    H245377   1.816   1.029  15.290 -1.7534  4.0719 -0.7025
 7988TIP3   OH245378   6.672   2.944  16.620  0.0571 -0.0138  0.7005
 7988TIP3    H145379   6.760   2.974  16.596  0.6931 -1.8085  0.5863
 7988TIP3    H245380   6.619   3.024  16.624  1.3585  0.9778 -0.6208
 7989TIP3   OH245381   0.550   5.964   4.262 -0.0819 -0.2234 -0.9846
 7989TIP3    H145382   0.549   6.041   4.205 -0.8850  1.0556  0.6699
 7989TIP3    H245383   0.505   5.993   4.342  0.6368 -2.0652  0.1427
 7990TIP3   OH245384   4.465   1.670   0.014  0.5454 -0.4114  0.0938
 7990TIP3    H145385   4.371   1.652   0.012  0.3179  0.7099 -0.0311
 7990TIP3    H245386   4.506   1.588  -0.013 -0.3625 -1.1267  0.8227
 7991TIP3   OH245387   1.830   3.504  12.763  0.1325 -0.0566  0.2256
 7991TIP3    H145388   1.830   3.562  12.839 -1.2278 -1.1962  1.1504
 7991TIP3    H245389   1.846   3.417  12.799  0.8992 -0.4416 -0.9888
 7992TIP3   OH245390   5.192   6.227   6.061 -0.0088  0.3420 -0.5787
 7992TIP3    H145391   5.112   6.257   6.104  0.0488 -1.5903  1.0401
 7992TIP3    H245392   5.160   6.169   5.991 -0.0471  0.8294 -0.9663
 7993TIP3   OH245393   0.478   0.916   2.065 -0.3609 -0.5832 -0.8756
 7993TIP3    H145394   0.469   0.949   1.976  2.5208 -2.5096 -2.0473
 7993TIP3    H245395   0.564   0.948   2.094 -1.8019  1.1646  1.8501
 7994TIP3   OH245396   2.981   0.387  11.074 -0.0096  0.2099 -0.0488
 7994TIP3    H145397   2.997   0.474  11.110 -0.5947  0.9991 -1.6039
 7994TIP3    H245398   3.021   0.388  10.988  1.5593 -1.6983  0.5743
 7995TIP3   OH245399   6.527   6.485   6.414 -0.8579 -0.4119  0.2336
 7995TIP3    H145400   6.576   6.508   6.493 -0.1756 -1.1478  0.0380
 7995TIP3    H245401   6.594   6.476   6.346 -1.4829  0.8368 -0.5999
 7996TIP3   OH245402   3.033   2.518   4.720  0.5053 -0.3341 -0.1397
 7996TIP3    H145403   3.124   2.503   4.695  1.3507  2.7496  0.5587
 7996TIP3    H245404   3.039   2.584   4.789 -2.2405 -0.8684  0.7059
 7997TIP3   OH245405   3.219   1.297   4.377  0.2615  0.0246  0.3504
 7997TIP3    H145406   3.224   1.385   4.341  4.6460 -0.0872  0.2333
 7997TIP3    H245407   3.187   1.243   4.304 -1.1213  1.2229  0.0089
 7998TIP3   OH245408   3.763   4.363  12.476 -0.4043 -0.1388  0.1954
 7998TIP3    H145409   3.841   4.388  12.427 -0.2518 -1.3787 -0.2408
 7998TIP3    H245410   3.706   4.439  12.471  0.6118  0.6548  0.2004
 7999TIP3   OH245411   0.014   3.745  12.973  0.0050  0.6187 -0.1796
 7999TIP3    H145412  -0.080   3.759  12.978 -0.1949 -0.9771  1.7257
 7999TIP3    H245413   0.052   3.828  13.002 -0.8257  1.0088 -0.1687
 8000TIP3   OH245414   6.690   5.011   3.992  0.0269  0.4040  0.0178
 8000TIP3    H145415   6.625   5.043   4.054  0.0031 -0.7329  0.6051
 8000TIP3    H245416   6.643   4.948   3.937  0.6933 -0.7268  0.7022
 8001TIP3   OH245417   5.507   3.484  14.765  0.0372  0.7377  0.4341
 8001TIP3    H145418   5.556   3.411  14.803 -1.3365  0.3644  1.6049
 8001TIP3    H245419   5.463   3.446  14.689 -1.2007  0.1323  1.4215
 8002TIP3   OH245420   1.926   0.890  13.302 -0.3400  0.0993 -0.4735
 8002TIP3    H145421   1.951   0.895  13.394  1.4111 -0.8775 -0.8577
 8002TIP3    H245422   1.833   0.867  13.304  0.7042 -5.4728  1.2361
 8003TIP3   OH245423   4.001   3.901   0.085  0.0685 -0.0207  0.2333
 8003TIP3    H145424   4.058   3.877   0.158 -0.3285 -0.1163  0.5151
 8003TIP3    H245425   4.036   3.984   0.053  0.3206 -0.0430  0.4503
 8004TIP3   OH245426   2.365   1.010   3.674 -0.4281 -0.2469  0.4828
 8004TIP3    H145427   2.380   0.928   3.721  0.5506 -0.0666  0.4978
 8004TIP3    H245428   2.281   1.041   3.707 -0.2151 -0.6073  1.3978
 8005TIP3   OH245429   0.221   3.977  13.730 -0.6610  0.2385  0.6118
 8005TIP3    H145430   0.257   4.055  13.687 -2.1523  0.1851 -0.8236
 8005TIP3    H245431   0.294   3.943  13.781  0.8583  1.0181 -0.9149
 8006TIP3   OH245432   0.480   1.337  15.149  0.5132 -0.0896  0.2122
 8006TIP3    H145433   0.543   1.396  15.191 -0.4406  0.9632  0.1951
 8006TIP3    H245434   0.531   1.293  15.081  1.6905 -0.6657  1.4161
 8007TIP3   OH245435   6.368   6.393  13.036  0.4808  0.4133 -0.2948
 8007TIP3    H145436   6.284   6.393  12.989  1.4651 -2.0806 -2.3054
 8007TIP3    H245437   6.355   6.331  13.108 -0.0622  1.8482  0.8945
 8008TIP3   OH245438   0.485   3.484   5.020 -0.3291  0.1237 -0.2139
 8008TIP3    H145439   0.404   3.526   4.991 -0.6183 -0.2584  0.0398
 8008TIP3    H245440   0.459   3.395   5.045 -0.1559  0.5611  1.5974
 8009TIP3   OH245441   4.149   4.235   5.620 -0.2297 -0.3822  0.0252
 8009TIP3    H145442   4.132   4.172   5.689 -1.4557  1.9491  2.0185
 8009TIP3    H245443   4.068   4.286   5.613  1.1839  1.9997 -0.2791
 8010TIP3   OH245444   4.597   3.040  14.223  0.3750 -0.2409  0.2621
 8010TIP3    H145445   4.504   3.017  14.219  0.1658  0.2780  1.5255
 8010TIP3    H245446   4.608   3.108  14.156 -0.4851  0.6879  1.0322
 8011TIP3   OH245447   6.463   1.871   0.668 -0.5788  0.1453  0.5821
 8011TIP3    H145448   6.556   1.850   0.674 -0.5871  0.0671  0.4379
 8011TIP3    H245449   6.420   1.787   0.651 -0.6628  0.2023  0.5121
 8012TIP3   OH245450   0.820   0.390  13.296 -0.1943  0.0055  0.5539
 8012TIP3    H145451   0.883   0.341  13.242 -1.7299 -0.8646 -0.5315
 8012TIP3    H245452   0.827   0.349  13.382  0.8378  0.0249  0.4880
 8013TIP3   OH245453   6.095   4.453   1.247 -0.1099 -0.3232  0.0866
 8013TIP3    H145454   6.078   4.379   1.305 -0.6977 -0.9353 -0.8372
 8013TIP3    H245455   6.187   4.475   1.261 -0.0034 -1.0517  0.5740
 8014TIP3   OH245456   1.522   0.403   3.383  0.7369  0.8732  0.0320
 8014TIP3    H145457   1.522   0.477   3.322  0.0250 -0.1878 -1.3189
 8014TIP3    H245458   1.455   0.425   3.447  0.7343  1.5232 -0.1783
 8015TIP3   OH245459   5.754   2.868  12.806  0.5850 -0.2580  0.2363
 8015TIP3    H145460   5.764   2.930  12.734 -0.2687  0.5159  0.7588
 8015TIP3    H245461   5.836   2.818  12.806  1.0080  0.4093 -0.6309
 8016TIP3   OH245462   4.651   6.054  15.601  0.7515  0.1215 -0.2235
 8016TIP3    H145463   4.711   5.980  15.604  1.2700  0.5232 -0.4475
 8016TIP3    H245464   4.667   6.101  15.683 -0.7368 -0.8829  0.6955
 8017TIP3   OH245465   3.090   2.395  16.938  0.0409  0.1195  0.4391
 8017TIP3    H145466   3.095   2.335  16.864 -0.0486  1.1642 -0.4292
 8017TIP3    H245467   3.172   2.382  16.986  0.2853 -0.2521 -0.0774
 8018TIP3   OH245468   4.800   3.041  11.032 -0.2543  0.4946  0.1121
 8018TIP3    H145469   4.714   3.075  11.008  0.2760  1.4083 -0.5760
 8018TIP3    H245470   4.798   3.034  11.127 -1.3178 -0.1551  0.0596
 8019TIP3   OH245471   1.231   4.564  16.652  0.6165  0.5042 -0.0119
 8019TIP3    H145472   1.151   4.519  16.679  0.2952  2.0441  1.7614
 8019TIP3    H245473   1.299   4.496  16.656 -0.3069 -0.4405 -0.0249
 8020TIP3   OH245474   2.139   1.607  12.923  0.0389 -0.4309 -0.0216
 8020TIP3    H145475   2.137   1.516  12.953 -0.2509 -0.7273 -0.8884
 8020TIP3    H245476   2.176   1.602  12.835  1.2119  0.4516  0.4082
 8021TIP3   OH245477   2.861   5.022   2.818 -0.1340 -0.5898  0.3107
 8021TIP3    H145478   2.816   5.104   2.838  1.3854  0.1225  0.9806
 8021TIP3    H245479   2.850   4.968   2.896 -0.4620 -0.7195  0.1765
 8022TIP3   OH245480   0.863   4.231   2.886  0.4357  0.2240 -0.0081
 8022TIP3    H145481   0.892   4.296   2.823  0.3023  0.6541  0.3668
 8022TIP3    H245482   0.844   4.281   2.965 -1.1720 -0.0611 -0.1857
 8023TIP3   OH245483   1.483   2.022   3.709  0.6801  0.2911  0.6251
 8023TIP3    H145484   1.395   1.988   3.689 -0.1713  0.9415  3.0241
 8023TIP3    H245485   1.473   2.070   3.791  3.1691  0.9599  0.6190
 8024TIP3   OH245486   5.240   0.222  15.749 -0.4512  0.9649 -0.2670
 8024TIP3    H145487   5.170   0.158  15.760 -0.6961  0.9016 -1.9336
 8024TIP3    H245488   5.269   0.241  15.838 -1.0175 -0.7477  0.3298
 8025TIP3   OH245489   4.017   6.371   0.153 -0.3609  0.2303  0.1255
 8025TIP3    H145490   4.055   6.459   0.152  1.6058 -0.5579 -0.8296
 8025TIP3    H245491   3.973   6.363   0.068 -0.6647  0.3468  0.2727
 8026TIP3   OH245492   2.617   0.938  16.342 -0.1966  0.0079 -0.4999
 8026TIP3    H145493   2.619   0.884  16.263 -1.0670  1.5371 -1.6165
 8026TIP3    H245494   2.669   1.015  16.320  0.2116  0.1048  0.7231
 8027TIP3   OH245495   1.691   3.531  16.322  0.2659  0.1856  0.1591
 8027TIP3    H145496   1.705   3.616  16.280 -0.4756  0.1247 -0.2196
 8027TIP3    H245497   1.653   3.553  16.408  0.5411  0.2517  0.2666
 8028TIP3   OH245498   3.684   0.989  13.265 -0.2937 -0.1168  0.6531
 8028TIP3    H145499   3.720   0.917  13.214  0.6267  1.1830 -0.6005
 8028TIP3    H245500   3.755   1.014  13.324 -0.2868  0.3166  0.4665
 8029TIP3   OH245501   4.671   0.903  15.597  0.1646 -0.4977  0.2562
 8029TIP3    H145502   4.702   0.829  15.544 -0.4406  1.0574 -2.4423
 8029TIP3    H245503   4.715   0.979  15.559 -2.9758  1.1560 -0.4237
 8030TIP3   OH245504   2.470   5.188  11.991  0.1946 -0.6982 -0.4289
 8030TIP3    H145505   2.425   5.105  12.004 -2.1186  0.7055  1.3559
 8030TIP3    H245506   2.543   5.185  12.052 -1.7853 -0.2245  2.1199
 8031TIP3   OH245507   1.421   4.503  17.012  0.2451 -0.0919 -0.1900
 8031TIP3    H145508   1.447   4.531  17.099 -0.2793 -1.8652  0.5839
 8031TIP3    H245509   1.504   4.497  16.963  0.9658 -2.1148  1.1542
 8032TIP3   OH245510   4.306   0.314  16.631  0.0148  0.4814  0.1628
 8032TIP3    H145511   4.254   0.387  16.599 -0.1631  0.0199 -0.6426
 8032TIP3    H245512   4.397   0.344  16.625 -0.1518  1.5050  2.1329
 8033TIP3   OH245513   2.531   6.649   4.700  0.0092  0.2160  0.2884
 8033TIP3    H145514   2.456   6.616   4.750 -0.5132 -0.9385 -1.1647
 8033TIP3    H245515   2.557   6.729   4.745 -1.7867  0.3764  1.1324
 8034TIP3   OH245516   3.581   1.151  12.391  0.1861  0.1474 -0.2864
 8034TIP3    H145517   3.651   1.087  12.380 -0.1951 -0.4877  0.7984
 8034TIP3    H245518   3.525   1.114  12.459 -1.3200  0.5500 -1.2548
 8035TIP3   OH245519   6.536   6.105   4.388 -0.0928 -0.2751 -0.0027
 8035TIP3    H145520   6.512   6.021   4.427 -0.1199 -0.0203  0.5429
 8035TIP3    H245521   6.452   6.145   4.364 -0.0241 -1.0750 -1.7398
 8036TIP3   OH245522   0.252   6.108   0.391 -0.2593 -0.3394 -0.2506
 8036TIP3    H145523   0.228   6.097   0.299 -2.9886 -1.9585  0.5288
 8036TIP3    H245524   0.178   6.156   0.430  0.9497  0.5362  1.0742
 8037TIP3   OH245525   2.290   2.821   1.779  0.3695  0.3112  0.0435
 8037TIP3    H145526   2.382   2.802   1.760  0.5995  0.4870  0.9465
 8037TIP3    H245527   2.255   2.739   1.815 -0.2513 -0.2429 -1.6956
 8038TIP3   OH245528   2.080   1.105   3.709  0.1309 -0.3622  0.0703
 8038TIP3    H145529   2.102   1.018   3.674 -1.5969  0.2077 -2.7545
 8038TIP3    H245530   2.039   1.150   3.635 -2.8836  1.3863  2.6021
 8039TIP3   OH245531   5.359   2.095  13.744 -0.5317 -0.2063 -0.1041
 8039TIP3    H145532   5.376   2.020  13.801  0.2689  1.4192  1.9202
 8039TIP3    H245533   5.434   2.097  13.685 -0.4477 -0.8682 -0.0299
 8040TIP3   OH245534   5.185   6.372   1.131 -0.2545 -0.0311 -0.5791
 8040TIP3    H145535   5.271   6.411   1.148  0.0797 -1.4090  1.1186
 8040TIP3    H245536   5.193   6.332   1.044  1.3383 -1.4246  0.1600
 8041TIP3   OH245537   3.329   5.510   4.822  0.2282  0.6356  0.4214
 8041TIP3    H145538   3.375   5.594   4.819  0.4353  0.6916  3.0954
 8041TIP3    H245539   3.240   5.531   4.794  0.7681  1.2940 -0.9347
 8042TIP3   OH245540   6.554   1.476  10.989  0.6572 -0.8619 -0.0137
 8042TIP3    H145541   6.479   1.428  10.956 -0.9454  1.1469  0.5135
 8042TIP3    H245542   6.552   1.463  11.084 -0.6126  1.2449  0.2977
 8043TIP3   OH245543   2.595   0.494   4.020 -0.6552  0.4006  1.0947
 8043TIP3    H145544   2.595   0.532   4.108 -0.6728  0.2510  1.1591
 8043TIP3    H245545   2.680   0.519   3.983 -0.8396  0.8664  0.9806
 8044TIP3   OH245546   1.112   4.033  14.058  0.3521  0.1049 -0.3912
 8044TIP3    H145547   1.056   3.972  14.011  0.7666 -0.0156 -0.7412
 8044TIP3    H245548   1.174   4.064  13.992  1.0055 -0.1408  0.0927
 8045TIP3   OH245549   4.810   3.515   3.776  0.1511  0.0956  0.3340
 8045TIP3    H145550   4.742   3.552   3.832 -0.1321 -0.9514  0.7087
 8045TIP3    H245551   4.809   3.421   3.795  1.3467 -0.0190 -0.0441
 8046TIP3   OH245552   6.009   5.778   0.841 -0.3952  0.0281  0.0358
 8046TIP3    H145553   5.929   5.768   0.894 -0.1300  2.6813  1.0841
 8046TIP3    H245554   5.990   5.732   0.760 -1.0652 -3.7482  2.0909
 8047TIP3   OH245555   6.605   5.218  11.809  0.3882  0.1084 -0.2107
 8047TIP3    H145556   6.601   5.124  11.789 -1.3982  0.1977 -0.4676
 8047TIP3    H245557   6.675   5.226  11.873  0.5704 -1.4128 -0.1839
 8048TIP3   OH245558   4.738   2.376   1.158 -0.3259 -0.3162  0.6420
 8048TIP3    H145559   4.832   2.362   1.153 -0.1710  0.8748 -0.2476
 8048TIP3    H245560   4.701   2.288   1.164  0.7020 -1.0072 -1.6889
 8049TIP3   OH245561   0.623   4.894   4.738  0.1109 -0.2436  0.1381
 8049TIP3    H145562   0.686   4.946   4.787  0.1438 -0.7022  0.6023
 8049TIP3    H245563   0.595   4.827   4.801 -1.6425  0.5847  0.3084
 8050TIP3   OH245564   0.502   6.207   4.070  0.7926  0.5699  0.1948
 8050TIP3    H145565   0.593   6.235   4.061  0.9791 -0.3846 -1.4609
 8050TIP3    H245566   0.453   6.287   4.086  1.9072  1.1081  1.0017
 8051TIP3   OH245567   0.106   5.074  14.811 -0.5289 -0.7417 -0.0417
 8051TIP3    H145568   0.187   5.046  14.854 -1.7971 -2.0274  1.6125
 8051TIP3    H245569   0.118   5.046  14.719  0.0808 -2.8571  0.6077
 8052TIP3   OH245570   0.215   4.377  14.479 -0.0325 -0.2762  0.2069
 8052TIP3    H145571   0.195   4.348  14.390 -2.2298 -1.9942  1.1540
 8052TIP3    H245572   0.146   4.441  14.498 -0.6208 -1.1672  1.1957
 8053TIP3   OH245573   4.534   4.491   2.815  0.0707  0.0809 -0.3388
 8053TIP3    H145574   4.556   4.553   2.746 -0.1451 -0.8346 -1.2636
 8053TIP3    H245575   4.526   4.407   2.770  1.2463 -0.7977  1.0124
 8054TIP3   OH245576   5.159   4.660  14.179  0.3082 -0.0411 -0.1628
 8054TIP3    H145577   5.245   4.654  14.138 -0.1582 -0.0781 -1.1745
 8054TIP3    H245578   5.159   4.590  14.245  2.0136  1.6723  1.7776
 8055TIP3   OH245579   2.066   2.418   0.843  0.1056 -0.0620 -0.0433
 8055TIP3    H145580   2.034   2.508   0.854  0.0033 -0.2147  0.9593
 8055TIP3    H245581   1.987   2.366   0.827  0.1830  0.0466 -0.8149
 8056TIP3   OH245582   5.845   2.533  10.062  0.7486  0.3064  0.0178
 8056TIP3    H145583   5.807   2.620  10.078  1.4564  0.2899  2.1979
 8056TIP3    H245584   5.822   2.513   9.972 -1.2965  1.8412  0.1116
 8057TIP3   OH245585   5.316   2.061  13.283  0.1923  0.5168  0.0072
 8057TIP3    H145586   5.365   2.031  13.360  0.3004 -1.3002 -0.7270
 8057TIP3    H245587   5.234   2.095  13.318  0.9628  1.3859  1.0541
 8058TIP3   OH245588   0.200   5.561   5.160 -0.8497  0.1418 -0.1415
 8058TIP3    H145589   0.121   5.532   5.113 -0.8685 -1.3096  0.7380
 8058TIP3    H245590   0.173   5.641   5.204 -1.9901 -0.5675  0.5079
 8059TIP3   OH245591   3.747   6.668   0.859  0.2736 -0.0052 -0.0024
 8059TIP3    H145592   3.803   6.650   0.784  1.4328  0.8400  0.6383
 8059TIP3    H245593   3.780   6.750   0.896  0.0596 -0.6420  1.7223
 8060TIP3   OH245594   4.536   5.048   0.025 -0.4292  0.0565  0.2329
 8060TIP3    H145595   4.599   5.039  -0.047 -2.3745 -0.9935 -1.4587
 8060TIP3    H245596   4.553   4.972   0.081 -1.2923 -1.2906 -1.2185
 8061TIP3   OH245597   2.746   2.292   1.884 -0.1701  0.0156  0.6395
 8061TIP3    H145598   2.674   2.355   1.882 -0.0178  0.1930  0.6795
 8061TIP3    H245599   2.746   2.253   1.796 -1.1996 -1.0034  1.0734
 8062TIP3   OH245600   4.130   4.987   3.509  0.2030  0.2442 -0.2185
 8062TIP3    H145601   4.197   5.029   3.455 -0.8962  2.5041  0.1021
 8062TIP3    H245602   4.179   4.946   3.580  1.2874  1.6011 -0.1478
 8063TIP3   OH245603   6.229   5.310  13.330  0.0342 -0.4074 -0.3991
 8063TIP3    H145604   6.190   5.346  13.251  0.4302 -0.4568 -0.6167
 8063TIP3    H245605   6.213   5.216  13.324 -1.3413 -0.2567  0.3547
 8064TIP3   OH245606   4.287   5.298  13.413  0.1912  0.1808  1.2522
 8064TIP3    H145607   4.213   5.354  13.434 -0.4276 -0.2627  0.3543
 8064TIP3    H245608   4.363   5.355  13.419 -0.1580  0.5297  2.6561
 8065TIP3   OH245609   3.605   6.187   5.859  0.6164 -0.1660  0.2330
 8065TIP3    H145610   3.610   6.265   5.805  3.2580 -0.0566  0.4843
 8065TIP3    H245611   3.622   6.114   5.799  1.5874 -0.2112  0.5390
 8066TIP3   OH245612   5.101   5.816   2.195 -0.4745 -0.0060 -0.3727
 8066TIP3    H145613   5.196   5.815   2.188 -0.2934  2.3665  0.7689
 8066TIP3    H245614   5.081   5.749   2.261  0.2199 -1.4969 -1.6009
 8067TIP3   OH245615   6.621   3.702   5.450 -0.4756  0.1253 -0.0023
 8067TIP3    H145616   6.623   3.789   5.491  0.5475 -0.3581  1.0528
 8067TIP3    H245617   6.701   3.698   5.397 -1.1004  0.2403 -0.9623
 8068TIP3   OH245618   2.855   3.630  12.222 -0.8092 -0.4111 -0.3979
 8068TIP3    H145619   2.869   3.717  12.259  1.5801 -0.9147 -0.0110
 8068TIP3    H245620   2.919   3.622  12.152  0.6840 -2.7023  1.0938
 8069TIP3   OH245621   6.597   1.847  13.675 -0.0258  0.0494  0.2394
 8069TIP3    H145622   6.591   1.775  13.738 -0.3801  0.0916  0.2534
 8069TIP3    H245623   6.524   1.905  13.697  0.2825  0.4424  0.2603
 8070TIP3   OH245624   0.014   2.750  16.749  0.4424  0.6319 -0.0343
 8070TIP3    H145625   0.024   2.751  16.653  0.0323 -0.1253 -0.0931
 8070TIP3    H245626  -0.038   2.829  16.767  0.1442  0.5490 -0.4870
 8071TIP3   OH245627   0.719   4.298  16.842  0.5466 -0.4832  0.4958
 8071TIP3    H145628   0.647   4.322  16.900 -1.2206 -0.6954 -1.4766
 8071TIP3    H245629   0.798   4.315  16.893 -0.8919 -0.8855  2.9946
 8072TIP3   OH245630   2.440   4.344   2.893 -0.6879  1.2015  0.3509
 8072TIP3    H145631   2.485   4.418   2.852 -1.0443  2.0001  1.3796
 8072TIP3    H245632   2.478   4.337   2.980 -2.0916  1.4888  1.0159
 8073TIP3   OH245633   0.612   0.025  15.762 -0.1429 -0.2346  0.1664
 8073TIP3    H145634   0.649  -0.033  15.695  0.5637 -1.5084  1.6121
 8073TIP3    H245635   0.517   0.018  15.749 -0.0146 -0.3965 -0.7580
 8074TIP3   OH245636   0.563   4.972  12.072 -0.2131 -0.5173  0.4381
 8074TIP3    H145637   0.547   4.883  12.040  1.8211 -0.5141 -0.8262
 8074TIP3    H245638   0.536   5.028  12.000  1.4444 -0.3414 -0.1085
 8075TIP3   OH245639   5.290   4.983   4.189  0.2718 -0.6331  0.0994
 8075TIP3    H145640   5.370   5.022   4.155 -0.3600 -0.6304 -1.4755
 8075TIP3    H245641   5.219   5.031   4.145 -0.7800  1.5621  3.7652
 8076TIP3   OH245642   3.802   1.426  16.462  0.6736  0.3375  0.6447
 8076TIP3    H145643   3.749   1.348  16.479 -0.0936  0.4606 -0.9877
 8076TIP3    H245644   3.753   1.475  16.396  1.4393  1.9169  1.1978
 8077TIP3   OH245645   3.751   5.583  16.270  0.7939 -0.9335  0.0918
 8077TIP3    H145646   3.792   5.669  16.265 -1.9630  0.4540 -0.5215
 8077TIP3    H245647   3.750   5.562  16.364  1.2501 -0.1797  0.2682
 8078TIP3   OH245648   1.324   0.685   0.429 -0.7193 -0.5865 -0.6839
 8078TIP3    H145649   1.419   0.691   0.426 -0.6523 -0.9429  0.4196
 8078TIP3    H245650   1.298   0.673   0.337  0.2643 -0.1527 -1.0277
 8079TIP3   OH245651   2.902   6.291   4.119  0.5766 -0.0025 -0.0407
 8079TIP3    H145652   2.949   6.345   4.183  1.6921  0.0757 -0.8963
 8079TIP3    H245653   2.809   6.307   4.137  0.8812  0.7022  0.9678
 8080TIP3   OH245654   5.313   6.743  16.626 -0.8386  0.0465 -0.0283
 8080TIP3    H145655   5.366   6.809  16.670 -0.2601  0.0603 -0.7287
 8080TIP3    H245656   5.223   6.765  16.649 -0.5796  0.3166  0.7701
 8081TIP3   OH245657   5.922   6.211   4.641  0.2237  0.1595 -0.2164
 8081TIP3    H145658   5.940   6.263   4.720  0.2471 -0.1567 -0.0088
 8081TIP3    H245659   5.932   6.273   4.569  0.9016  0.2906 -0.0189
 8082TIP3   OH245660   4.707   0.412  11.287  0.3297 -0.1031 -0.2227
 8082TIP3    H145661   4.719   0.452  11.201 -1.4008 -0.5646 -0.7240
 8082TIP3    H245662   4.721   0.483  11.350 -1.3197  1.0009 -1.0351
 8083TIP3   OH245663   6.289   3.073  14.771 -0.2969 -0.6656  0.1571
 8083TIP3    H145664   6.217   3.103  14.715  0.7698 -1.3738 -1.6768
 8083TIP3    H245665   6.248   3.053  14.855 -2.2427 -1.0982 -0.8491
 8084TIP3   OH245666   1.565   5.351   4.377  0.2090 -0.0555  0.5540
 8084TIP3    H145667   1.637   5.288   4.378 -0.2097 -0.5394  0.4978
 8084TIP3    H245668   1.490   5.303   4.413 -0.1618  0.3503  0.3396
 8085TIP3   OH245669   1.696   2.742   2.497  0.0472  0.0873 -0.6648
 8085TIP3    H145670   1.773   2.696   2.464  2.2604  2.1223  1.2527
 8085TIP3    H245671   1.682   2.705   2.584  0.3787  1.3448 -0.0599
 8086TIP3   OH245672   2.756   5.253   5.132 -0.7548 -0.8459 -0.0662
 8086TIP3    H145673   2.760   5.207   5.215  1.1639  1.2427  1.1273
 8086TIP3    H245674   2.847   5.257   5.102 -1.0468  0.7858 -0.8586
 8087TIP3   OH245675   2.108   4.839  17.072 -0.1849 -0.2060  0.0879
 8087TIP3    H145676   2.156   4.913  17.109 -0.1911 -0.8560  1.4537
 8087TIP3    H245677   2.019   4.873  17.058  0.2934  0.5928 -1.1394
 8088TIP3   OH245678   3.244   2.322  13.415 -0.5212 -0.2376  0.1605
 8088TIP3    H145679   3.266   2.354  13.328  0.2158  0.7025  0.6738
 8088TIP3    H245680   3.148   2.317  13.415 -0.4784 -1.7616 -1.2059
 8089TIP3   OH245681   0.433   0.711   0.321  0.1638 -0.3829  0.1110
 8089TIP3    H145682   0.450   0.661   0.401  2.1358  0.8653  0.5531
 8089TIP3    H245683   0.519   0.742   0.294 -0.6778  0.5608 -1.6091
 8090TIP3   OH245684   6.002   4.669   5.739  0.1371  0.0188 -0.2224
 8090TIP3    H145685   6.081   4.654   5.792  0.3274  0.9992 -0.2123
 8090TIP3    H245686   5.934   4.617   5.782  0.5496 -0.0477  0.3580
 8091TIP3   OH245687   2.392   3.584   2.108 -0.4871 -0.6987  0.2867
 8091TIP3    H145688   2.309   3.536   2.109 -0.1222 -1.3513 -0.3915
 8091TIP3    H245689   2.366   3.676   2.107 -1.1954 -0.8728  1.0176
 8092TIP3   OH245690   2.444   0.794   1.117 -0.3203  0.0318 -0.0976
 8092TIP3    H145691   2.519   0.840   1.080  1.3660 -1.0895  1.6810
 8092TIP3    H245692   2.475   0.704   1.128 -1.6677 -0.2958  1.3546
 8093TIP3   OH245693   0.757   4.674  15.835 -0.4757  0.7704 -0.1575
 8093TIP3    H145694   0.745   4.657  15.741 -1.2879 -1.4900  0.2946
 8093TIP3    H245695   0.755   4.769  15.842 -0.9336  0.9926 -2.3600
 8094TIP3   OH245696   4.912   2.694  11.674 -0.0094 -0.0583 -0.0135
 8094TIP3    H145697   4.999   2.732  11.662  0.5541 -0.6520  1.8695
 8094TIP3    H245698   4.907   2.623  11.610  0.4462  0.6802 -0.8771
 8095TIP3   OH245699   2.916   2.194   2.154 -0.4392 -0.5616 -0.4763
 8095TIP3    H145700   2.915   2.158   2.065  0.3265 -1.2540 -0.2140
 8095TIP3    H245701   2.923   2.289   2.141 -0.5419 -0.6403 -1.1558
 8096TIP3   OH245702   0.157   5.385   4.154  0.1005 -0.0430  0.0747
 8096TIP3    H145703   0.124   5.338   4.077  0.7378 -0.5747  0.1230
 8096TIP3    H245704   0.230   5.438   4.121  0.1587 -0.0103  0.2536
 8097TIP3   OH245705   6.269   5.500  15.418  0.5164  0.1522  0.9561
 8097TIP3    H145706   6.251   5.508  15.512  1.6176  2.3422  1.0499
 8097TIP3    H245707   6.338   5.565  15.401 -0.5959  0.7831 -1.6280
 8098TIP3   OH245708   3.506   5.330   0.527 -0.0938 -0.0108 -0.3271
 8098TIP3    H145709   3.531   5.363   0.614  1.6678 -0.0931 -0.7547
 8098TIP3    H245710   3.530   5.238   0.528 -0.8661 -0.2205 -0.6251
 8099TIP3   OH245711   0.279   5.226  12.178 -0.7116  0.4790  0.0826
 8099TIP3    H145712   0.318   5.155  12.229 -0.3438 -1.4925 -2.7174
 8099TIP3    H245713   0.187   5.228  12.207 -1.2602 -2.5525 -1.0304
 8100TIP3   OH245714   4.147   6.661  15.781  0.0833 -0.2472  0.5261
 8100TIP3    H145715   4.177   6.724  15.716  0.2647 -1.5887 -0.7625
 8100TIP3    H245716   4.194   6.580  15.759 -0.4270 -0.9412  1.8612
 8101TIP3   OH245717   3.975   1.875   1.219 -0.3374 -0.7770  0.4093
 8101TIP3    H145718   3.924   1.805   1.177  1.2008 -0.6776 -1.8053
 8101TIP3    H245719   4.053   1.832   1.253  0.8610 -0.1646 -1.4025
 8102TIP3   OH245720   1.684   1.223   4.738  0.6522 -0.6193 -0.3112
 8102TIP3    H145721   1.668   1.317   4.733 -1.2219 -0.8830 -0.2282
 8102TIP3    H245722   1.774   1.215   4.768 -0.0119  1.1880  2.6441
 8103TIP3   OH245723   0.868   2.292  17.060  0.2760 -0.5110  0.3496
 8103TIP3    H145724   0.834   2.203  17.070  2.7480 -1.6032 -0.1600
 8103TIP3    H245725   0.823   2.342  17.128 -1.1615 -2.1356  0.6841
 8104TIP3   OH245726   2.071   3.621   0.540  0.3953  0.6147  0.7670
 8104TIP3    H145727   2.007   3.624   0.470 -0.2520  1.2232  1.3737
 8104TIP3    H245728   2.147   3.578   0.501 -0.0799  0.6241 -0.1936
 8105TIP3   OH245729   3.225   1.007   5.282  0.1638  0.0982 -0.8151
 8105TIP3    H145730   3.246   0.937   5.343  1.5808  1.5764  0.4699
 8105TIP3    H245731   3.132   1.026   5.297  0.6054  0.7685  1.2650
 8106TIP3   OH245732   4.836   1.379  14.274 -0.0425  0.0915 -0.0027
 8106TIP3    H145733   4.758   1.391  14.329  0.3592 -2.4510  1.2482
 8106TIP3    H245734   4.904   1.431  14.317 -0.3220  0.0078  0.5483
 8107TIP3   OH245735   1.110   4.246   0.283 -0.7201 -0.2489 -0.0725
 8107TIP3    H145736   1.020   4.237   0.314 -0.9318  2.5194  0.3576
 8107TIP3    H245737   1.162   4.256   0.362 -0.0939 -1.1172 -0.3536
 8108TIP3   OH245738   6.442   6.613   1.942 -0.6717  0.5789  0.3059
 8108TIP3    H145739   6.445   6.608   1.847 -1.1037  0.4417  0.2941
 8108TIP3    H245740   6.527   6.581   1.971 -1.3700 -1.7609  0.0384
 8109TIP3   OH245741   5.057   6.248   5.069 -0.4689 -0.2980 -0.3594
 8109TIP3    H145742   4.996   6.311   5.031 -0.3940 -0.6373 -1.0472
 8109TIP3    H245743   5.019   6.162   5.050 -1.0866 -0.4695  1.4390
 8110TIP3   OH245744   3.492   3.525  16.315 -0.5742 -0.0895  0.3672
 8110TIP3    H145745   3.457   3.437  16.326 -1.3897  0.3718  1.7034
 8110TIP3    H245746   3.414   3.580  16.305 -0.1425  0.6641  1.0751
 8111TIP3   OH245747   6.321   4.928  15.847 -0.0328 -0.2607  0.1410
 8111TIP3    H145748   6.246   4.878  15.879 -2.0490  1.6529 -1.2972
 8111TIP3    H245749   6.369   4.866  15.792 -0.3006 -1.6472  1.4088
 8112TIP3   OH245750   3.585   0.118   2.312  0.0416  0.4995  0.2869
 8112TIP3    H145751   3.677   0.098   2.295  0.5247  1.6893  1.3342
 8112TIP3    H245752   3.582   0.140   2.405 -1.0661  1.7178  0.0014
 8113TIP3   OH245753   5.950   3.461  12.609 -0.4427 -0.1417 -0.0334
 8113TIP3    H145754   5.910   3.508  12.682 -1.9454 -2.9116  1.0516
 8113TIP3    H245755   6.000   3.390  12.650  0.2811 -0.6160 -1.6450
 8114TIP3   OH245756   4.043   1.440   5.802 -0.6136 -0.6259 -0.1261
 8114TIP3    H145757   4.084   1.355   5.820  0.2028 -0.5966 -1.6831
 8114TIP3    H245758   3.965   1.418   5.750 -1.3213 -0.5135  0.8551
 8115TIP3   OH245759   0.653   0.335   4.021  0.5132 -0.0097 -0.1491
 8115TIP3    H145760   0.561   0.358   4.004 -0.1560 -1.5001  1.1442
 8115TIP3    H245761   0.671   0.265   3.958  0.2519 -0.7361  0.5556
 8116TIP3   OH245762   5.653   3.395   5.310 -0.6039 -0.3431 -0.4365
 8116TIP3    H145763   5.678   3.342   5.234 -0.0025  1.3911 -1.5082
 8116TIP3    H245764   5.711   3.365   5.380 -2.8489 -3.7597  0.1975
 8117TIP3   OH245765   0.718   1.467   0.073  0.1954  0.1148  0.4447
 8117TIP3    H145766   0.631   1.438   0.101 -0.1253  0.3021 -0.3307
 8117TIP3    H245767   0.716   1.562   0.083  1.5548 -0.0855  3.8517
 8118TIP3   OH245768   6.439   4.686  15.755  0.0110 -0.0219  0.0451
 8118TIP3    H145769   6.416   4.607  15.706  3.1818 -0.5631 -0.8173
 8118TIP3    H245770   6.517   4.662  15.805  1.5279  2.6798 -0.7844
 8119TIP3   OH245771   2.114   0.517   1.878  0.1324 -0.7278 -0.0366
 8119TIP3    H145772   2.029   0.473   1.886 -0.3315  0.4067  1.7170
 8119TIP3    H245773   2.157   0.502   1.962  1.1945 -0.3001 -0.4884
 8120TIP3   OH245774   6.171   4.816  11.622 -0.0894 -0.4076  0.5722
 8120TIP3    H145775   6.104   4.883  11.619 -1.8494 -2.1122 -0.4181
 8120TIP3    H245776   6.252   4.863  11.644 -1.5199  1.7505  1.5444
 8121TIP3   OH245777   1.990   6.200   4.517  0.6066 -0.2870  0.3074
 8121TIP3    H145778   2.033   6.238   4.441  0.1367 -1.1634 -0.4070
 8121TIP3    H245779   2.062   6.174   4.574  0.9547  1.3484  0.6904
 8122TIP3   OH245780   6.311   1.206   0.133 -0.1779  0.6982 -0.4898
 8122TIP3    H145781   6.400   1.203   0.169 -0.4203 -0.0674  0.0813
 8122TIP3    H245782   6.259   1.249   0.201 -0.6965 -1.0163  0.2830
 8123TIP3   OH245783   0.620   2.501  13.733 -0.6241  0.6521  0.0984
 8123TIP3    H145784   0.602   2.546  13.815 -0.8252 -0.7427  0.8464
 8123TIP3    H245785   0.662   2.567  13.678 -1.7725  2.0078  0.7980
 8124TIP3   OH245786   2.279   3.550   3.918 -0.0183  0.1501 -0.2816
 8124TIP3    H145787   2.351   3.488   3.907  0.5512  0.7439  0.0355
 8124TIP3    H245788   2.227   3.542   3.838 -0.5613 -1.5117  0.2111
 8125TIP3   OH245789   6.627   5.351  14.534  0.0365  0.0832  0.2152
 8125TIP3    H145790   6.700   5.390  14.485  0.0909 -0.9674 -0.5485
 8125TIP3    H245791   6.670   5.297  14.601 -0.0481  0.4061  0.5355
 8126TIP3   OH245792   4.946   6.693  15.954  0.0515 -0.4401 -0.2581
 8126TIP3    H145793   4.878   6.750  15.993  0.9891  0.0187  0.7604
 8126TIP3    H245794   4.940   6.612  16.004  0.5311 -0.2461  0.1150
 8127TIP3   OH245795   0.517   0.589  16.772  0.1851  0.1978  0.0852
 8127TIP3    H145796   0.536   0.587  16.679  0.8260  0.4704  0.2040
 8127TIP3    H245797   0.589   0.542  16.813  0.4404  0.9307  0.5135
 8128TIP3   OH245798   0.039   1.111   1.844  0.1683 -0.4327 -0.0144
 8128TIP3    H145799   0.041   1.194   1.892  0.9733  0.4777 -1.5554
 8128TIP3    H245800  -0.047   1.074   1.864 -0.1964  0.7602  0.7174
 8129TIP3   OH245801   3.756   0.508  14.123  0.3805  0.2714  0.0214
 8129TIP3    H145802   3.678   0.461  14.093 -0.0408  0.0191  1.4702
 8129TIP3    H245803   3.824   0.442  14.127  0.2674  0.1712  0.2691
 8130TIP3   OH245804   5.560   6.370   3.793 -0.1267  0.2218 -0.4007
 8130TIP3    H145805   5.580   6.378   3.700  1.3139 -1.4540 -0.2917
 8130TIP3    H245806   5.479   6.320   3.796 -0.2090  0.3300 -0.7513
 8131TIP3   OH245807   4.710   2.958  12.869 -0.0393  0.1226 -0.3940
 8131TIP3    H145808   4.805   2.951  12.881  0.3748  2.9147 -1.3382
 8131TIP3    H245809   4.676   2.984  12.954  0.6589  3.0541 -0.8983
 8132TIP3   OH245810   0.180   3.211  14.416  0.0551  0.2674  0.2545
 8132TIP3    H145811   0.228   3.209  14.499  0.9288 -0.3756 -0.2380
 8132TIP3    H245812   0.127   3.290  14.420  1.7919  1.4673  0.4997
 8133TIP3   OH245813   6.351   3.715   5.549  0.3696 -0.1714  0.2511
 8133TIP3    H145814   6.311   3.737   5.465 -0.6159  0.0862  0.7625
 8133TIP3    H245815   6.440   3.689   5.528  0.0724 -0.3081 -0.8919
 8134TIP3   OH245816   3.681   0.836   5.029  0.0997 -0.5637 -0.3753
 8134TIP3    H145817   3.590   0.859   5.008  0.1488 -0.9161 -0.9847
 8134TIP3    H245818   3.716   0.798   4.949  1.2246  0.8394 -0.5931
 8135TIP3   OH245819   4.412   6.811   1.343 -0.0587 -0.4880 -0.4248
 8135TIP3    H145820   4.503   6.785   1.362 -0.1457 -0.6498 -0.2276
 8135TIP3    H245821   4.361   6.771   1.413 -0.1313  0.7077  0.2468
 8136TIP3   OH245822   5.256   6.755   3.677 -0.2295  0.1959 -0.1722
 8136TIP3    H145823   5.262   6.849   3.662  0.0758  0.0797 -0.8511
 8136TIP3    H245824   5.192   6.724   3.613  0.0954 -0.1361 -0.3410
 8137TIP3   OH245825   1.926   0.726  15.303  0.2278  0.4433  0.7274
 8137TIP3    H145826   1.953   0.763  15.218 -1.0840 -1.7600 -0.7412
 8137TIP3    H245827   1.848   0.776  15.326 -0.6101 -0.2803 -0.4316
 8138TIP3   OH245828   3.320   1.856  15.702 -0.4701 -0.2674  0.3677
 8138TIP3    H145829   3.328   1.927  15.766 -0.9739 -0.2760  0.4456
 8138TIP3    H245830   3.252   1.886  15.641 -1.3367 -1.0473  0.9105
 8139TIP3   OH245831   6.767   5.351   0.846 -0.3082  0.6307  0.1270
 8139TIP3    H145832   6.776   5.259   0.871 -0.2596  0.9391  1.3070
 8139TIP3    H245833   6.676   5.359   0.817 -0.0555  0.0171 -0.9010
 8140TIP3   OH245834   3.030   2.604  15.813  0.3047  0.0835 -0.2134
 8140TIP3    H145835   3.101   2.565  15.863  0.0746 -0.1910 -0.0938
 8140TIP3    H245836   2.954   2.549  15.834 -0.6897  2.1669  2.1069
 8141TIP3   OH245837   5.346   2.229  14.762  0.2875  0.3778 -0.0245
 8141TIP3    H145838   5.312   2.310  14.801 -2.4056  0.1781 -1.7207
 8141TIP3    H245839   5.269   2.183  14.731  1.9032 -1.9950 -0.7983
 8142TIP3   OH245840   2.961   1.176  10.943 -0.7623  0.1656  0.3270
 8142TIP3    H145841   3.009   1.224  10.876 -1.0961  0.8021  0.5434
 8142TIP3    H245842   2.876   1.158  10.904 -0.3986 -0.8637 -0.0138
 8143TIP3   OH245843   4.432   4.319   0.690  0.2293 -0.2729  0.1077
 8143TIP3    H145844   4.464   4.370   0.764  1.2831 -1.2704  0.3733
 8143TIP3    H245845   4.428   4.381   0.617 -2.3610  1.1399  1.2956
 8144TIP3   OH245846   1.718   4.016   0.470  0.6616 -0.1314  0.1971
 8144TIP3    H145847   1.739   3.953   0.401 -0.0391 -1.0724  0.8074
 8144TIP3    H245848   1.764   3.982   0.547 -1.2675 -1.0155  1.0126
 8145TIP3   OH245849   1.131   0.420   5.631  0.0090  0.2611  0.0082
 8145TIP3    H145850   1.159   0.492   5.575 -0.9246  0.9515  0.4052
 8145TIP3    H245851   1.045   0.446   5.662  0.9345  0.4126  2.6703
 8146TIP3   OH245852   4.124   0.079  12.623 -0.3313 -0.3281 -0.0817
 8146TIP3    H145853   4.078  -0.002  12.598 -0.3295 -0.5718  0.6785
 8146TIP3    H245854   4.181   0.098  12.548 -0.2681 -1.0817 -0.2321
 8147TIP3   OH245855   0.362   4.238   2.914  0.3840 -0.5115 -0.4727
 8147TIP3    H145856   0.441   4.238   2.968  0.6920  0.3451 -0.9088
 8147TIP3    H245857   0.315   4.317   2.939  0.0988 -0.5606 -0.8424
 8148TIP3   OH245858   1.006   2.325   0.846  0.7458 -0.0430  0.1410
 8148TIP3    H145859   0.976   2.381   0.774  0.8526 -0.8222 -0.5162
 8148TIP3    H245860   0.931   2.268   0.864  0.7486  0.0950  0.6031
 8149TIP3   OH245861   3.930   0.143  15.579 -0.3752  0.2073 -0.4261
 8149TIP3    H145862   4.019   0.109  15.584  0.2273  1.4588 -1.7082
 8149TIP3    H245863   3.901   0.123  15.490  0.2475  3.4215 -1.4701
 8150TIP3   OH245864   5.953   3.257   2.865  0.1539 -0.1999  0.1186
 8150TIP3    H145865   5.901   3.318   2.812  0.6000  0.9610  0.9572
 8150TIP3    H245866   6.038   3.300   2.874 -0.5412  0.7815  3.5679
 8151TIP3   OH245867   4.520   3.949   6.428 -0.0347 -0.3190  0.2102
 8151TIP3    H145868   4.596   3.907   6.468  0.1725 -0.4404 -0.3120
 8151TIP3    H245869   4.445   3.911   6.473  0.2337  0.6079  1.5195
 8152TIP3   OH245870   1.881   0.074   4.285  0.3301 -0.0441 -0.2082
 8152TIP3    H145871   1.790   0.097   4.301  0.2438 -0.5539  0.0693
 8152TIP3    H245872   1.914   0.050   4.372  0.5527 -0.4698 -0.4115
 8153TIP3   OH245873   1.805   3.399   5.197 -0.5100 -0.6965 -0.0700
 8153TIP3    H145874   1.900   3.413   5.205 -0.6692  0.6710 -0.2236
 8153TIP3    H245875   1.796   3.322   5.141  0.5152 -0.9961  0.1596
 8154TIP3   OH245876   3.844   5.012  14.661 -0.0659 -0.1662  0.2568
 8154TIP3    H145877   3.802   4.957  14.727  0.7435  0.2165  1.1119
 8154TIP3    H245878   3.927   4.968  14.642 -0.2319 -0.2028 -0.4115
 8155TIP3   OH245879   2.698   6.035   0.850  0.0214 -0.6350 -0.0911
 8155TIP3    H145880   2.787   6.011   0.878 -0.2120 -2.1942 -0.6004
 8155TIP3    H245881   2.711   6.109   0.791  0.7683  0.6694  1.6132
 8156TIP3   OH245882   0.817   3.759   3.166  0.1440  0.2083 -0.2081
 8156TIP3    H145883   0.727   3.758   3.199  0.4477 -0.1075  0.6339
 8156TIP3    H245884   0.815   3.822   3.094 -0.8731 -0.1936 -0.5520
 8157TIP3   OH245885   2.878   6.534   0.575 -0.4034 -0.2484 -0.2204
 8157TIP3    H145886   2.864   6.624   0.547 -1.1806 -0.0347  0.7989
 8157TIP3    H245887   2.966   6.534   0.614 -0.2978  0.0004 -0.4564
 8158TIP3   OH245888   3.301   2.656  16.213 -0.1024  0.5903  0.3431
 8158TIP3    H145889   3.257   2.617  16.288  1.0754 -0.3365  0.5631
 8158TIP3    H245890   3.365   2.716  16.251 -0.3582  1.0666  0.0389
 8159TIP3   OH245891   6.740   3.816  11.425  0.2869  0.1541  0.1655
 8159TIP3    H145892   6.701   3.806  11.338  1.2323  1.1497 -0.4061
 8159TIP3    H245893   6.702   3.897  11.458 -0.2229 -0.3305  0.7705
 8160TIP3   OH245894   3.571   6.565  13.238 -0.1022  0.5107 -0.5031
 8160TIP3    H145895   3.578   6.660  13.251 -0.2179  0.1871  2.6477
 8160TIP3    H245896   3.643   6.545  13.177 -1.0963  2.7427 -2.6211
 8161TIP3   OH245897   1.777   5.621  15.830  0.0373  0.4326 -0.2063
 8161TIP3    H145898   1.789   5.711  15.858 -0.8687  0.5548 -0.1864
 8161TIP3    H245899   1.838   5.570  15.884 -1.3636  0.7063  1.7511
 8162TIP3   OH245900   0.572   5.681   1.682 -0.0406  0.1064 -0.7207
 8162TIP3    H145901   0.569   5.760   1.629  0.6715  1.1241  0.6804
 8162TIP3    H245902   0.491   5.634   1.660 -0.4352  1.1760 -1.6333
 8163TIP3   OH245903   1.914   2.316  12.895  0.2915  0.0595  0.1920
 8163TIP3    H145904   1.955   2.230  12.893 -1.5594 -0.8831  0.7551
 8163TIP3    H245905   1.931   2.349  12.983  1.7950  0.7278 -0.3082
 8164TIP3   OH245906   4.052   1.041  11.207  0.3865  0.2711  0.0557
 8164TIP3    H145907   3.978   0.990  11.238  0.2388 -0.0398 -0.7661
 8164TIP3    H245908   4.047   1.035  11.111  0.3404  1.8597 -0.0800
 8165TIP3   OH245909   4.602   0.372   0.375  0.2332  0.1285  0.0189
 8165TIP3    H145910   4.512   0.360   0.345 -0.1614  1.6638  0.4875
 8165TIP3    H245911   4.626   0.459   0.345  1.8674 -0.5548 -0.7666
 8166TIP3   OH245912   0.681   2.373   0.603  0.3434 -0.2726  0.0938
 8166TIP3    H145913   0.755   2.389   0.661 -0.6132 -1.0603  1.6121
 8166TIP3    H245914   0.605   2.369   0.661 -0.9183  0.5387 -1.4150
 8167TIP3   OH245915   2.701   5.375   2.402  0.7328 -0.6634 -0.0129
 8167TIP3    H145916   2.779   5.321   2.389  0.1802 -1.9281  1.6244
 8167TIP3    H245917   2.688   5.376   2.497 -0.4410  0.7208 -0.1479
 8168TIP3   OH245918   2.591   3.356   0.290  0.1518  0.1584 -0.8146
 8168TIP3    H145919   2.665   3.376   0.233  0.4692  1.2729 -0.0447
 8168TIP3    H245920   2.628   3.295   0.355  0.1870  0.0970 -0.8918
 8169TIP3   OH245921   4.772   0.088  14.807 -0.7941 -0.4461  0.5995
 8169TIP3    H145922   4.742   0.067  14.718  0.1869 -0.1358  0.1840
 8169TIP3    H245923   4.835   0.159  14.795  0.1953 -1.1587  1.4253
 8170TIP3   OH245924   4.938   0.876  11.292 -0.0741 -0.2214 -0.2558
 8170TIP3    H145925   4.893   0.845  11.371 -0.3042  1.2628  0.2199
 8170TIP3    H245926   4.867   0.893  11.229 -0.1549  1.2542  0.1898
 8171TIP3   OH245927   3.390   3.880  16.997  0.2616 -0.1873  0.1823
 8171TIP3    H145928   3.403   3.910  17.087 -1.7062  1.8983 -0.1306
 8171TIP3    H245929   3.429   3.948  16.943 -0.4714 -0.3187 -0.5438
 8172TIP3   OH245930   4.430   5.973   0.972 -0.4737  0.3335 -0.2337
 8172TIP3    H145931   4.481   6.032   1.028 -1.0282 -1.3012  2.1796
 8172TIP3    H245932   4.428   6.015   0.887  1.1954  2.5626  0.7472
 8173TIP3   OH245933   5.475   3.616   0.616  0.4333 -0.1634 -0.4798
 8173TIP3    H145934   5.482   3.537   0.563  0.1756 -0.3959 -0.1715
 8173TIP3    H245935   5.557   3.663   0.600 -0.0058  0.1939 -1.7359
 8174TIP3   OH245936   1.963   4.166  10.625  0.2626 -0.3557  0.2003
 8174TIP3    H145937   1.960   4.192  10.717  0.6896 -1.6846  0.6140
 8174TIP3    H245938   2.049   4.193  10.595  0.2535 -0.2280  0.2886
 8175TIP3   OH245939   4.963   2.050  13.068  0.3165 -0.0898  0.5607
 8175TIP3    H145940   4.887   2.071  13.123  1.8094  1.2968  2.2076
 8175TIP3    H245941   4.994   2.134  13.037  2.1995 -0.4545  1.3522
 8176TIP3   OH245942   6.310   1.225   2.003 -0.7354 -0.1724  0.0693
 8176TIP3    H145943   6.328   1.132   1.987 -1.2165 -0.4370  0.9394
 8176TIP3    H245944   6.215   1.232   1.997 -0.5666  0.7296 -2.1662
 8177TIP3   OH245945   0.505   6.389  16.384 -0.2945 -0.3406  0.1050
 8177TIP3    H145946   0.469   6.417  16.468  0.5541 -2.0413  1.1014
 8177TIP3    H245947   0.430   6.390  16.324 -0.5470  2.7128  0.3254
 8178TIP3   OH245948   2.108   6.722   5.327  0.8591 -0.7604 -0.1057
 8178TIP3    H145949   2.071   6.697   5.242  0.7540 -2.7849  0.4878
 8178TIP3    H245950   2.032   6.743   5.381  0.6594 -2.5703  0.3899
 8179TIP3   OH245951   0.603   5.223   4.340 -0.1028 -0.2745 -0.0846
 8179TIP3    H145952   0.567   5.263   4.260 -0.3358 -1.6140 -0.6722
 8179TIP3    H245953   0.656   5.293   4.379 -1.5329  1.0287 -0.3757
 8180TIP3   OH245954   5.147   4.675   0.394 -0.7924 -0.1527  0.7013
 8180TIP3    H145955   5.087   4.643   0.327 -0.7150 -0.4618  0.7801
 8180TIP3    H245956   5.229   4.690   0.348 -1.0490  0.6920  0.5019
 8181TIP3   OH245957   3.075   1.695  11.287 -0.1317  0.1136 -0.3558
 8181TIP3    H145958   3.051   1.604  11.269  1.1751 -0.0397 -1.4826
 8181TIP3    H245959   3.008   1.726  11.347 -0.1515 -1.8294  0.6865
 8182TIP3   OH245960   2.862   0.660   5.167  0.0962 -0.3306  0.6837
 8182TIP3    H145961   2.957   0.673   5.157  0.0591 -1.6770 -2.4846
 8182TIP3    H245962   2.854   0.576   5.212  0.5093 -1.3984 -1.1252
 8183TIP3   OH245963   6.266   3.247   1.027  0.0221  0.6862  0.5553
 8183TIP3    H145964   6.327   3.262   1.099 -1.5299  0.6379  1.9430
 8183TIP3    H245965   6.288   3.160   0.995 -0.4231 -0.0664  2.2059
 8184TIP3   OH245966   5.300   0.010   3.146  0.1985  0.6688 -0.2441
 8184TIP3    H145967   5.237  -0.016   3.079 -0.1351  0.9854 -0.0548
 8184TIP3    H245968   5.246   0.040   3.219  0.5108 -1.1468  0.7886
 8185TIP3   OH245969   2.540   3.323   1.239  0.0334 -0.2351  0.0645
 8185TIP3    H145970   2.624   3.300   1.278 -0.0925  1.3254  1.3774
 8185TIP3    H245971   2.475   3.294   1.303 -0.2672  0.7888  0.2447
 8186TIP3   OH245972   1.021   1.439  13.534  0.4823  0.2569 -0.0149
 8186TIP3    H145973   1.065   1.358  13.509 -0.4247  0.0084 -0.8814
 8186TIP3    H245974   1.054   1.505  13.472 -1.5615 -0.3005 -1.8350
 8187TIP3   OH245975   6.606   5.788  17.070 -0.1580  0.7516  0.3569
 8187TIP3    H145976   6.656   5.757  16.994 -0.0843  2.4615 -0.3464
 8187TIP3    H245977   6.528   5.733  17.072 -0.4816  1.0764 -1.3779
 8188TIP3   OH245978   5.938   2.911   4.144  0.3327 -0.1521 -0.3416
 8188TIP3    H145979   5.869   2.861   4.186 -1.4484  1.7884 -0.7880
 8188TIP3    H245980   5.935   2.884   4.052 -1.3188  1.3590 -0.7977
 8189TIP3   OH245981   0.630   4.954  16.612  0.3597 -0.1466 -0.1636
 8189TIP3    H145982   0.599   5.024  16.556 -0.7189 -0.2605  0.2763
 8189TIP3    H245983   0.724   4.971  16.622  0.3280  0.5672 -0.9841
 8190TIP3   OH245984   1.499   5.583   3.186 -0.3087 -0.3320 -0.0441
 8190TIP3    H145985   1.546   5.527   3.124  0.6415  0.7598 -0.3618
 8190TIP3    H245986   1.553   5.580   3.266 -0.4203 -0.1296  0.0385
 8191TIP3   OH245987   0.043   2.861   0.678  0.3322 -0.6342  0.0996
 8191TIP3    H145988  -0.043   2.831   0.651  0.9883 -1.4878 -1.1552
 8191TIP3    H245989   0.068   2.801   0.748  0.8205 -1.8600 -1.0762
 8192TIP3   OH245990   5.351   5.127  15.434  0.2349  0.0477 -0.4706
 8192TIP3    H145991   5.316   5.041  15.413  0.1687 -0.3895  1.2542
 8192TIP3    H245992   5.275   5.179  15.460  0.4862 -0.0125  0.4430
 8193TIP3   OH245993   0.737   3.185  16.269  0.1529 -0.0564  0.2489
 8193TIP3    H145994   0.691   3.113  16.225 -0.5045  1.3067 -1.4279
 8193TIP3    H245995   0.828   3.175  16.241 -0.1130  0.3116 -0.8078
 8194TIP3   OH245996   0.222   2.789  15.235  0.8378 -0.0264  0.0819
 8194TIP3    H145997   0.266   2.713  15.195 -0.7063 -1.1709  0.4649
 8194TIP3    H245998   0.171   2.752  15.307  0.9506  1.5576  1.0228
 8195TIP3   OH245999   2.080   3.940   3.877 -0.7666  0.4124  0.0180
 8195TIP3    H146000   1.992   3.912   3.852 -0.2531 -1.4165  0.0616
 8195TIP3    H246001   2.111   3.870   3.935  0.5746  1.2003  0.2883
 8196TIP3   OH246002   1.396   0.340  11.860 -0.1028 -0.3113  0.4996
 8196TIP3    H146003   1.386   0.365  11.951 -0.2402  0.0316  0.3900
 8196TIP3    H246004   1.310   0.355  11.821 -0.1625 -0.8514  0.4058
 8197TIP3   OH246005   3.671   2.605  12.288  0.0923  0.0133 -0.2096
 8197TIP3    H146006   3.762   2.617  12.315 -0.1974  0.2096  0.7389
 8197TIP3    H246007   3.633   2.692  12.290 -0.1680 -0.0936 -0.4028
 8198TIP3   OH246008   4.243   4.846   1.205 -0.3786 -0.2258  0.2638
 8198TIP3    H146009   4.184   4.918   1.227  0.0756  0.2056  0.0957
 8198TIP3    H246010   4.330   4.886   1.207 -0.1982 -0.5589 -0.7187
 8199TIP3   OH246011   2.509   4.292  15.278 -0.0962  0.3417 -0.2530
 8199TIP3    H146012   2.493   4.276  15.371  0.6364 -0.2640 -0.2162
 8199TIP3    H246013   2.552   4.377  15.276 -1.3991  1.0207 -0.1769
 8200TIP3   OH246014   5.864   0.137   2.145  0.2367  0.8740 -0.1113
 8200TIP3    H146015   5.780   0.093   2.161  0.8646 -0.8768 -1.2898
 8200TIP3    H246016   5.854   0.178   2.059 -0.0021  2.2313  0.5473
 8201TIP3   OH246017   6.436   2.061   2.748 -0.2494 -0.3219 -0.5674
 8201TIP3    H146018   6.417   2.081   2.840  1.5745 -1.6139  0.1518
 8201TIP3    H246019   6.467   2.144   2.711  0.1395 -0.0503  0.3345
 8202TIP3   OH246020   1.012   4.655   2.730 -0.0749  0.2861 -0.5934
 8202TIP3    H146021   1.024   4.656   2.825 -0.3418  1.1069 -0.5598
 8202TIP3    H246022   1.100   4.639   2.695 -0.1671 -1.1903 -0.1927
 8203TIP3   OH246023   3.844   1.797   2.610  0.5601 -0.3150  0.2093
 8203TIP3    H146024   3.822   1.798   2.703  0.3661 -1.9140  0.2040
 8203TIP3    H246025   3.933   1.762   2.606 -0.1134 -2.0697 -0.2893
 8204TIP3   OH246026   1.734   3.125  14.292 -0.2864 -0.1493 -0.3298
 8204TIP3    H146027   1.827   3.126  14.315 -0.3368  0.3811 -0.1435
 8204TIP3    H246028   1.727   3.181  14.215 -0.5315  0.2616 -0.0171
 8205TIP3   OH246029   2.061   5.366   3.014 -0.0101  0.2820  0.0023
 8205TIP3    H146030   2.134   5.306   3.026 -0.6293 -0.3140  0.8296
 8205TIP3    H246031   1.992   5.314   2.972 -1.2671 -0.1711  2.4595
 8206TIP3   OH246032   1.812   3.404  14.391  0.2043 -0.2540 -0.1594
 8206TIP3    H146033   1.725   3.372  14.368 -0.6128  1.4080  0.4499
 8206TIP3    H246034   1.829   3.366  14.477  0.0573 -0.5531 -0.2616
 8207TIP3   OH246035   4.523   2.843   5.158 -0.1421  0.0173  0.2807
 8207TIP3    H146036   4.544   2.935   5.143 -0.5780  0.7909  3.5138
 8207TIP3    H246037   4.454   2.845   5.224 -1.0153 -2.6537 -0.4466
 8208TIP3   OH246038   1.324   3.040  14.054 -0.5004  0.3134  0.1697
 8208TIP3    H146039   1.248   3.052  13.997 -0.9221  1.3301  0.9208
 8208TIP3    H246040   1.400   3.059  13.997 -0.8621  0.4397 -0.2791
 8209TIP3   OH246041   5.415   1.459  13.544 -0.6519  0.6442  0.4196
 8209TIP3    H146042   5.444   1.393  13.606 -0.9109  0.3602  0.2414
 8209TIP3    H246043   5.463   1.439  13.463 -1.0863  0.3723  0.2207
 8210TIP3   OH246044   3.514   6.768  15.470  0.1308 -0.4414 -0.1270
 8210TIP3    H146045   3.573   6.765  15.546  0.1530 -0.5999 -0.1505
 8210TIP3    H246046   3.510   6.860  15.447  2.0266 -0.6369 -1.4240
 8211TIP3   OH246047   1.752   3.917  11.600  0.0012 -0.3793  0.0293
 8211TIP3    H146048   1.843   3.934  11.577  0.1247  0.0912  0.8166
 8211TIP3    H246049   1.744   3.950  11.690 -1.3671  1.1120 -0.5904
 8212TIP3   OH246050   6.309   5.963   3.452 -0.6364  0.1285 -0.4202
 8212TIP3    H146051   6.285   5.994   3.365  0.6312 -0.5189 -1.0234
 8212TIP3    H246052   6.244   6.002   3.510 -0.0800  2.5561 -1.3322
 8213TIP3   OH246053   4.654   1.216   1.282 -0.0247 -0.0055 -0.5293
 8213TIP3    H146054   4.630   1.187   1.194  1.4858  1.5672 -1.5342
 8213TIP3    H246055   4.629   1.308   1.284  1.6616  0.4735 -0.0138
 8214TIP3   OH246056   5.110   0.209  14.016 -0.2383 -0.5478  0.5255
 8214TIP3    H146057   5.122   0.179  14.105  1.5277  0.1517  0.5593
 8214TIP3    H246058   5.196   0.242  13.989 -1.2548  1.3452 -0.6429
 8215TIP3   OH246059   1.167   2.889   4.956 -0.4964  0.2154  0.1758
 8215TIP3    H146060   1.130   2.873   5.043  0.1775  1.3867  0.7000
 8215TIP3    H246061   1.229   2.818   4.942 -0.1992  0.3301  0.8980
 8216TIP3   OH246062   0.425   6.243   1.751  0.1889  0.8848 -0.3375
 8216TIP3    H146063   0.413   6.193   1.832  0.6121  0.0155 -0.8025
 8216TIP3    H246064   0.344   6.293   1.742 -1.8444 -2.3294 -1.6578
 8217TIP3   OH246065   2.633   6.674  10.249 -0.2100 -0.0375 -0.3751
 8217TIP3    H146066   2.713   6.651  10.297 -0.9246  2.7420  2.4634
 8217TIP3    H246067   2.567   6.613  10.283  0.0531 -0.3751 -0.4629
 8218TIP3   OH246068   0.983   3.807   5.124  0.4457  0.0944  0.6392
 8218TIP3    H146069   0.936   3.841   5.047 -0.1455 -0.3925  0.7774
 8218TIP3    H246070   0.969   3.874   5.191  1.0562  0.5725  0.2933
 8219TIP3   OH246071   1.326   2.718  11.597  0.0592 -0.3202 -0.4370
 8219TIP3    H146072   1.400   2.721  11.536 -1.1910  0.4867 -1.9890
 8219TIP3    H246073   1.282   2.636  11.575 -0.3166 -0.0936 -0.5298
 8220TIP3   OH246074   4.582   3.589   5.112 -0.0921  0.0715  0.4273
 8220TIP3    H146075   4.525   3.540   5.052  0.3935 -0.3434  0.2947
 8220TIP3    H246076   4.534   3.670   5.130  0.2254  0.7456 -1.4432
 8221TIP3   OH246077   6.704   2.812  11.909 -0.1253 -0.0022  0.0168
 8221TIP3    H146078   6.793   2.819  11.943  0.7615 -1.3973 -1.8113
 8221TIP3    H246079   6.671   2.730  11.945 -0.1168 -0.2144 -0.4485
 8222TIP3   OH246080   0.252   4.692   2.480 -0.2822 -0.4305  1.0367
 8222TIP3    H146081   0.198   4.722   2.553 -0.9472 -0.5249  0.5868
 8222TIP3    H246082   0.191   4.649   2.421  0.4041 -1.2065  0.8771
 8223TIP3   OH246083   3.681   0.156  13.135 -0.3042 -0.2468  0.3889
 8223TIP3    H146084   3.762   0.108  13.153  1.0146  1.1995 -1.3050
 8223TIP3    H246085   3.710   0.246  13.118 -2.0878  0.0490 -1.5194
 8224TIP3   OH246086   0.360   1.299   3.751  0.0278  0.0839 -0.5935
 8224TIP3    H146087   0.276   1.253   3.761 -0.8176  1.8743  1.1053
 8224TIP3    H246088   0.352   1.345   3.668 -0.8934  0.6056 -0.2333
 8225TIP3   OH246089   0.679   6.362  12.631  0.5231  0.1377 -0.2039
 8225TIP3    H146090   0.637   6.436  12.675  0.8442  1.1639 -1.5768
 8225TIP3    H246091   0.648   6.366  12.541  1.0137 -1.0508 -0.4488
 8226TIP3   OH246092   4.117   0.638  15.471  0.1375  0.5315 -0.0938
 8226TIP3    H146093   4.126   0.547  15.501  0.9404  0.9401  0.9744
 8226TIP3    H246094   4.073   0.631  15.387  0.9121 -0.9018 -0.4129
 8227TIP3   OH246095   2.695   5.626   1.285  0.3991 -0.6570 -0.2109
 8227TIP3    H146096   2.759   5.571   1.330 -0.8498 -1.5541  0.5335
 8227TIP3    H246097   2.617   5.621   1.340 -0.2510  0.5598 -1.0008
 8228TIP3   OH246098   3.501   1.304  12.189 -0.2595  0.4794 -0.0496
 8228TIP3    H146099   3.571   1.370  12.189 -0.0186  0.2568  1.1009
 8228TIP3    H246100   3.529   1.241  12.256 -1.6078  0.4413  0.4988
 8229TIP3   OH246101   2.149   6.137  16.547  0.1856 -0.0204  0.0643
 8229TIP3    H146102   2.154   6.067  16.612  1.4935  0.3236  0.3602
 8229TIP3    H246103   2.141   6.217  16.599  1.4819  0.2760 -0.1684
 8230TIP3   OH246104   6.451   3.099  13.345 -0.0888  0.3949 -0.1097
 8230TIP3    H146105   6.421   3.020  13.389  0.2148  0.4260  0.1475
 8230TIP3    H246106   6.531   3.124  13.391 -0.7163  1.4127  0.4582
 8231TIP3   OH246107   4.363   0.177  16.278 -0.4193 -0.1978  0.0673
 8231TIP3    H146108   4.374   0.085  16.301 -0.4724 -0.7892 -2.0539
 8231TIP3    H246109   4.452   0.212  16.272 -0.3742 -0.3148  0.0549
 8232TIP3   OH246110   1.610   1.591   3.474  0.1093  0.2570 -0.0724
 8232TIP3    H146111   1.559   1.626   3.547  0.9711 -2.6667  2.1596
 8232TIP3    H246112   1.686   1.648   3.468 -0.5898  1.2766  0.4615
 8233TIP3   OH246113   4.092   6.043   3.933 -0.0558  0.6139 -0.6023
 8233TIP3    H146114   4.063   5.971   3.988  1.6667 -0.5818 -1.1948
 8233TIP3    H246115   4.150   6.003   3.869 -1.4201  2.0390 -2.8937
 8234TIP3   OH246116   5.639   4.860  11.302  0.0636  0.0127 -0.1759
 8234TIP3    H146117   5.706   4.852  11.370  0.0712 -1.7991 -0.3457
 8234TIP3    H246118   5.563   4.896  11.347 -0.1291 -1.7152  0.9866
 8235TIP3   OH246119   5.874   1.742   2.088 -0.2890 -0.0001  0.2988
 8235TIP3    H146120   5.876   1.732   1.993 -1.8038 -0.3941  0.2904
 8235TIP3    H246121   5.921   1.666   2.122  3.0563  1.6964 -0.1539
 8236TIP3   OH246122   0.969   1.442  14.670  0.0589 -0.1929  0.1573
 8236TIP3    H146123   1.053   1.401  14.690 -0.0095 -0.1582  0.5284
 8236TIP3    H246124   0.992   1.524  14.627  0.2117 -0.2271  0.1723
 8237TIP3   OH246125   4.246   0.401  13.024  0.3543 -0.1994 -0.9178
 8237TIP3    H146126   4.230   0.321  12.973 -0.5283  0.0622 -1.0654
 8237TIP3    H246127   4.202   0.386  13.107 -0.2562  0.3286 -1.1352
 8238TIP3   OH246128   3.532   5.050  11.047 -0.5817 -0.0385  0.9501
 8238TIP3    H146129   3.479   5.129  11.041  0.4196  0.5466 -0.7687
 8238TIP3    H246130   3.506   4.997  10.972  1.4345  0.4225 -0.1562
 8239TIP3   OH246131   2.722   5.737   4.794 -0.0813 -0.3065 -0.4229
 8239TIP3    H146132   2.699   5.647   4.772 -0.6826 -0.4335  0.6423
 8239TIP3    H246133   2.795   5.728   4.856 -0.2024 -0.0718 -0.2436
 8240TIP3   OH246134   3.279   3.514  13.991  0.0909  0.5112 -0.4750
 8240TIP3    H146135   3.247   3.523  13.902  1.3605  0.0768 -1.0120
 8240TIP3    H246136   3.236   3.435  14.024  0.5362 -0.0304 -1.1506
 8241TIP3   OH246137   6.267   0.568   1.945  0.1535 -0.2192 -0.1850
 8241TIP3    H146138   6.243   0.540   1.857  1.3278 -0.1728 -0.5339
 8241TIP3    H246139   6.222   0.651   1.957 -0.5143 -0.5309 -0.4952
 8242TIP3   OH246140   2.061   6.231   0.156  0.5782  0.3053 -0.1419
 8242TIP3    H146141   2.151   6.211   0.184  0.1108  0.0903  1.2732
 8242TIP3    H246142   2.020   6.145   0.147  0.3582  0.4223 -0.2569
 8243TIP3   OH246143   1.484   4.935   4.818  0.1839  0.2112 -0.2152
 8243TIP3    H146144   1.406   4.991   4.817  0.3761  0.5041  0.4956
 8243TIP3    H246145   1.502   4.922   4.911  0.5299 -0.4974 -0.3777
 8244TIP3   OH246146   5.846   6.692  14.238  0.5279  0.7530 -0.4171
 8244TIP3    H146147   5.902   6.636  14.182 -0.0180 -1.3429  1.0177
 8244TIP3    H246148   5.784   6.732  14.177  3.0906  2.6810 -1.9846
 8245TIP3   OH246149   0.143   0.228   1.542  0.2211  0.4494  0.5922
 8245TIP3    H146150   0.204   0.258   1.474  0.5987 -0.3508  0.5682
 8245TIP3    H246151   0.076   0.180   1.494  0.1877  0.3550  0.7342
 8246TIP3   OH246152   1.523   2.056  15.939  0.2423 -0.4203 -0.0138
 8246TIP3    H146153   1.489   2.061  15.850  0.6347 -1.4936 -0.2482
 8246TIP3    H246154   1.450   2.086  15.995 -0.4712 -1.0005 -0.6129
 8247TIP3   OH246155   5.926   1.670   0.503 -0.1030  0.1175  0.1583
 8247TIP3    H146156   5.869   1.747   0.516  2.7143  1.9180  3.4570
 8247TIP3    H246157   6.010   1.697   0.538  2.1063 -3.3599 -1.9545
 8248TIP3   OH246158   3.520   2.118   0.632 -0.3270 -0.0757 -0.1620
 8248TIP3    H146159   3.533   2.059   0.707 -0.1410  0.0102 -0.1269
 8248TIP3    H246160   3.441   2.167   0.653  0.4596  0.9108  0.6075
 8249TIP3   OH246161   1.047   5.934  11.086 -0.2752  0.0254 -0.1802
 8249TIP3    H146162   0.975   5.872  11.079 -0.1688 -0.5202  2.4221
 8249TIP3    H246163   1.030   5.999  11.018 -3.7953  0.4865  0.9420
 8250TIP3   OH246164   5.940   1.472   6.339  0.0032  0.0853  0.1009
 8250TIP3    H146165   5.940   1.550   6.393  0.0291 -0.0274  0.2649
 8250TIP3    H246166   5.998   1.411   6.385 -1.6831 -0.8269  1.1214
 8251TIP3   OH246167   5.565   5.576  10.736  0.3776 -0.3269  0.4509
 8251TIP3    H146168   5.506   5.501  10.729  0.5625 -0.3479 -1.1327
 8251TIP3    H246169   5.521   5.646  10.689  0.6562  0.2986  1.0951
 8252TIP3   OH246170   4.449   3.484  10.720 -0.5694 -0.0635 -0.1334
 8252TIP3    H146171   4.383   3.549  10.744  0.6249  0.6503  1.3528
 8252TIP3    H246172   4.460   3.430  10.798  0.9235  0.1101 -0.1979
 8253TIP3   OH246173   6.449   0.995   1.333 -0.0371  0.0750 -0.1055
 8253TIP3    H146174   6.387   0.923   1.318 -0.3232  0.1792  0.5347
 8253TIP3    H246175   6.426   1.060   1.267 -1.4394  0.6340  0.8873
 8254TIP3   OH246176   5.955   1.198   3.882 -0.1638  0.0735 -0.0814
 8254TIP3    H146177   5.887   1.225   3.820 -0.9277 -0.4230  0.5139
 8254TIP3    H246178   6.037   1.228   3.843 -0.6552  0.0053 -1.1922
 8255TIP3   OH246179   5.027   1.690   3.199  0.0345 -0.1716  0.4957
 8255TIP3    H146180   5.087   1.761   3.178  0.0296  0.1729  1.5579
 8255TIP3    H246181   4.992   1.662   3.115  1.1181  0.1180 -0.0735
 8256TIP3   OH246182   3.264   6.680  16.279 -0.5222 -0.2057 -0.0045
 8256TIP3    H146183   3.212   6.760  16.277 -0.2864 -0.0225  0.7904
 8256TIP3    H246184   3.244   6.640  16.364  1.4235  0.4123  0.7921
 8257TIP3   OH246185   1.499   1.907  12.134  0.1258 -0.0573 -0.2517
 8257TIP3    H146186   1.592   1.927  12.146 -0.2559  1.3909  0.4519
 8257TIP3    H246187   1.454   1.988  12.157 -1.3581 -0.9254 -0.0226
 8258TIP3   OH246188   2.076   3.607  10.433 -0.1249 -0.0367  0.3165
 8258TIP3    H146189   2.026   3.669  10.380 -0.4484  1.2266  2.0164
 8258TIP3    H246190   2.167   3.623  10.409 -0.3272 -0.2304 -0.6011
 8259TIP3   OH246191   0.908   4.943  12.651  0.1701 -0.2770 -0.0674
 8259TIP3    H146192   0.891   4.958  12.558  0.3362  0.6586  0.0476
 8259TIP3    H246193   0.821   4.925  12.688 -0.0173  0.2595 -0.2411
 8260TIP3   OH246194   1.410   2.400  11.261 -0.5995  0.5769  0.0885
 8260TIP3    H146195   1.483   2.455  11.234  1.0342 -1.0487  0.9914
 8260TIP3    H246196   1.371   2.370  11.179  1.0035 -0.1148 -0.4440
 8261TIP3   OH246197   3.356   4.017   4.783 -0.7239  0.0983  0.0214
 8261TIP3    H146198   3.350   4.040   4.876  1.9048 -0.6627  0.4774
 8261TIP3    H246199   3.318   3.929   4.778  1.0828 -0.7876  0.8757
 8262TIP3   OH246200   2.578   5.512   3.675  0.0870 -0.4978 -0.3098
 8262TIP3    H146201   2.548   5.552   3.593  2.6803 -1.5311 -1.8643
 8262TIP3    H246202   2.647   5.570   3.706 -0.2651 -0.6015  0.7026
 8263TIP3   OH246203   4.535   4.033  13.127 -0.1305 -0.6111  0.4497
 8263TIP3    H146204   4.622   4.043  13.086 -0.5768  0.4812 -0.2795
 8263TIP3    H246205   4.521   3.938  13.130 -0.0237 -0.7645 -1.8667
 8264TIP3   OH246206   2.809   6.273  17.043 -0.2597  0.1209 -0.1013
 8264TIP3    H146207   2.862   6.253  16.967 -1.9988  0.4197 -1.4590
 8264TIP3    H246208   2.752   6.197  17.053 -1.2756  0.8391 -0.2375
 8265TIP3   OH246209   3.902   4.240   0.300 -0.0844 -0.4134 -0.6381
 8265TIP3    H146210   3.811   4.210   0.298 -0.8955  1.4969  2.1189
 8265TIP3    H246211   3.939   4.202   0.380 -0.2239  3.0828  1.2665
 8266TIP3   OH246212   2.630   4.792  14.882  0.1146 -0.0056 -0.5302
 8266TIP3    H146213   2.715   4.762  14.913 -0.0226 -0.2799 -0.4181
 8266TIP3    H246214   2.643   4.885  14.863  0.4246 -0.0360 -0.4666
 8267TIP3   OH246215   0.514   4.681   0.180 -0.1368  1.0651 -0.6582
 8267TIP3    H146216   0.534   4.650   0.268 -0.5328 -1.4030 -1.3882
 8267TIP3    H246217   0.421   4.664   0.168  0.0065  0.9670 -1.7240
 8268TIP3   OH246218   1.069   2.250  11.748  0.3472  0.7491 -0.1353
 8268TIP3    H146219   1.002   2.249  11.816 -1.8811 -0.0691 -2.2233
 8268TIP3    H246220   1.103   2.339  11.749 -1.9742  1.6954 -0.0792
 8269TIP3   OH246221   6.587   5.194  12.228  0.3475  0.5129  0.2856
 8269TIP3    H146222   6.503   5.158  12.257 -0.2287  1.1378 -0.5568
 8269TIP3    H246223   6.564   5.273  12.179  1.5211  1.5022  1.2532
 8270TIP3   OH246224   0.987   3.166  12.799  0.2214  0.0644  0.1937
 8270TIP3    H146225   1.044   3.090  12.791  1.7203  1.2665 -1.2850
 8270TIP3    H246226   0.898   3.131  12.789  0.8706 -1.4770 -0.5143
 8271TIP3   OH246227   1.329   2.806  11.256  0.4050 -0.7011  0.1555
 8271TIP3    H146228   1.382   2.864  11.310  0.7830 -0.3492 -0.5793
 8271TIP3    H246229   1.247   2.854  11.243  0.0095 -1.1070  1.0203
 8272TIP3   OH246230   5.828   0.245   3.064  0.3244 -1.4779 -0.5223
 8272TIP3    H146231   5.764   0.174   3.070  0.6723 -1.8913 -1.4605
 8272TIP3    H246232   5.910   0.204   3.093  0.1590 -0.9105  0.8248
 8273TIP3   OH246233   1.763   5.486   0.702  0.0253 -0.2549 -0.7917
 8273TIP3    H146234   1.789   5.570   0.664 -1.0971  0.2782 -0.4251
 8273TIP3    H246235   1.697   5.451   0.641 -0.1283 -0.4734 -0.5032
 8274TIP3   OH246236   2.384   1.831  16.421 -0.3903 -0.3034  0.0288
 8274TIP3    H146237   2.479   1.840  16.427 -0.4285  0.0207  0.2018
 8274TIP3    H246238   2.363   1.855  16.331 -0.1591 -1.8396 -0.4526
 8275TIP3   OH246239   4.792   4.613  15.472 -0.1473 -0.2136 -0.1099
 8275TIP3    H146240   4.705   4.576  15.484  0.2123 -1.0039  0.1537
 8275TIP3    H246241   4.851   4.550  15.513  0.3499  1.7015  2.3881
 8276TIP3   OH246242   5.199   3.407  11.819  0.6556 -0.3611 -0.0074
 8276TIP3    H146243   5.203   3.472  11.889  1.3509  0.8339 -1.1157
 8276TIP3    H246244   5.171   3.456  11.742  0.2856 -1.5699 -0.6740
 8277TIP3   OH246245   5.172   0.213  15.479 -0.2027 -0.1930  0.0883
 8277TIP3    H146246   5.167   0.129  15.435 -1.9293 -0.4931  0.7529
 8277TIP3    H246247   5.223   0.196  15.559  1.3805 -0.0514 -0.8515
 8278TIP3   OH246248   3.754   6.629   4.100 -0.2080  0.1469 -0.1933
 8278TIP3    H146249   3.814   6.558   4.077  0.7525  0.7723  0.3259
 8278TIP3    H246250   3.796   6.708   4.068 -1.3542  0.4808 -0.9262
 8279TIP3   OH246251   0.502   4.267  15.941  0.5522  0.0792 -0.6347
 8279TIP3    H146252   0.530   4.345  15.988  2.5224 -0.9371 -0.0132
 8279TIP3    H246253   0.485   4.202  16.009 -0.0262 -0.3622 -1.1833
 8280TIP3   OH246254   0.386   0.611   1.620  0.3653  0.4504  0.2147
 8280TIP3    H146255   0.385   0.547   1.691 -1.3020  0.2404  0.0621
 8280TIP3    H246256   0.418   0.563   1.544 -2.6134 -0.8563 -0.3685
 8281TIP3   OH246257   2.988   0.041   3.665  0.2754  0.0992 -0.0150
 8281TIP3    H146258   3.014  -0.050   3.680  0.1733  0.4097  2.4841
 8281TIP3    H246259   3.066   0.092   3.686  0.8141  0.6281 -2.8332
 8282TIP3   OH246260   6.415   6.614   6.198 -0.1472 -0.5719 -0.1421
 8282TIP3    H146261   6.324   6.626   6.224 -0.2219 -0.2035 -0.5721
 8282TIP3    H246262   6.460   6.591   6.279 -0.7134 -1.2689 -0.0157
 8283TIP3   OH246263   5.439   5.188   1.020  0.1408  0.1733  0.0736
 8283TIP3    H146264   5.525   5.172   0.981  1.0803 -0.5917  2.3443
 8283TIP3    H246265   5.446   5.156   1.110 -1.9837  1.6724  0.8602
 8284TIP3   OH246266   6.081   4.078  15.269 -0.1697 -0.5388  0.0234
 8284TIP3    H146267   6.010   4.089  15.332  1.5353 -0.2516  2.0023
 8284TIP3    H246268   6.093   3.983  15.262  0.0567 -0.5671  0.6820
 8285TIP3   OH246269   5.481   4.702   6.548  0.1463  0.0744  0.1510
 8285TIP3    H146270   5.452   4.667   6.464 -1.4872 -1.9768  1.4864
 8285TIP3    H246271   5.551   4.642   6.576  1.3016  1.2599 -0.0930
 8286TIP3   OH246272   5.062   3.194   1.802 -0.4704  0.0762 -0.2048
 8286TIP3    H146273   5.048   3.286   1.823 -0.3285  0.2513 -0.8744
 8286TIP3    H246274   5.055   3.189   1.707  1.0625 -0.3385 -0.3284
 8287TIP3   OH246275   6.428   6.430   1.176  0.2669 -0.4561 -0.3584
 8287TIP3    H146276   6.361   6.457   1.239  1.3856  1.0030  0.2651
 8287TIP3    H246277   6.396   6.347   1.141  0.6709 -2.5805  3.7512
 8288TIP3   OH246278   5.553   6.492   5.317  0.3289  0.2361  0.5684
 8288TIP3    H146279   5.471   6.540   5.306 -0.1879 -0.3013  1.8771
 8288TIP3    H246280   5.526   6.402   5.338  1.2516 -0.0061  0.7784
 8289TIP3   OH246281   0.548   1.291  16.759  0.1373 -0.0398 -0.3215
 8289TIP3    H146282   0.639   1.266  16.771  0.4955  1.0231 -0.7043
 8289TIP3    H246283   0.551   1.385  16.739 -1.1128  0.2203  0.6033
 8290TIP3   OH246284   5.983   2.925  14.777  0.3074 -0.0172 -0.1833
 8290TIP3    H146285   5.935   2.849  14.744 -0.3954  0.6836 -0.7979
 8290TIP3    H246286   5.938   3.000  14.739  0.0249  0.7912  1.6447
 8291TIP3   OH246287   4.885   3.106  16.778 -0.0988  0.2305 -0.3503
 8291TIP3    H146288   4.913   3.020  16.811  2.6499  2.1979  3.1469
 8291TIP3    H246289   4.956   3.133  16.720  0.7084  1.3565  1.0970
 8292TIP3   OH246290   3.057   6.298   0.606  0.1292 -0.5005 -0.1145
 8292TIP3    H146291   3.123   6.231   0.588 -0.7306 -1.3214 -0.3281
 8292TIP3    H246292   3.098   6.380   0.580  1.4708 -0.8399  0.7972
 8293TIP3   OH246293   3.208   1.726   2.666  0.6598 -0.5005  0.4435
 8293TIP3    H146294   3.165   1.669   2.730 -0.9875  0.2456  0.0465
 8293TIP3    H246295   3.140   1.788   2.641  2.1007  0.9585  0.0505
 8294TIP3   OH246296   1.268   5.785  14.347 -0.1694 -0.6237  0.2344
 8294TIP3    H146297   1.236   5.875  14.343 -0.1323 -0.6148  0.1283
 8294TIP3    H246298   1.301   5.767  14.259 -0.6543 -0.9204  0.1110
 8295TIP3   OH246299   3.673   0.248   3.026 -0.2745 -0.6375 -0.6077
 8295TIP3    H146300   3.722   0.174   2.991  3.0808  1.2924 -0.3859
 8295TIP3    H246301   3.683   0.241   3.121 -1.5566 -0.8471 -0.4607
 8296TIP3   OH246302   1.373   3.012   1.235 -0.2969  0.1197 -0.8253
 8296TIP3    H146303   1.390   2.918   1.237  0.3785  0.2468  0.3259
 8296TIP3    H246304   1.378   3.039   1.327  0.5890  1.4584 -1.2323
 8297TIP3   OH246305   6.171   4.372   3.558  0.4028 -0.4827 -0.5294
 8297TIP3    H146306   6.169   4.276   3.554 -0.7613 -0.4789 -0.3596
 8297TIP3    H246307   6.110   4.400   3.490  0.2577  0.1311 -0.1489
 8298TIP3   OH246308   3.750   3.130  13.430  0.0400 -0.6719  0.1916
 8298TIP3    H146309   3.674   3.076  13.453 -0.7988  0.7869  0.9398
 8298TIP3    H246310   3.814   3.067  13.395 -1.0600 -2.0827  0.6243
 8299TIP3   OH246311   2.561   4.403  16.798 -0.1903  0.5757  0.0841
 8299TIP3    H146312   2.602   4.476  16.751  0.6948  0.7688  1.1241
 8299TIP3    H246313   2.484   4.442  16.840 -0.5522  0.5703 -0.5565
 8300TIP3   OH246314   0.719   3.008   2.121 -0.2212  1.2247  0.5480
 8300TIP3    H146315   0.719   2.916   2.094 -0.3626  0.3739  3.1613
 8300TIP3    H246316   0.794   3.046   2.076  1.1408 -0.7285  0.9953
 8301TIP3   OH246317   4.938   2.132   5.202  0.1720 -0.1051 -0.0972
 8301TIP3    H146318   4.971   2.186   5.273  1.2887 -0.0477 -0.6430
 8301TIP3    H246319   5.010   2.129   5.139 -0.2190 -1.4363 -0.5057
 8302TIP3   OH246320   4.737   6.604  12.345 -0.4278 -0.2042  0.1970
 8302TIP3    H146321   4.747   6.681  12.289  2.5910  0.1367  1.0295
 8302TIP3    H246322   4.774   6.630  12.429 -1.2958 -1.9305  1.1713
 8303TIP3   OH246323   4.201   0.051   4.291 -0.1984 -0.2542 -1.2978
 8303TIP3    H146324   4.240   0.090   4.369 -0.2453 -0.2837 -1.2595
 8303TIP3    H246325   4.144   0.120   4.256 -1.4134 -0.7589 -0.4227
 8304TIP3   OH246326   4.260   3.899   4.241 -0.0364 -0.0954  0.0930
 8304TIP3    H146327   4.212   3.980   4.260 -1.5148 -0.9070 -0.0538
 8304TIP3    H246328   4.196   3.842   4.198  1.3276 -0.8727 -1.0253
 8305TIP3   OH246329   6.699   0.950   3.910 -0.5657  0.0018 -0.2112
 8305TIP3    H146330   6.783   0.991   3.889  0.5551 -1.4280  1.2011
 8305TIP3    H246331   6.662   0.926   3.825 -0.2313  1.8800 -0.9358
 8306TIP3   OH246332   4.072   5.425  14.111  0.1880 -0.0459 -0.7432
 8306TIP3    H146333   3.983   5.422  14.146 -0.2861 -1.4090 -1.9793
 8306TIP3    H246334   4.114   5.346  14.144  1.3423  1.1111  0.7224
 8307TIP3   OH246335   2.500   3.923   0.935 -0.1358 -0.7153  0.0189
 8307TIP3    H146336   2.558   3.888   0.867 -0.6321 -0.3496 -0.6042
 8307TIP3    H246337   2.495   3.853   1.001  1.7857 -0.3685  0.5847
 8308TIP3   OH246338   5.352   0.568   1.646  0.1017  0.3291  0.7438
 8308TIP3    H146339   5.263   0.601   1.633  0.1999 -0.2005 -1.9076
 8308TIP3    H246340   5.409   0.641   1.624  0.2897 -0.2967 -1.0043
 8309TIP3   OH246341   3.473   1.494  15.848  0.7773  0.1637  0.1058
 8309TIP3    H146342   3.414   1.419  15.851  1.3567 -0.4099 -1.5898
 8309TIP3    H246343   3.535   1.479  15.920 -0.7915  0.5341  1.6070
 8310TIP3   OH246344   6.541   2.284   2.607 -0.5395 -0.4016 -0.1211
 8310TIP3    H146345   6.513   2.337   2.532  1.1933 -0.3580 -0.7917
 8310TIP3    H246346   6.630   2.258   2.585 -0.5279 -1.6545  1.2701
 8311TIP3   OH246347   6.097   0.178  12.041  0.0414 -0.4155 -0.1440
 8311TIP3    H146348   6.142   0.127  12.108  0.8454  0.9638  0.4116
 8311TIP3    H246349   6.167   0.205  11.981  0.1515  2.2218  1.0333
 8312TIP3   OH246350   4.889   4.995   0.922 -0.2320 -0.6976 -0.7154
 8312TIP3    H146351   4.975   4.978   0.960  0.1672 -0.3580 -1.4445
 8312TIP3    H246352   4.828   4.986   0.995  0.4913 -0.2967 -0.0472
 8313TIP3   OH246353   1.928   5.761  11.896  0.5225  0.5661 -0.2882
 8313TIP3    H146354   1.957   5.832  11.839  2.8696 -0.5959 -0.6563
 8313TIP3    H246355   1.885   5.699  11.837 -0.8203  1.2631 -0.0850
 8314TIP3   OH246356   3.325   5.196   3.521 -0.5119 -0.2724 -0.4895
 8314TIP3    H146357   3.276   5.272   3.488  0.2188  0.5935  0.3678
 8314TIP3    H246358   3.400   5.190   3.462  1.9198  2.5392  1.9983
 8315TIP3   OH246359   4.419   1.756  14.669 -0.5270 -0.1786  0.3453
 8315TIP3    H146360   4.324   1.743  14.671 -0.4472 -1.5461 -2.0209
 8315TIP3    H246361   4.452   1.684  14.616  1.5390  1.8335 -1.2602
 8316TIP3   OH246362   3.071   1.167  12.766 -0.0109  0.0366 -0.2162
 8316TIP3    H146363   3.141   1.149  12.828 -0.0650  1.6773  0.3615
 8316TIP3    H246364   3.080   1.099  12.699  2.0986  0.1858 -0.1400
 8317TIP3   OH246365   3.985   2.364  12.601  0.0269  0.3872 -0.8804
 8317TIP3    H146366   3.896   2.358  12.567 -1.2162 -0.9207  2.2251
 8317TIP3    H246367   4.034   2.297  12.553 -1.5085 -1.0960 -0.4552
 8318TIP3   OH246368   5.864   6.540   4.856  0.0721 -0.1279 -0.3874
 8318TIP3    H146369   5.941   6.593   4.836  0.0955 -0.6585 -1.8325
 8318TIP3    H246370   5.790   6.599   4.844  0.2178  0.4401  1.1994
 8319TIP3   OH246371   2.571   2.712   2.485  0.0850  0.4243  0.0426
 8319TIP3    H146372   2.538   2.771   2.417  0.4070 -0.5571 -0.9855
 8319TIP3    H246373   2.506   2.641   2.489  1.0150 -0.4888 -0.5786
 8320TIP3   OH246374   3.915   1.184   2.973  0.3599  0.3739  0.2436
 8320TIP3    H146375   3.880   1.215   3.056  0.6105  0.3797  0.3476
 8320TIP3    H246376   3.841   1.187   2.913 -0.8054 -2.9621  1.2973
 8321TIP3   OH246377   4.900   6.012  16.250 -0.0899 -0.2962  0.7554
 8321TIP3    H146378   4.946   6.089  16.285 -0.2886  0.3483 -0.3351
 8321TIP3    H246379   4.913   5.944  16.316  3.2345 -0.4531  0.1170
 8322TIP3   OH246380   6.292   4.381   4.057 -0.4431  0.0125  0.7025
 8322TIP3    H146381   6.377   4.405   4.093 -0.7185  0.4885  1.0523
 8322TIP3    H246382   6.296   4.286   4.047 -0.4812 -0.1989  2.3619
 8323TIP3   OH246383   5.620   2.890  10.420 -0.7900 -0.2855  0.0956
 8323TIP3    H146384   5.640   2.817  10.479 -1.2644 -0.5306 -0.0371
 8323TIP3    H246385   5.693   2.891  10.358 -0.3504 -0.1044  0.6103
 8324TIP3   OH246386   0.356   6.307  15.101 -0.7411 -0.1387 -0.0999
 8324TIP3    H146387   0.267   6.344  15.106  0.2467  2.4476 -0.1782
 8324TIP3    H246388   0.383   6.296  15.192 -1.0434 -0.7244 -0.0760
 8325TIP3   OH246389   1.167   2.772   4.612  1.0310  0.2551  0.0914
 8325TIP3    H146390   1.183   2.833   4.683  0.9048  0.4405 -0.0364
 8325TIP3    H246391   1.203   2.689   4.642 -1.8830 -0.5607  1.8031
 8326TIP3   OH246392   5.479   3.725  14.474 -0.0651  0.1143 -0.0355
 8326TIP3    H146393   5.422   3.649  14.467  0.4868 -0.5278  1.8898
 8326TIP3    H246394   5.420   3.798  14.492 -0.3896 -0.3504  0.8285
 8327TIP3   OH246395   3.547   1.784  12.600  0.0625 -0.2652  0.2488
 8327TIP3    H146396   3.595   1.710  12.636  1.7471 -0.1483 -1.5624
 8327TIP3    H246397   3.615   1.846  12.574 -1.2371  1.2614  0.3020
 8328TIP3   OH246398   0.263   2.414   1.041  0.4667  0.3869  0.3180
 8328TIP3    H146399   0.336   2.352   1.046 -0.7126 -1.0971 -0.2974
 8328TIP3    H246400   0.204   2.388   1.112 -1.7115 -1.4961 -2.0218
 8329TIP3   OH246401   6.564   5.109   3.039 -0.3965  0.3543  0.4825
 8329TIP3    H146402   6.595   5.197   3.059 -0.1636  0.1611  1.0003
 8329TIP3    H246403   6.641   5.063   3.007  0.1801 -0.4698  2.8852
 8330TIP3   OH246404   3.754   5.751  12.249 -0.8772 -0.3121 -0.5573
 8330TIP3    H146405   3.731   5.842  12.227  0.2044  0.2244  0.4177
 8330TIP3    H246406   3.814   5.724  12.179  1.9530  1.1291  1.1277
 8331TIP3   OH246407   3.705   5.534   1.164 -0.5335 -0.2671  0.2575
 8331TIP3    H146408   3.625   5.577   1.194 -0.6773 -1.0845  1.1132
 8331TIP3    H246409   3.772   5.562   1.227 -0.3168 -0.1852 -0.0092
 8332TIP3   OH246410   5.178   4.788   1.681 -0.3760 -0.2730 -0.0157
 8332TIP3    H146411   5.113   4.851   1.651 -0.5679 -0.2221  0.4941
 8332TIP3    H246412   5.127   4.718   1.722 -0.0872  1.1218  3.0544
 8333TIP3   OH246413   6.084   0.765   4.200 -0.1191  0.0305  0.4371
 8333TIP3    H146414   6.124   0.842   4.160 -0.3493  0.3963  0.9222
 8333TIP3    H246415   6.058   0.711   4.125 -1.0808  0.9784  0.0601
 8334TIP3   OH246416   2.403   0.977  11.343 -0.6061  0.1855  0.0484
 8334TIP3    H146417   2.471   0.968  11.410 -1.1226 -0.4901  0.4911
 8334TIP3    H246418   2.415   1.066  11.309  1.1966 -0.2695 -0.6373
 8335TIP3   OH246419   5.327   1.087  11.948 -0.4120 -0.0693  0.0803
 8335TIP3    H146420   5.290   1.101  11.860 -1.8260  1.2053  0.8330
 8335TIP3    H246421   5.257   1.045  11.997  0.3313 -0.6746  0.6401
 8336TIP3   OH246422   6.389   4.586  13.754  0.5483 -0.3367  0.0506
 8336TIP3    H146423   6.372   4.680  13.761 -2.5014 -0.7569 -0.1976
 8336TIP3    H246424   6.322   4.545  13.809  0.8159 -2.3934 -1.0466
 8337TIP3   OH246425   2.479   5.129  13.693  0.2338 -0.1436  0.1561
 8337TIP3    H146426   2.493   5.119  13.598 -0.3442  1.1153 -0.0751
 8337TIP3    H246427   2.422   5.205  13.701 -1.2143 -1.3243  1.4437
 8338TIP3   OH246428   1.694   6.305  13.565 -0.2155  0.5643 -0.2063
 8338TIP3    H146429   1.691   6.270  13.654  1.0586  2.6126  0.7292
 8338TIP3    H246430   1.678   6.399  13.576  0.2196  0.9165 -2.1217
 8339TIP3   OH246431   0.151   1.319  11.879  0.3250 -0.2260  0.0716
 8339TIP3    H146432   0.235   1.302  11.920  0.5355  0.5012 -0.0441
 8339TIP3    H246433   0.123   1.403  11.916 -1.1179 -1.2292  1.3538
 8340TIP3   OH246434   0.330   6.483  17.050  0.9885 -0.4571 -0.6991
 8340TIP3    H146435   0.236   6.469  17.042  1.2150 -1.8259 -1.3331
 8340TIP3    H246436   0.339   6.571  17.085 -0.5612 -0.9118  0.9619
 8341TIP3   OH246437   0.196   1.154   4.751  0.3679  0.4140  0.0808
 8341TIP3    H146438   0.135   1.144   4.679  1.5180  2.7215 -1.3261
 8341TIP3    H246439   0.153   1.110   4.825 -1.5046 -0.7607 -1.5888
 8342TIP3   OH246440   1.182   5.752  15.525  0.0052  0.2693  0.1025
 8342TIP3    H146441   1.236   5.707  15.459 -0.2618 -1.6966  1.1329
 8342TIP3    H246442   1.220   5.726  15.608 -1.6961 -0.0638  0.8168
 8343TIP3   OH246443   0.430   4.197  11.499 -0.6566 -0.2568 -0.6417
 8343TIP3    H146444   0.433   4.286  11.464  0.2628  0.1184  0.2982
 8343TIP3    H246445   0.425   4.209  11.594 -3.0707 -1.2288 -0.5695
 8344TIP3   OH246446   3.785   5.169   3.552 -0.1094  0.0059  0.1864
 8344TIP3    H146447   3.715   5.103   3.553  0.4950 -0.6372  0.1286
 8344TIP3    H246448   3.807   5.179   3.459  1.0855 -1.0899  0.3285
 8345TIP3   OH246449   6.735   5.508   1.944  0.5353 -0.1269 -0.0400
 8345TIP3    H146450   6.766   5.496   2.034  1.5483  0.5856 -0.2766
 8345TIP3    H246451   6.784   5.584   1.912  0.0606 -0.2709 -1.1399
 8346TIP3   OH246452   3.968   0.243   1.495  0.4944  0.3312  0.1670
 8346TIP3    H146453   3.945   0.335   1.484 -3.7951 -0.8080 -2.5093
 8346TIP3    H246454   4.037   0.227   1.430 -0.5643  1.1767 -1.2150
 8347TIP3   OH246455   5.207   4.005   5.195 -0.1038  0.0228  0.0610
 8347TIP3    H146456   5.112   3.992   5.187  0.0664 -1.0215 -0.3816
 8347TIP3    H246457   5.217   4.100   5.198 -1.1970  0.1430  0.5582
 8348TIP3   OH246458   1.513   0.855   1.057 -0.3416 -0.2787  0.2376
 8348TIP3    H146459   1.603   0.848   1.025 -1.3669  1.6441 -3.6118
 8348TIP3    H246460   1.472   0.772   1.032 -0.1238 -0.4291  0.3672
 8349TIP3   OH246461   6.617   5.687   5.506 -0.0117  0.2336 -0.1066
 8349TIP3    H146462   6.558   5.631   5.556 -0.7021  0.3121 -0.8233
 8349TIP3    H246463   6.694   5.632   5.490 -0.1860 -0.1094  0.2231
 8350TIP3   OH246464   6.257   2.923  15.667 -0.1463 -0.0871  0.1879
 8350TIP3    H146465   6.171   2.928  15.709 -0.1099 -1.3808  0.4665
 8350TIP3    H246466   6.317   2.897  15.737  0.1124 -1.1442 -0.3968
 8351TIP3   OH246467   4.144   4.984   0.733 -0.4388  0.4865 -0.1248
 8351TIP3    H146468   4.094   4.971   0.813 -0.7615  1.9900 -0.0471
 8351TIP3    H246469   4.205   5.054   0.754  0.8391 -0.4490 -0.6181
 8352TIP3   OH246470   0.603   1.812   2.820 -0.5509  0.4827  0.0282
 8352TIP3    H146471   0.608   1.772   2.733  0.3537  0.1962  0.2044
 8352TIP3    H246472   0.608   1.906   2.803 -2.0175  0.5171 -0.3358
 8353TIP3   OH246473   4.154   2.533   2.173  1.1129 -0.5719  0.2248
 8353TIP3    H146474   4.098   2.458   2.187  1.2800 -0.4476  1.6638
 8353TIP3    H246475   4.094   2.605   2.152  0.7189 -0.4453  1.7183
 8354TIP3   OH246476   4.276   4.460  11.619 -0.1289  0.1349  0.1339
 8354TIP3    H146477   4.307   4.372  11.640  1.6816  0.8546  0.7438
 8354TIP3    H246478   4.330   4.487  11.545 -1.6908  0.2076 -1.0047
 8355TIP3   OH246479   6.794   6.100   3.219 -0.3517 -0.1947 -0.4396
 8355TIP3    H146480   6.762   6.154   3.291  0.0311  0.9657 -1.1160
 8355TIP3    H246481   6.842   6.029   3.262 -1.2816 -0.2986  0.4772
 8356TIP3   OH246482   1.837   6.753   5.941 -0.0504  0.2424 -0.0286
 8356TIP3    H146483   1.872   6.796   5.863 -0.0116  0.8494  0.3199
 8356TIP3    H246484   1.804   6.824   5.995  1.9460  0.0779  1.5480
 8357TIP3   OH246485   3.759   5.684  14.609  0.2258  0.4098 -0.2683
 8357TIP3    H146486   3.696   5.737  14.560 -2.0228 -3.0062 -1.4056
 8357TIP3    H246487   3.709   5.648  14.682  1.6255 -0.2149  0.4176
 8358TIP3   OH246488   1.063   6.541   3.633 -0.4422  0.5333  0.0503
 8358TIP3    H146489   1.047   6.608   3.567  0.1070 -0.0855 -0.7480
 8358TIP3    H246490   1.062   6.459   3.583  0.6139  0.1075  0.7054
 8359TIP3   OH246491   4.473   6.541   3.317  0.4950 -0.4458  0.3889
 8359TIP3    H146492   4.520   6.459   3.333 -0.3622 -0.7920  1.2749
 8359TIP3    H246493   4.541   6.604   3.295  1.3101 -1.0795  1.0147
 8360TIP3   OH246494   0.638   0.717   1.815 -0.0861  0.4205 -0.3823
 8360TIP3    H146495   0.550   0.699   1.849  0.9089 -0.6710  1.7700
 8360TIP3    H246496   0.669   0.632   1.783 -0.7213  1.2669 -3.6911
 8361TIP3   OH246497   5.215   1.939   2.788 -0.1519 -0.1591 -0.0348
 8361TIP3    H146498   5.138   1.986   2.756 -2.1720 -3.2885 -0.2042
 8361TIP3    H246499   5.255   1.904   2.709  0.4053 -0.0565  0.2003
 8362TIP3   OH246500   1.568   6.566   0.007  0.5727 -0.3843  0.2655
 8362TIP3    H146501   1.588   6.479   0.041  2.5289  0.1160  0.5554
 8362TIP3    H246502   1.505   6.551  -0.063 -0.1478 -1.8826  1.1805
 8363TIP3   OH246503   4.853   4.945   5.384  0.2619 -0.1127 -0.1978
 8363TIP3    H146504   4.843   5.029   5.340  1.3073 -0.1837 -0.5889
 8363TIP3    H246505   4.937   4.911   5.353  0.5008 -0.6731  0.9953
 8364TIP3   OH246506   3.062   5.434   0.312  0.2556 -0.8379 -0.1517
 8364TIP3    H146507   3.148   5.423   0.353  0.1277 -0.5942  0.1870
 8364TIP3    H246508   3.009   5.362   0.347  0.1221 -0.5810  0.1778
 8365TIP3   OH246509   4.593   1.751   0.607 -0.2922  0.2266 -0.0484
 8365TIP3    H146510   4.562   1.841   0.595 -1.3032 -0.0438  0.3574
 8365TIP3    H246511   4.655   1.757   0.680 -1.6594  0.3672  1.1684
 8366TIP3   OH246512   4.021   1.783  15.535 -0.4608  0.1988 -0.7406
 8366TIP3    H146513   3.994   1.841  15.464  0.4632  1.8978  0.2034
 8366TIP3    H246514   4.108   1.752  15.509 -0.0313  0.9894 -0.2952
 8367TIP3   OH246515   2.872   0.678   0.098 -0.6578  0.8905 -0.3767
 8367TIP3    H146516   2.833   0.593   0.075  0.1502  0.3264  0.2823
 8367TIP3    H246517   2.805   0.742   0.073 -0.6151  0.1996 -2.4829
 8368TIP3   OH246518   6.375   5.140  14.477  0.2235 -0.0178 -0.4742
 8368TIP3    H146519   6.412   5.054  14.455  0.0781 -0.5023  1.0952
 8368TIP3    H246520   6.450   5.199  14.477  0.4174 -0.2584 -0.9593
 8369TIP3   OH246521   4.613   5.119  14.484 -0.2762  0.3561 -0.5906
 8369TIP3    H146522   4.612   5.069  14.402 -0.2771 -0.4926 -0.0847
 8369TIP3    H246523   4.533   5.091  14.530  0.0083  0.4091 -0.0602
 8370TIP3   OH246524   5.652   5.312   4.068 -0.3997  0.3911 -0.4224
 8370TIP3    H146525   5.741   5.286   4.092 -0.2382  1.4739  0.1923
 8370TIP3    H246526   5.613   5.232   4.031  1.3098  0.2776 -2.1552
 8371TIP3   OH246527   2.552   5.751  11.716 -0.2570  0.2304 -0.0661
 8371TIP3    H146528   2.502   5.672  11.694 -1.9774  1.3869 -0.5756
 8371TIP3    H246529   2.487   5.810  11.755  1.4801  0.5387  2.5633
 8372TIP3   OH246530   0.094   5.178  16.119 -0.1970 -0.2154 -0.8706
 8372TIP3    H146531   0.056   5.186  16.207 -1.1051  0.6357 -1.3113
 8372TIP3    H246532   0.188   5.188  16.132 -0.2857 -0.5149  0.0529
 8373TIP3   OH246533   2.537   0.308   4.429 -0.0856  0.6669  0.1210
 8373TIP3    H146534   2.481   0.290   4.354  0.0381  1.0689 -0.0709
 8373TIP3    H246535   2.625   0.316   4.392  0.4978 -2.0915  0.6547
 8374TIP3   OH246536   4.890   4.111   2.750  1.0870 -0.0878 -0.2627
 8374TIP3    H146537   4.808   4.116   2.700  1.3760  0.5730 -0.6884
 8374TIP3    H246538   4.901   4.018   2.768  0.4637 -0.2334 -0.5751
 8375TIP3   OH246539   5.134   1.214   5.372  0.0085  0.4153 -0.0657
 8375TIP3    H146540   5.166   1.124   5.362  1.6031  0.9496  0.0271
 8375TIP3    H246541   5.115   1.222   5.465  0.0549  0.2357 -0.0404
 8376TIP3   OH246542   6.504   2.696   4.871 -0.4176  0.3665  0.1381
 8376TIP3    H146543   6.463   2.630   4.816  2.0245 -2.1431  1.0767
 8376TIP3    H246544   6.552   2.752   4.810 -0.3767 -0.3754 -0.5207
 8377TIP3   OH246545   1.427   5.661  14.870  0.0866 -0.0616 -0.2044
 8377TIP3    H146546   1.469   5.587  14.914  1.4177  1.3363  0.9714
 8377TIP3    H246547   1.421   5.633  14.778  1.1160 -1.3945  0.0908
 8378TIP3   OH246548   1.119   0.263   0.208  0.1568 -0.1349  0.6207
 8378TIP3    H146549   1.126   0.168   0.217 -0.0375 -0.0664  1.7306
 8378TIP3    H246550   1.155   0.297   0.290  0.7920  0.7791 -0.0152
 8379TIP3   OH246551   4.004   6.082  13.131  0.0968 -0.0782  0.3116
 8379TIP3    H146552   4.059   6.110  13.058  0.0754  0.8513  0.6469
 8379TIP3    H246553   3.921   6.128  13.118 -0.7917 -1.7848 -0.4259
 8380TIP3   OH246554   1.604   0.308   5.648  0.4504 -0.0221 -0.4714
 8380TIP3    H146555   1.529   0.350   5.605  1.0704  0.7528 -0.8127
 8380TIP3    H246556   1.565   0.235   5.697 -0.4487 -0.0076 -1.1359
 8381TIP3   OH246557   6.352   3.386   5.332  0.0083  0.7157  0.1956
 8381TIP3    H146558   6.268   3.414   5.368  0.2915  0.7753  0.8177
 8381TIP3    H246559   6.403   3.357   5.408 -0.1686 -1.2486 -0.3826
 8382TIP3   OH246560   5.926   5.648  11.347  0.0394 -0.2402  0.3548
 8382TIP3    H146561   5.898   5.590  11.418  0.3166 -3.7542 -2.1414
 8382TIP3    H246562   5.871   5.726  11.357 -0.8936 -1.1432  3.5095
 8383TIP3   OH246563   5.592   0.772  12.008 -0.7477  0.4595  0.1879
 8383TIP3    H146564   5.680   0.749  12.037 -0.7778 -1.1741 -0.8826
 8383TIP3    H246565   5.603   0.857  11.965  0.2616  0.3929  0.2782
 8384TIP3   OH246566   2.085   4.901  11.709  0.4187  0.0102 -0.1508
 8384TIP3    H146567   2.075   4.815  11.751  0.3044 -0.2169 -0.6327
 8384TIP3    H246568   2.044   4.962  11.770  0.2941 -0.3099  0.0911
 8385TIP3   OH246569   6.610   3.026  16.908  0.0974 -0.0774 -0.0793
 8385TIP3    H146570   6.676   3.007  16.974  1.3558  2.0649 -0.5925
 8385TIP3    H246571   6.532   3.050  16.958 -0.2803 -2.3755  0.5405
 8386TIP3   OH246572   5.023   2.442   3.402  0.3754  0.2320  0.3917
 8386TIP3    H146573   5.052   2.352   3.394  0.0378  0.1638 -0.0536
 8386TIP3    H246574   5.094   2.485   3.451  0.8335 -0.1207  0.0470
 8387TIP3   OH246575   3.412   4.606   0.991  0.6772 -0.3778  0.1643
 8387TIP3    H146576   3.484   4.637   1.046 -0.7750  2.0159  0.8495
 8387TIP3    H246577   3.455   4.563   0.917  2.7331 -1.2235  1.7564
 8388TIP3   OH246578   4.599   2.445   5.796 -0.3492 -0.4646 -0.0948
 8388TIP3    H146579   4.661   2.375   5.817  0.0015  0.1512  0.9881
 8388TIP3    H246580   4.653   2.516   5.761 -0.2176  0.6069  2.1400
 8389TIP3   OH246581   2.232   2.834   4.665  0.0978 -0.1700 -0.8753
 8389TIP3    H146582   2.146   2.851   4.705 -0.0889 -1.1537 -0.8235
 8389TIP3    H246583   2.265   2.920   4.641 -0.5757  0.2893 -0.2068
 8390TIP3   OH246584   1.530   1.825   6.163  0.5963  0.1705 -0.9963
 8390TIP3    H146585   1.481   1.749   6.196  1.4080 -0.3163 -0.8764
 8390TIP3    H246586   1.611   1.824   6.212  0.4133  1.4341 -0.6307
 8391TIP3   OH246587   2.327   2.671  12.671 -0.4282 -0.1095 -0.3506
 8391TIP3    H146588   2.268   2.727  12.621 -1.5357 -0.3578  0.6110
 8391TIP3    H246589   2.382   2.732  12.720 -0.0761  0.1282 -1.0382
 8392TIP3   OH246590   4.216   4.438   1.296 -0.0330  0.2876 -0.8601
 8392TIP3    H146591   4.257   4.418   1.212 -0.0251  1.8396 -1.2601
 8392TIP3    H246592   4.204   4.353   1.338  0.6485 -0.4524 -2.1072
 8393TIP3   OH246593   4.261   3.217   0.015 -0.1325 -0.0619 -0.0380
 8393TIP3    H146594   4.215   3.228  -0.069  1.1518  0.2919 -0.7290
 8393TIP3    H246595   4.293   3.305   0.036 -0.4253 -0.1556  0.8209
 8394TIP3   OH246596   2.344   2.568   2.308  0.1048 -0.0527  0.0381
 8394TIP3    H146597   2.285   2.502   2.345 -1.2648  0.4140 -1.2433
 8394TIP3    H246598   2.290   2.646   2.297  0.8910  0.3285 -1.3667
 8395TIP3   OH246599   3.006   2.426   0.351 -0.5181  0.9452  0.7439
 8395TIP3    H146600   3.025   2.336   0.379 -3.4781  0.1160  0.4244
 8395TIP3    H246601   3.089   2.473   0.363  1.6456 -2.1865 -0.7206
 8396TIP3   OH246602   1.382   5.953   3.732  0.0100  0.4289 -0.3769
 8396TIP3    H146603   1.313   6.018   3.727 -0.9379 -0.5066  0.1220
 8396TIP3    H246604   1.407   5.951   3.825 -0.7347 -0.6635 -0.1820
 8397TIP3   OH246605   3.046   1.853   1.276 -0.0405 -0.5839  0.0053
 8397TIP3    H146606   3.006   1.902   1.204  0.6090 -1.4021 -0.9299
 8397TIP3    H246607   3.125   1.903   1.297 -0.7682  0.2418  0.8958
 8398TIP3   OH246608   3.909   5.643   4.548  0.0998 -0.4334 -0.2075
 8398TIP3    H146609   3.936   5.611   4.462 -0.9810 -0.2411 -0.6303
 8398TIP3    H246610   3.880   5.733   4.532  0.4298 -0.2040  0.4639
 8399TIP3   OH246611   1.567   0.327  16.136 -1.1157 -0.0333 -0.1932
 8399TIP3    H146612   1.623   0.399  16.106 -1.9567  0.4791 -0.5629
 8399TIP3    H246613   1.585   0.256  16.075 -2.3537  0.8006 -1.5823
 8400TIP3   OH246614   1.652   1.236   5.593 -0.7535  0.6522 -0.2005
 8400TIP3    H146615   1.601   1.298   5.541 -2.8651 -1.5146 -0.9113
 8400TIP3    H246616   1.620   1.248   5.682 -2.7548 -0.7674 -0.6568
 8401TIP3   OH246617   5.256   1.823   1.588 -0.0056  0.2243  0.4158
 8401TIP3    H146618   5.262   1.902   1.641 -0.0348  0.5232 -0.0214
 8401TIP3    H246619   5.181   1.775   1.624 -1.4641  1.5056 -0.7696
 8402TIP3   OH246620   1.486   3.411  16.121 -0.4298 -0.5243  0.1218
 8402TIP3    H146621   1.399   3.450  16.117 -0.3469 -0.4307 -1.1392
 8402TIP3    H246622   1.519   3.436  16.207 -0.9934  0.8751 -0.0436
 8403TIP3   OH246623   1.024   4.699   3.006 -0.6830 -0.5818 -0.1416
 8403TIP3    H146624   0.970   4.704   3.084 -1.3618  0.7588 -0.6513
 8403TIP3    H246625   1.049   4.790   2.989 -0.1882 -0.9045 -1.2321
 8404TIP3   OH246626   6.292   1.490   5.915  0.1755  0.4249  0.7819
 8404TIP3    H146627   6.252   1.425   5.974 -0.3450 -0.1092 -0.1264
 8404TIP3    H246628   6.277   1.574   5.958 -1.8050  0.2338  0.5893
 8405TIP3   OH246629   2.586   6.598  17.001 -0.0717  0.1046 -0.1065
 8405TIP3    H146630   2.664   6.629  17.048 -0.9916  0.1822  1.4480
 8405TIP3    H246631   2.555   6.676  16.954  0.0531  0.4170  0.3187
 8406TIP3   OH246632   2.141   3.453  11.362  0.1968 -0.6240  0.3933
 8406TIP3    H146633   2.137   3.380  11.300 -1.7022 -1.0052  0.8927
 8406TIP3    H246634   2.206   3.425  11.427  0.5188 -1.2361 -0.1697
 8407TIP3   OH246635   0.898   6.003  15.345  0.2371  0.4115 -0.2995
 8407TIP3    H146636   0.948   6.078  15.312 -2.1846  3.1039  1.6139
 8407TIP3    H246637   0.940   5.981  15.427 -0.3554  1.2654  0.2572
 8408TIP3   OH246638   6.590   4.947   3.748 -0.4726 -0.4924  0.1617
 8408TIP3    H146639   6.634   5.031   3.758  0.0616 -0.6469 -0.8215
 8408TIP3    H246640   6.524   4.962   3.680  1.5055 -1.5444 -2.1257
 8409TIP3   OH246641   1.215   1.851   3.678 -0.2269 -0.6821 -0.1196
 8409TIP3    H146642   1.176   1.819   3.759  1.5784 -0.0833  1.0495
 8409TIP3    H246643   1.141   1.880   3.625 -1.3644  0.4437  1.9769
 8410TIP3   OH246644   2.850   3.412   3.824  0.2547  0.2488 -0.0290
 8410TIP3    H146645   2.925   3.355   3.806 -0.2405 -0.3030 -0.3713
 8410TIP3    H246646   2.789   3.357   3.873  0.4070  0.9355  0.9634
 8411TIP3   OH246647   4.624   6.291   0.929  0.3071  0.2917  1.0908
 8411TIP3    H146648   4.703   6.339   0.954  0.9275 -0.4471  0.6064
 8411TIP3    H246649   4.594   6.249   1.010  1.4717 -0.9024  0.9417
 8412TIP3   OH246650   6.525   6.128  14.293  0.6567  0.0023  0.9920
 8412TIP3    H146651   6.525   6.197  14.360  0.7625  0.4230  0.5626
 8412TIP3    H246652   6.442   6.139  14.247  0.7465 -0.0542  0.8152
 8413TIP3   OH246653   2.068   4.817   2.817  0.0966 -0.5604 -0.0007
 8413TIP3    H146654   2.009   4.761   2.868 -0.4372 -0.2495 -0.2726
 8413TIP3    H246655   2.010   4.878   2.771  0.6887  0.6729  0.8194
 8414TIP3   OH246656   1.206   2.562   3.415  0.3535  0.6541 -0.1747
 8414TIP3    H146657   1.268   2.492   3.436 -1.9986 -1.2773  0.7642
 8414TIP3    H246658   1.141   2.520   3.358 -1.2375  2.0022  0.5626
 8415TIP3   OH246659   3.925   3.104   1.377 -0.4090 -0.5081 -0.2147
 8415TIP3    H146660   3.848   3.048   1.377  0.2810 -1.4854  0.0848
 8415TIP3    H246661   3.920   3.152   1.460 -0.6289 -0.6567 -0.1429
 8416TIP3   OH246662   5.321   1.089  17.059 -0.1996 -0.2394  0.3329
 8416TIP3    H146663   5.292   1.108  17.148  0.4303 -1.7931  0.9046
 8416TIP3    H246664   5.416   1.080  17.066  0.0543  1.2053 -0.8224
 8417TIP3   OH246665   1.320   5.230   4.438 -0.5341 -0.3424  0.5192
 8417TIP3    H146666   1.260   5.297   4.469 -1.6373 -1.2558  0.4513
 8417TIP3    H246667   1.273   5.147   4.454  0.3996 -1.0364 -0.2240
 8418TIP3   OH246668   3.097   5.884   3.467 -0.3326 -0.6502  0.0163
 8418TIP3    H146669   3.154   5.948   3.423  0.1897 -0.8497  0.3988
 8418TIP3    H246670   3.030   5.938   3.510  0.3725 -0.3201  0.7242
 8419TIP3   OH246671   0.229   5.868  14.505 -0.3982  1.0539  0.1529
 8419TIP3    H146672   0.177   5.940  14.541 -1.4674 -0.2024  1.1902
 8419TIP3    H246673   0.316   5.879  14.545 -0.7932  1.2840  0.9610
 8420TIP3   OH246674   2.832   3.623   5.357 -0.7177  0.5623  0.2566
 8420TIP3    H146675   2.749   3.612   5.312 -1.5709 -0.2004  1.9301
 8420TIP3    H246676   2.827   3.711   5.395 -1.0652  0.2615  0.9219
 8421TIP3   OH246677   5.433   4.375   0.622  0.6500  0.5377  0.3913
 8421TIP3    H146678   5.439   4.311   0.551 -0.5039  0.6586  0.1636
 8421TIP3    H246679   5.447   4.324   0.702  0.1657  0.0715  0.1854
 8422TIP3   OH246680   2.838   2.532  13.264  0.2576 -0.5027 -0.0934
 8422TIP3    H146681   2.929   2.546  13.236 -0.1642 -0.7923 -1.6523
 8422TIP3    H246682   2.822   2.604  13.326  1.4583 -0.2996  0.0169
 8423TIP3   OH246683   1.141   1.439   3.586 -0.5388  0.1536  0.4047
 8423TIP3    H146684   1.099   1.436   3.672 -2.0743 -1.1762 -0.3337
 8423TIP3    H246685   1.180   1.352   3.575 -0.2134  0.3671 -0.1745
 8424TIP3   OH246686   2.354   4.820   4.495 -0.2243  0.3386  0.3346
 8424TIP3    H146687   2.309   4.760   4.555 -0.5844 -0.8995 -1.1106
 8424TIP3    H246688   2.447   4.808   4.514 -0.3217 -0.2905  0.4426
 8425TIP3   OH246689   1.918   2.412   1.568  0.1761  0.0923 -0.1635
 8425TIP3    H146690   2.009   2.443   1.562  0.3367 -0.4324 -0.5542
 8425TIP3    H246691   1.915   2.362   1.649  0.4737 -0.6249 -0.5850
 8426TIP3   OH246692   1.118   1.607  12.203 -0.0944  0.3490  0.4273
 8426TIP3    H146693   1.081   1.601  12.114  0.4291  0.2504  0.2166
 8426TIP3    H246694   1.090   1.693  12.234  1.2741  1.1907 -0.5459
 8427TIP3   OH246695   2.125   0.858  16.791 -0.0258  0.2530  0.3305
 8427TIP3    H146696   2.146   0.884  16.701 -0.9401 -0.0854  0.0167
 8427TIP3    H246697   2.056   0.919  16.818 -1.1926 -0.9431  0.0850
 8428TIP3   OH246698   1.345   3.880  11.485  0.3256 -0.1647  0.0603
 8428TIP3    H146699   1.269   3.822  11.500  0.5121 -0.5615 -0.4916
 8428TIP3    H246700   1.416   3.840  11.535  0.0771  0.4408  0.9248
 8429TIP3   OH246701   3.359   2.437   3.042 -0.4017 -0.0524 -0.4304
 8429TIP3    H146702   3.377   2.368   3.105 -0.3145 -0.3223 -0.7537
 8429TIP3    H246703   3.385   2.518   3.087 -0.5188 -0.2275 -0.0508
 8430TIP3   OH246704   0.368   6.781   2.010  0.1361  0.6702  0.5077
 8430TIP3    H146705   0.302   6.807   2.075 -2.4255 -0.1035 -1.6295
 8430TIP3    H246706   0.352   6.838   1.935 -0.7878 -2.0650 -1.5286
 8431TIP3   OH246707   5.093   4.645   5.118 -0.3504  0.9445  0.6726
 8431TIP3    H146708   5.024   4.674   5.177 -0.7798  1.4387 -0.0559
 8431TIP3    H246709   5.161   4.712   5.128 -0.6196  1.2822  0.2656
 8432TIP3   OH246710   3.749   2.921  14.313 -0.1590  0.1610  0.4431
 8432TIP3    H146711   3.791   2.862  14.376 -2.1045 -2.3881 -0.4531
 8432TIP3    H246712   3.707   2.988  14.367  1.2941  0.2001  1.5800
 8433TIP3   OH246713   0.759   5.345   5.587  0.0685 -0.1793 -0.1262
 8433TIP3    H146714   0.668   5.332   5.614 -0.4891  1.7356 -0.9187
 8433TIP3    H246715   0.800   5.260   5.600 -2.3625 -1.7505 -1.7893
 8434TIP3   OH246716   1.994   4.821  16.065 -0.5086  0.0150 -0.1398
 8434TIP3    H146717   2.037   4.739  16.090  0.7851  0.9736  0.8926
 8434TIP3    H246718   1.942   4.798  15.988 -1.8500 -2.2649  1.3223
 8435TIP3   OH246719   3.446   6.319  13.850  0.1134 -0.7093 -0.1751
 8435TIP3    H146720   3.434   6.332  13.756 -0.6347  0.0526  0.0182
 8435TIP3    H246721   3.365   6.351  13.890  0.4980 -0.8452  0.7487
 8436TIP3   OH246722   3.963   0.530   4.179 -0.6561 -0.4515 -0.0705
 8436TIP3    H146723   3.976   0.611   4.228 -0.1175 -0.4714 -0.1746
 8436TIP3    H246724   3.869   0.527   4.163 -0.5430  0.8160 -1.1868
 8437TIP3   OH246725   2.417   3.074   3.218  0.2747  0.5744 -0.1437
 8437TIP3    H146726   2.375   3.137   3.159 -1.7803 -1.1729 -0.6913
 8437TIP3    H246727   2.344   3.030   3.261  1.6327 -1.1317  0.5208
 8438TIP3   OH246728   5.449   6.409   6.022 -0.0894 -0.0997  0.1709
 8438TIP3    H146729   5.511   6.482   6.015 -0.4285  0.4355  2.1480
 8438TIP3    H246730   5.426   6.388   5.931  2.2166  0.3159 -0.5663
 8439TIP3   OH246731   5.712   0.721   1.040 -0.2997 -0.5377  0.0032
 8439TIP3    H146732   5.770   0.738   0.966 -1.1126  0.2567 -0.4668
 8439TIP3    H246733   5.635   0.680   1.001 -0.7898  0.0099  0.3902
 8440TIP3   OH246734   4.108   2.903  14.592  0.3027 -0.3168  0.3559
 8440TIP3    H146735   4.173   2.962  14.552 -0.2491  0.8453  1.1044
 8440TIP3    H246736   4.132   2.901  14.684 -1.0739  0.6412  0.7638
 8441TIP3   OH246737   3.479   4.899   2.890  0.3373  0.0609 -0.4663
 8441TIP3    H146738   3.468   4.808   2.918  0.1556  0.0494 -0.5746
 8441TIP3    H246739   3.510   4.945   2.968  0.9632 -0.2036 -0.5594
 8442TIP3   OH246740   4.063   1.167   4.637  0.0813 -0.0342  0.4534
 8442TIP3    H146741   3.990   1.228   4.623  0.2620 -0.1059 -0.9292
 8442TIP3    H246742   4.141   1.223   4.641  0.3751 -0.1893 -1.8548
 8443TIP3   OH246743   4.773   2.394   1.509 -0.2930 -0.2545  0.1307
 8443TIP3    H146744   4.853   2.427   1.468  0.0957 -1.8987 -0.4980
 8443TIP3    H246745   4.737   2.331   1.446 -1.7832  0.0180  0.6531
 8444TIP3   OH246746   1.794   1.701  15.719  0.7458  0.1078 -0.1798
 8444TIP3    H146747   1.779   1.751  15.800  1.4191  3.4829 -1.9549
 8444TIP3    H246748   1.886   1.678  15.721  0.8452  0.4999 -0.1212
 8445TIP3   OH246749   2.282   6.200   0.308 -0.6370  0.5220  0.0311
 8445TIP3    H146750   2.350   6.209   0.241 -1.3378  0.9824 -0.6300
 8445TIP3    H246751   2.312   6.254   0.380 -0.8924  1.7420 -0.7486
 8446TIP3   OH246752   5.657   4.771  15.176 -0.4831  0.0330  0.0729
 8446TIP3    H146753   5.568   4.772  15.142 -0.1456 -1.3602 -0.9420
 8446TIP3    H246754   5.711   4.803  15.104 -0.0732  0.0646  0.3890
 8447TIP3   OH246755   5.675   4.134   2.072 -0.2123 -0.3528  0.1239
 8447TIP3    H146756   5.616   4.209   2.076  0.6397  0.2824  2.3162
 8447TIP3    H246757   5.636   4.075   2.007  0.0307  2.7476 -3.1370
 8448TIP3   OH246758   4.346   2.840   4.838 -0.3181 -0.1716 -0.1144
 8448TIP3    H146759   4.400   2.784   4.894  0.4766  0.5629 -0.1379
 8448TIP3    H246760   4.398   2.919   4.825 -1.5074  0.6798  0.0956
 8449TIP3   OH246761   1.306   1.259  14.135 -0.7203 -0.5125 -0.1167
 8449TIP3    H146762   1.347   1.340  14.105 -1.6468 -0.0583 -0.1733
 8449TIP3    H246763   1.332   1.194  14.071 -0.1001 -0.2303 -0.1606
 8450TIP3   OH246764   2.527   6.477   0.745  0.1638  0.5347 -0.3273
 8450TIP3    H146765   2.557   6.557   0.702 -1.5609  0.1580 -2.3841
 8450TIP3    H246766   2.442   6.501   0.784  0.2659  0.0482  0.2102
 8451TIP3   OH246767   2.911   3.311   3.215 -0.1988 -0.2351 -0.4691
 8451TIP3    H146768   2.902   3.255   3.137 -1.6074 -2.2913  1.0750
 8451TIP3    H246769   3.003   3.301   3.240 -0.6418 -2.8863  0.4051
 8452TIP3   OH246770   3.742   0.057   4.304 -0.5770  0.2467  0.1016
 8452TIP3    H146771   3.806   0.017   4.362 -0.5597  0.3221  0.1340
 8452TIP3    H246772   3.754   0.012   4.220 -0.0105  0.7363 -0.0883
 8453TIP3   OH246773   4.044   3.177  15.954  0.2300  0.4873 -0.1168
 8453TIP3    H146774   4.016   3.201  15.865 -1.9919 -2.8582 -0.5081
 8453TIP3    H246775   4.117   3.116  15.940  0.6108  0.8002  0.4538
 8454TIP3   OH246776   5.568   1.028  11.872 -0.1056 -0.3020  0.1601
 8454TIP3    H146777   5.568   1.066  11.784  0.5995 -2.6985 -0.9473
 8454TIP3    H246778   5.478   1.040  11.904 -0.4420  0.3295 -0.9759
 8455TIP3   OH246779   4.055   5.331   2.254  0.3743  0.5605 -0.0923
 8455TIP3    H146780   4.094   5.315   2.169  0.3167 -1.5368  0.1984
 8455TIP3    H246781   4.020   5.245   2.280 -1.2235  1.5472  1.2307
 8456TIP3   OH246782   0.476   0.115  13.720 -0.1308 -0.3662  0.8345
 8456TIP3    H146783   0.435   0.037  13.682 -0.9329  0.7791 -0.7725
 8456TIP3    H246784   0.502   0.168  13.644  3.6095 -0.5929  1.7549
 8457TIP3   OH246785   3.339   2.077  15.857 -0.0298 -0.7848 -0.2951
 8457TIP3    H146786   3.320   2.030  15.938 -1.8532  0.0114 -0.2115
 8457TIP3    H246787   3.389   2.154  15.884 -1.8821  0.2616  0.3195
 8458TIP3   OH246788   5.568   6.026   5.180 -0.5036  0.2271 -0.1882
 8458TIP3    H146789   5.522   6.001   5.260 -2.1052  0.4488 -0.9894
 8458TIP3    H246790   5.582   5.944   5.133  0.7758  0.0515  0.4614
 8459TIP3   OH246791   0.662   3.846   6.166 -0.1804  0.4139 -0.0810
 8459TIP3    H146792   0.579   3.839   6.120 -0.0510  0.2749 -0.2924
 8459TIP3    H246793   0.709   3.765   6.144 -0.0590  0.4145  0.1721
 8460TIP3   OH246794   4.897   5.929  15.530 -0.2644  0.3324 -0.2406
 8460TIP3    H146795   4.852   5.967  15.454 -0.0693  1.5067  0.1999
 8460TIP3    H246796   4.985   5.965  15.525 -0.3515  0.7202  0.7281
 8461TIP3   OH246797   3.466   4.426  15.576  0.0395 -0.4148 -0.0357
 8461TIP3    H146798   3.470   4.504  15.630  1.4191 -2.0333  2.3827
 8461TIP3    H246799   3.373   4.402  15.576  0.0315 -0.6002  2.0912
 8462TIP3   OH246800   3.110   1.411  15.593 -0.1649 -0.3566  0.2981
 8462TIP3    H146801   3.145   1.324  15.574 -2.2665 -1.1055 -0.4414
 8462TIP3    H246802   3.187   1.466  15.607  1.2137 -2.4296  1.3035
 8463TIP3   OH246803   4.233   0.691   5.794 -0.3231  0.4604  0.2171
 8463TIP3    H146804   4.329   0.691   5.798 -0.3322  2.1402  1.1050
 8463TIP3    H246805   4.208   0.606   5.830  0.8094  0.8104  1.9729
 8464TIP3   OH246806   4.288   5.596  13.279 -0.3189 -0.2610 -0.1238
 8464TIP3    H146807   4.262   5.521  13.225 -1.2056 -0.5873  0.7391
 8464TIP3    H246808   4.225   5.598  13.350  0.3082  0.7000  0.4319
 8465TIP3   OH246809   4.159   0.579  11.215  0.0036  0.5870 -0.4469
 8465TIP3    H146810   4.130   0.602  11.127  0.6649 -0.4229 -0.9476
 8465TIP3    H246811   4.225   0.511  11.202  0.9903  1.2612  0.7677
 8466TIP3   OH246812   4.613   0.391   5.529 -0.4666 -0.2922  0.1732
 8466TIP3    H146813   4.620   0.323   5.596 -1.4699  0.3263  0.9441
 8466TIP3    H246814   4.521   0.416   5.529 -0.0908  1.2558  0.1281
 8467TIP3   OH246815   1.953   2.868   2.957  0.1597 -0.3166  0.5954
 8467TIP3    H146816   1.955   2.872   3.053  0.7084 -1.9123  0.6803
 8467TIP3    H246817   2.043   2.883   2.930  0.0301 -0.0018  0.3295
 8468TIP3   OH246818   5.868   0.487   0.981  0.2051 -0.2990  0.1323
 8468TIP3    H146819   5.786   0.438   0.971  0.5956 -0.7074 -1.2611
 8468TIP3    H246820   5.844   0.562   1.036 -0.7189 -1.2824  1.1267
 8469TIP3   OH246821   3.907   4.157   4.599  0.3292 -0.7158 -0.4966
 8469TIP3    H146822   3.968   4.144   4.672 -1.5790 -2.0653  0.9663
 8469TIP3    H246823   3.828   4.193   4.640 -0.5296 -0.7854 -2.0212
 8470TIP3   OH246824   0.469   3.948   5.575 -0.2742 -0.3772  0.5115
 8470TIP3    H146825   0.506   4.022   5.528  0.9016 -0.6796  0.9189
 8470TIP3    H246826   0.412   3.987   5.641  0.0225  0.1410  0.4610
 8471TIP3   OH246827   4.674   4.687  13.580 -0.0394  0.5598  0.0469
 8471TIP3    H146828   4.741   4.660  13.643  1.5607  2.3191 -0.7878
 8471TIP3    H246829   4.625   4.755  13.626 -0.0269  0.5906  0.0147
 8472TIP3   OH246830   2.627   6.147  12.061  0.6074  0.1458 -0.4054
 8472TIP3    H146831   2.634   6.054  12.081 -1.1148  0.0078 -0.3677
 8472TIP3    H246832   2.616   6.150  11.966 -0.3847  0.2263 -0.2990
 8473TIP3   OH246833   0.824   6.719  13.582  0.3219  0.2885 -0.1888
 8473TIP3    H146834   0.788   6.740  13.668  0.8827  2.7569 -0.5013
 8473TIP3    H246835   0.889   6.651  13.599 -0.8050 -0.5454  1.0510
 8474TIP3   OH246836   0.846   4.161  14.742 -0.3380 -0.1561  0.0078
 8474TIP3    H146837   0.762   4.202  14.720 -0.0835  0.4154  0.0840
 8474TIP3    H246838   0.826   4.102  14.814 -0.5163  0.6885  0.6755
 8475TIP3   OH246839   2.529   5.478  16.082 -0.5731  0.0302 -0.0873
 8475TIP3    H146840   2.489   5.552  16.037 -1.1717  0.4037  1.0294
 8475TIP3    H246841   2.502   5.487  16.173 -0.3152 -1.3394  0.1514
 8476TIP3   OH246842   1.458   5.027   2.793 -0.1498  0.1179  0.8174
 8476TIP3    H146843   1.458   4.975   2.713  1.2722  1.6811 -0.2718
 8476TIP3    H246844   1.369   5.062   2.799 -0.5398 -0.7837  0.4687
 8477TIP3   OH246845   6.580   0.626  12.651  0.0576 -0.1456  0.5666
 8477TIP3    H146846   6.543   0.538  12.641  0.1822 -0.3393  1.6676
 8477TIP3    H246847   6.631   0.640  12.571 -0.3898 -0.8605  0.1487
 8478TIP3   OH246848   5.918   0.365   3.470 -0.0156 -0.1873  0.4507
 8478TIP3    H146849   5.944   0.276   3.493 -1.4346 -0.6554  0.3033
 8478TIP3    H246850   5.944   0.374   3.378 -0.8397 -0.8394  0.1422
 8479TIP3   OH246851   0.609   0.113  12.243  0.3293 -0.8439 -0.3605
 8479TIP3    H146852   0.681   0.140  12.300  0.1966 -2.4461  0.6432
 8479TIP3    H246853   0.530   0.138  12.291  0.1722  1.0492 -1.5289
 8480TIP3   OH246854   2.150   3.965  12.325 -0.8294 -0.1498  0.1873
 8480TIP3    H146855   2.215   4.033  12.311 -0.9633  0.2126  1.2284
 8480TIP3    H246856   2.168   3.900  12.257 -0.9054  1.0536 -1.0332
 8481TIP3   OH246857   0.276   1.793   3.337  0.1912 -0.0537 -0.2241
 8481TIP3    H146858   0.345   1.756   3.283  0.2711  0.1858 -0.2901
 8481TIP3    H246859   0.260   1.880   3.299  0.5865  0.3169  0.4236
 8482TIP3   OH246860   3.409   0.411   3.086 -0.5279  0.1250  0.3466
 8482TIP3    H146861   3.424   0.467   3.010 -1.2264  1.1362  0.9396
 8482TIP3    H246862   3.484   0.351   3.086  1.8126  2.8620  1.3245
 8483TIP3   OH246863   4.738   2.557  13.670 -0.1618  0.1062 -0.0523
 8483TIP3    H146864   4.756   2.515  13.754  0.2026  0.1966 -0.0827
 8483TIP3    H246865   4.818   2.545  13.619 -0.2220  0.4257 -0.2289
 8484TIP3   OH246866   1.741   0.832  15.747 -0.2486  0.6030  0.0073
 8484TIP3    H146867   1.808   0.896  15.722  1.5122 -1.0213  0.3382
 8484TIP3    H246868   1.758   0.756  15.692 -0.7202 -0.4738  1.2836
 8485TIP3   OH246869   4.222   2.687  15.421 -0.0078 -0.4985 -0.3747
 8485TIP3    H146870   4.293   2.641  15.466 -0.1015 -1.0671 -0.7927
 8485TIP3    H246871   4.142   2.644  15.451 -0.1093 -0.4905 -0.6294
 8486TIP3   OH246872   3.796   1.670   1.113  0.0974 -0.1286  0.1324
 8486TIP3    H146873   3.754   1.586   1.130 -1.2538  0.1456 -1.6265
 8486TIP3    H246874   3.752   1.731   1.172  0.2412 -0.4137  0.5426
 8487TIP3   OH246875   5.347   5.016  11.693  0.5122 -0.2289  0.0154
 8487TIP3    H146876   5.253   5.022  11.711  0.3481 -1.4499 -0.3388
 8487TIP3    H246877   5.382   5.101  11.721 -0.3597 -0.4852  2.0750
 8488TIP3   OH246878   5.622   3.068  11.810 -0.1526 -0.7087 -0.1691
 8488TIP3    H146879   5.663   2.985  11.835 -2.3713 -1.5724  0.8802
 8488TIP3    H246880   5.529   3.046  11.797 -1.1678  1.8527  1.7668
 8489TIP3   OH246881   6.726   2.937  13.711 -0.1860  0.3360  0.2355
 8489TIP3    H146882   6.819   2.956  13.699 -0.1911  0.7220  0.7619
 8489TIP3    H246883   6.718   2.912  13.803 -0.3072 -1.5380 -0.2445
 8490TIP3   OH246884   6.183   2.998   0.074 -0.0434  0.1198  0.2807
 8490TIP3    H146885   6.278   3.005   0.079  0.0391 -0.3920 -0.4702
 8490TIP3    H246886   6.155   2.991   0.165  0.6669 -0.0780  0.4895
 8491TIP3   OH246887   2.831   3.125  14.609  0.4884  0.0172 -0.3589
 8491TIP3    H146888   2.896   3.056  14.621  0.5865  0.2445  0.5354
 8491TIP3    H246889   2.856   3.193  14.672  0.2228  0.7424 -1.0164
 8492TIP3   OH246890   4.462   2.610   2.805  0.5998  0.0046 -0.0254
 8492TIP3    H146891   4.513   2.574   2.732 -0.4734 -0.8009 -0.4031
 8492TIP3    H246892   4.398   2.668   2.763  0.3631 -0.0041  0.3246
 8493TIP3   OH246893   4.952   5.992  12.022 -0.0478  0.0755 -0.2152
 8493TIP3    H146894   4.898   5.938  12.080 -0.8858  1.4171  0.2864
 8493TIP3    H246895   4.899   6.070  12.005  1.2089  0.8313 -0.7799
 8494TIP3   OH246896   4.737   3.127  14.449 -0.2338 -1.0352  0.3633
 8494TIP3    H146897   4.762   3.045  14.491  0.8367 -1.8862 -1.7964
 8494TIP3    H246898   4.668   3.102  14.387 -0.0672 -0.2636 -0.1440
 8495TIP3   OH246899   2.610   4.103   4.544 -0.1998 -0.1342  0.1844
 8495TIP3    H146900   2.573   4.137   4.626 -1.9635 -3.2944  0.8697
 8495TIP3    H246901   2.678   4.043   4.572  0.4267  0.0990 -0.7928
 8496TIP3   OH246902   1.608   6.637   1.419 -0.1399  0.0594  0.1151
 8496TIP3    H146903   1.673   6.634   1.489 -0.9409  2.9089  1.1083
 8496TIP3    H246904   1.659   6.658   1.340  0.4845 -0.9774  0.2163
 8497TIP3   OH246905   3.790   1.637  11.134  0.1247 -0.9036 -0.8526
 8497TIP3    H146906   3.710   1.673  11.171 -0.0552  0.7575 -2.7105
 8497TIP3    H246907   3.801   1.553  11.179 -1.0677  0.1110  1.4957
 8498TIP3   OH246908   0.950   2.135   5.223  0.1308 -0.8727  0.1875
 8498TIP3    H146909   0.886   2.117   5.154  0.7858  1.3675 -1.1182
 8498TIP3    H246910   1.035   2.124   5.180  0.5672 -0.2050  0.8583
 8499TIP3   OH246911   0.955   4.018   3.194  0.3427  0.4657  0.0259
 8499TIP3    H146912   0.887   4.015   3.126 -0.0103  0.2977  0.3869
 8499TIP3    H246913   0.931   3.950   3.256  0.2456  1.1200  0.7225
 8500TIP3   OH246914   0.402   3.288  16.743 -0.1360 -0.6450  0.0424
 8500TIP3    H146915   0.326   3.342  16.765 -1.5176 -1.0275 -3.2837
 8500TIP3    H246916   0.477   3.335  16.780 -1.8502 -0.2671  3.4940
 8501TIP3   OH246917   5.284   1.862  13.036 -0.1102  0.8598  0.4579
 8501TIP3    H146918   5.269   1.769  13.051 -0.5125  1.0365  1.2185
 8501TIP3    H246919   5.222   1.906  13.095 -0.5893  1.6070 -0.5660
 8502TIP3   OH246920   5.836   4.671   1.888  0.3275  0.2986  0.7218
 8502TIP3    H146921   5.902   4.611   1.854  1.5391  1.6877  0.5123
 8502TIP3    H246922   5.759   4.616   1.903  1.2173 -1.1929  0.0716
 8503TIP3   OH246923   3.931   6.434  16.587 -0.6228  0.2958  0.3794
 8503TIP3    H146924   3.837   6.414  16.580 -0.6725  0.1458  1.4428
 8503TIP3    H246925   3.946   6.450  16.680  0.7295 -1.2752  0.4796
 8504TIP3   OH246926   5.699   6.664  14.501 -0.7086  0.2511 -0.6116
 8504TIP3    H146927   5.703   6.753  14.537 -2.0290  0.0230  0.1565
 8504TIP3    H246928   5.743   6.670  14.416  1.5044  1.0732  0.4967
 8505TIP3   OH246929   5.600   1.069   5.538  0.0912 -0.2186  0.3490
 8505TIP3    H146930   5.527   1.009   5.524 -1.2181  1.4787 -0.4158
 8505TIP3    H246931   5.578   1.117   5.618 -0.3572  1.2699 -0.6347
 8506TIP3   OH246932   5.350   1.802  10.616  0.1717  0.2168 -0.1572
 8506TIP3    H146933   5.345   1.757  10.531  1.2972  1.6421 -1.0273
 8506TIP3    H246934   5.435   1.846  10.615  0.5455 -0.3483  2.0592
 8507TIP3   OH246935   4.625   5.166  11.751 -0.5214  0.0799 -0.3225
 8507TIP3    H146936   4.640   5.165  11.656  1.1153 -1.8016 -0.1032
 8507TIP3    H246937   4.592   5.078  11.770 -1.1235  0.5450  0.8312
 8508TIP3   OH246938   2.297   3.730   4.327  0.3437  0.5143  0.5034
 8508TIP3    H146939   2.215   3.778   4.337  0.6317  1.2618 -0.5434
 8508TIP3    H246940   2.272   3.652   4.277  0.0754  0.1323  1.2162
 8509TIP3   OH246941   2.574   4.782  13.215  0.0707  0.1633 -0.8184
 8509TIP3    H146942   2.590   4.850  13.280 -1.0189 -2.7173  2.8138
 8509TIP3    H246943   2.654   4.779  13.163  0.2201  3.9338 -1.0658
 8510TIP3   OH246944   3.304   4.202   1.504 -0.0090 -0.0321 -1.2267
 8510TIP3    H146945   3.209   4.212   1.504  0.0525  1.2326  1.2430
 8510TIP3    H246946   3.318   4.112   1.534 -0.3871 -0.4133 -2.1326
 8511TIP3   OH246947   2.665   3.491  14.147 -0.4753  0.0359  0.3840
 8511TIP3    H146948   2.748   3.458  14.181 -0.5740  0.2452  0.8305
 8511TIP3    H246949   2.676   3.586  14.143 -0.1556 -0.0381 -0.9952
 8512TIP3   OH246950   4.904   6.807  15.054  0.1491 -0.3775 -0.2008
 8512TIP3    H146951   4.964   6.865  15.007 -0.7348  2.0154  1.4249
 8512TIP3    H246952   4.820   6.819  15.010 -0.2826  0.5229  0.8059
 8513TIP3   OH246953   2.861   2.014   0.415 -0.4892  0.2369  0.4263
 8513TIP3    H146954   2.815   2.030   0.333  1.4403  2.4187 -0.3424
 8513TIP3    H246955   2.913   1.935   0.399 -0.9566  0.0231 -0.0508
 8514TIP3   OH246956   1.475   0.615  14.387 -0.0445 -0.3560  0.1789
 8514TIP3    H146957   1.427   0.678  14.440  0.9287  1.5526 -1.1324
 8514TIP3    H246958   1.515   0.666  14.317  0.0917 -2.5445 -1.4608
 8515TIP3   OH246959   2.962   5.221  14.021 -0.6174 -0.4589  0.2023
 8515TIP3    H146960   2.961   5.168  13.941 -0.6422 -0.6019  0.2968
 8515TIP3    H246961   2.949   5.158  14.092 -1.7699 -0.1986  0.2470
 8516TIP3   OH246962   6.449   0.054   4.298  0.7108  0.2319 -0.4190
 8516TIP3    H146963   6.392   0.027   4.226 -1.0066 -1.6770  1.5237
 8516TIP3    H246964   6.396   0.114   4.350  1.4214  0.4729  0.0524
 8517TIP3   OH246965   0.230   6.172   5.774  0.1054 -0.3724  0.3414
 8517TIP3    H146966   0.254   6.161   5.682 -0.5152  0.9999  0.0017
 8517TIP3    H246967   0.307   6.142   5.822  0.3654 -1.2842 -0.6091
 8518TIP3   OH246968   4.070   3.784  10.933  0.2573 -0.1536 -0.1145
 8518TIP3    H146969   3.978   3.801  10.951  0.3668 -0.2341  0.5341
 8518TIP3    H246970   4.106   3.869  10.909 -0.1466 -0.2516 -1.1344
 8519TIP3   OH246971   1.330   0.674   3.966  0.1682  0.0364  0.4392
 8519TIP3    H146972   1.389   0.661   4.041  1.9384  2.2294 -0.4595
 8519TIP3    H246973   1.246   0.696   4.006  1.4900  2.9213  1.9124
 8520TIP3   OH246974   2.620   4.236  14.189  0.3676  0.1252 -0.1603
 8520TIP3    H146975   2.538   4.221  14.237  0.3077  0.7927 -0.0494
 8520TIP3    H246976   2.687   4.244  14.257  0.0813  2.4237 -0.0718
 8521TIP3   OH246977   6.189   3.303   4.881  0.4863  0.0889  0.1786
 8521TIP3    H146978   6.270   3.341   4.848  0.0298  2.1223  1.2014
 8521TIP3    H246979   6.147   3.265   4.805  1.1839  1.3641 -0.8821
 8522TIP3   OH246980   0.196   6.522   2.263  0.0867  0.0224  0.1471
 8522TIP3    H146981   0.171   6.606   2.300  2.9344  0.4878  1.2235
 8522TIP3    H246982   0.134   6.459   2.300 -3.2246  1.7338 -2.0259
 8523TIP3   OH246983   1.454   3.261   1.466 -0.2799 -0.0979 -0.4669
 8523TIP3    H146984   1.461   3.280   1.373 -0.1809 -1.4827 -0.7519
 8523TIP3    H246985   1.455   3.348   1.508 -1.6667  0.6035 -1.8136
 8524TIP3   OH246986   1.352   5.013  15.781  0.6441  0.1383  0.0903
 8524TIP3    H146987   1.394   4.941  15.733  1.3532 -0.2293  1.2063
 8524TIP3    H246988   1.330   4.974  15.866 -0.3577  0.8339  0.1586
 8525TIP3   OH246989   5.093   5.273   0.802  0.3006  0.1534 -0.6070
 8525TIP3    H146990   5.143   5.302   0.879  0.2658 -0.3047 -0.4048
 8525TIP3    H246991   5.001   5.279   0.830  0.2530  0.6513 -0.8557
 8526TIP3   OH246992   2.583   0.991  11.595  0.0122 -0.7458  0.4767
 8526TIP3    H146993   2.593   0.896  11.589 -0.0292 -0.6997 -0.4146
 8526TIP3    H246994   2.504   1.004  11.648 -1.1371 -1.2492 -1.0406
 8527TIP3   OH246995   5.566   3.440   4.256  0.0097 -0.0624  0.3778
 8527TIP3    H146996   5.480   3.480   4.249  0.4117  0.5646 -1.6835
 8527TIP3    H246997   5.566   3.398   4.342 -2.4797 -0.4307  0.2717
 8528TIP3   OH246998   0.980   6.659   2.567 -0.3500 -0.2130  0.2297
 8528TIP3    H146999   0.975   6.647   2.662  1.0515 -1.8644  0.1280
 8528TIP3    H247000   0.976   6.754   2.555 -1.6330 -0.0075  1.8400
 8529TIP3   OH247001   4.024   6.195   4.923 -0.1385  0.0620 -0.1287
 8529TIP3    H147002   4.039   6.119   4.866  2.4015  0.0756  0.4112
 8529TIP3    H247003   4.111   6.233   4.935 -0.8992  1.2492  2.1151
 8530TIP3   OH247004   6.240   5.220   1.403 -0.3137  0.0830  0.2121
 8530TIP3    H147005   6.300   5.249   1.334 -0.4960  1.0868  0.4603
 8530TIP3    H247006   6.171   5.286   1.403  0.6464  1.1813  2.6445
 8531TIP3   OH247007   0.741   0.715  16.143  0.0917  0.4573  0.1709
 8531TIP3    H147008   0.811   0.652  16.158  0.4096  0.7136 -0.2056
 8531TIP3    H247009   0.720   0.707  16.050 -0.7937 -0.0313  0.3936
 8532TIP3   OH247010   5.588   2.080  11.212 -0.4123  0.0390  0.1033
 8532TIP3    H147011   5.528   2.051  11.280 -1.5769  0.5094 -0.6914
 8532TIP3    H247012   5.598   2.174  11.227 -2.1656  0.5343 -1.4339
 8533TIP3   OH247013   4.780   0.217  11.500 -0.1692  0.4505 -0.1941
 8533TIP3    H147014   4.829   0.238  11.420 -0.2508 -1.2348 -0.7249
 8533TIP3    H247015   4.688   0.227  11.475 -0.1961 -0.1218 -0.3236
 8534TIP3   OH247016   3.821   4.049   5.888  0.2913  0.1589  0.0713
 8534TIP3    H147017   3.826   3.964   5.843  1.1986  0.4790 -0.4659
 8534TIP3    H247018   3.732   4.053   5.921  0.6165 -1.5921  1.2902
 8535TIP3   OH247019   4.976   1.153  16.921  0.6372 -0.6800  0.1806
 8535TIP3    H147020   5.054   1.179  16.969  0.3109  0.9472 -0.1065
 8535TIP3    H247021   4.908   1.212  16.952  0.4359  0.5708 -2.3288
 8536TIP3   OH247022   0.487   4.463  11.428  0.3779  0.4436 -0.1971
 8536TIP3    H147023   0.531   4.470  11.513 -2.1213  1.7557  1.0821
 8536TIP3    H247024   0.503   4.547  11.385  0.6818  0.1964 -0.5880
 8537TIP3   OH247025   3.054   2.908  13.686 -0.7679 -0.0593 -0.0077
 8537TIP3    H147026   2.969   2.950  13.695 -0.5866  0.1380  0.8362
 8537TIP3    H247027   3.043   2.823  13.730 -0.5617 -0.0920 -0.0200
 8538TIP3   OH247028   5.798   2.853  11.862  0.0612  0.5035  0.2943
 8538TIP3    H147029   5.842   2.838  11.778  0.6911  2.2969  0.2573
 8538TIP3    H247030   5.834   2.786  11.920 -2.4686 -2.6430 -1.4857
 8539TIP3   OH247031   6.113   4.728  15.336 -0.5050  0.1890 -0.2162
 8539TIP3    H147032   6.070   4.657  15.288  0.2678 -0.8784  0.6121
 8539TIP3    H247033   6.098   4.706  15.428  0.5384  0.5964  0.0598
 8540TIP3   OH247034   0.859   5.228  13.792  0.1971  0.0418  0.3069
 8540TIP3    H147035   0.937   5.217  13.738  0.1124 -1.1799  0.4100
 8540TIP3    H247036   0.876   5.308  13.842 -0.4784  2.2760 -2.7515
 8541TIP3   OH247037   0.523   3.754   3.296 -0.2843  0.0299  0.1309
 8541TIP3    H147038   0.504   3.728   3.386 -2.4797 -1.1781 -0.6138
 8541TIP3    H247039   0.459   3.706   3.243  1.9378 -0.5470 -2.2495
 8542TIP3   OH247040   2.018   2.741   0.267  0.8500  0.2774 -0.3247
 8542TIP3    H147041   2.008   2.657   0.311  2.9049  0.8839  1.4820
 8542TIP3    H247042   1.952   2.740   0.198 -0.0094 -2.2830  0.4225
 8543TIP3   OH247043   2.653   6.684   3.681  0.1770  0.1287 -0.1358
 8543TIP3    H147044   2.651   6.702   3.775 -2.2840 -1.5251  0.2178
 8543TIP3    H247045   2.709   6.608   3.673  1.2111  0.8749 -0.1701
 8544TIP3   OH247046   0.225   2.052  14.137  0.2773 -0.3778 -0.4697
 8544TIP3    H147047   0.192   2.088  14.054 -0.1949  0.6656  0.1367
 8544TIP3    H247048   0.298   2.109  14.160  0.7039 -0.9518 -0.3970
 8545TIP3   OH247049   0.043   0.021  16.136 -0.3750  0.1852 -0.3965
 8545TIP3    H147050   0.081   0.075  16.206 -1.5417  1.1669 -0.4811
 8545TIP3    H247051   0.075   0.061  16.055  2.1120 -1.7868 -0.4908
 8546TIP3   OH247052   3.460   4.117  16.873 -0.1789 -0.2688 -0.1804
 8546TIP3    H147053   3.546   4.145  16.842 -0.2206  0.7726  0.5953
 8546TIP3    H247054   3.400   4.141  16.803  0.1727 -1.1020 -0.7719
 8547TIP3   OH247055   0.850   0.779  11.297  0.0805  0.0207  0.3074
 8547TIP3    H147056   0.836   0.866  11.336  0.4345  0.6748 -0.9809
 8547TIP3    H247057   0.943   0.777  11.277 -0.4837  0.8019 -2.9395
 8548TIP3   OH247058   1.427   5.710  17.058 -0.3657  0.1654 -0.3469
 8548TIP3    H147059   1.348   5.752  17.021 -1.7969 -2.9819 -1.1894
 8548TIP3    H247060   1.395   5.628  17.096  2.3131 -0.4383  0.8082
 8549TIP3   OH247061   4.938   4.612   1.580 -0.3838  0.3345  0.3845
 8549TIP3    H147062   4.873   4.611   1.509  0.3171  0.3760 -0.2755
 8549TIP3    H247063   5.007   4.553   1.550 -0.2262  0.1090  1.1856
 8550TIP3   OH247064   3.034   3.817  12.074  0.0518  0.1442  0.3201
 8550TIP3    H147065   3.080   3.734  12.080 -1.0136 -0.4132  1.1774
 8550TIP3    H247066   3.091   3.879  12.120 -0.0242 -0.5275  1.3632
 8551TIP3   OH247067   5.562   4.050   5.517  0.6471 -0.1006  0.2958
 8551TIP3    H147068   5.545   4.143   5.500 -0.0423 -0.5118 -1.4719
 8551TIP3    H247069   5.477   4.008   5.504  0.8852 -0.9609  1.3972
 8552TIP3   OH247070   5.611   2.099  14.044  0.2258  0.0261 -1.0861
 8552TIP3    H147071   5.673   2.166  14.017 -1.3282  2.6041  1.2436
 8552TIP3    H247072   5.526   2.140  14.036 -0.8463 -1.8294  0.0022
 8553TIP3   OH247073   2.101   2.420  13.974 -0.1394  0.3885 -0.3676
 8553TIP3    H147074   2.012   2.412  14.008 -0.7223  0.3402 -1.8639
 8553TIP3    H247075   2.131   2.505  14.004 -0.4865  0.1997  0.5648
 8554TIP3   OH247076   4.770   6.037  16.532 -0.0723 -0.7734  0.1026
 8554TIP3    H147077   4.831   6.052  16.603 -0.5324  1.1826  0.1372
 8554TIP3    H247078   4.719   5.961  16.559  0.4806 -0.7089  1.3639
 8555TIP3   OH247079   0.196   1.749   0.400  1.2863 -0.4715  0.2668
 8555TIP3    H147080   0.265   1.775   0.339  1.8990 -1.0136  0.7015
 8555TIP3    H247081   0.178   1.658   0.379 -1.3019  0.3799 -1.6747
 8556TIP3   OH247082   5.318   2.002   5.357 -0.3989  0.0413 -0.5082
 8556TIP3    H147083   5.340   2.095   5.363 -0.3741  0.0014  0.0298
 8556TIP3    H247084   5.393   1.958   5.398 -1.4472 -0.1031  1.3505
 8557TIP3   OH247085   1.003   6.164  16.131 -0.0845  0.6427  0.2053
 8557TIP3    H147086   0.987   6.229  16.200 -2.4770 -0.7226  1.0346
 8557TIP3    H247087   0.931   6.176  16.069 -0.2191 -0.8135  0.0579
 8558TIP3   OH247088   5.256   4.921   0.419 -0.5039  0.0743  0.7222
 8558TIP3    H147089   5.216   4.834   0.421  0.5876 -0.4444  0.6285
 8558TIP3    H247090   5.221   4.966   0.496 -0.8362 -0.5538  0.9427
 8559TIP3   OH247091   1.270   1.112  12.396  0.1967 -0.4111 -0.2084
 8559TIP3    H147092   1.327   1.163  12.340  0.2276  0.4268  0.5605
 8559TIP3    H247093   1.227   1.177  12.452 -0.8859 -1.0937 -0.2094
 8560TIP3   OH247094   0.945   5.006   4.682 -0.6109 -0.6665  0.1272
 8560TIP3    H147095   1.009   5.072   4.706  1.1264 -2.3696  0.4694
 8560TIP3    H247096   0.884   5.003   4.755  1.1044 -1.5527  1.6005
 8561TIP3   OH247097   3.457   0.830   1.216 -0.0518  0.4952 -0.0231
 8561TIP3    H147098   3.365   0.805   1.223 -0.1995  1.2992  1.1259
 8561TIP3    H247099   3.464   0.912   1.265  1.1003  0.9231 -0.8516
 8562TIP3   OH247100   3.934   4.163  16.592 -0.1182 -0.6784 -0.3584
 8562TIP3    H147101   3.983   4.081  16.590  1.5313  0.2601 -1.7910
 8562TIP3    H247102   3.937   4.195  16.502 -1.7737  0.3649 -0.0752
 8563TIP3   OH247103   4.057   2.128   3.852 -0.0737  0.1930 -0.8725
 8563TIP3    H147104   4.135   2.183   3.866 -0.0497  0.5740 -2.3931
 8563TIP3    H247105   4.005   2.141   3.931  1.2380  0.1922  0.0379
 8564TIP3   OH247106   3.118   0.945   4.469  0.1645 -0.7229 -0.7993
 8564TIP3    H147107   3.117   0.952   4.374  1.1645  2.1078 -0.6909
 8564TIP3    H247108   3.210   0.956   4.493 -0.2003 -0.3428  0.5087
 8565TIP3   OH247109   4.020   3.082   3.309  0.1985 -0.0744  0.1795
 8565TIP3    H147110   4.096   3.029   3.284  0.9714  0.2030  1.7806
 8565TIP3    H247111   4.048   3.172   3.294 -0.6582 -0.0408 -1.3567
 8566TIP3   OH247112   3.697   5.883  12.963  0.3286  0.2513 -0.4905
 8566TIP3    H147113   3.723   5.840  13.045 -1.1435 -0.9096 -0.5882
 8566TIP3    H247114   3.695   5.976  12.984 -0.2502 -0.0409  0.8863
 8567TIP3   OH247115   1.922   4.341   2.302 -0.3498  0.1410  0.9189
 8567TIP3    H147116   1.851   4.317   2.242 -0.9790 -1.0546  2.1131
 8567TIP3    H247117   1.953   4.258   2.337  1.4677  0.6680  0.6577
 8568TIP3   OH247118   0.275   3.736   1.130 -0.1785  0.0111  0.6178
 8568TIP3    H147119   0.343   3.671   1.113  0.4260  0.7253  0.2769
 8568TIP3    H247120   0.291   3.806   1.067 -1.5216 -0.0157  0.2160
 8569TIP3   OH247121   3.475   0.711   4.362  0.4645 -0.7685  0.6182
 8569TIP3    H147122   3.477   0.619   4.335  2.3796 -0.6648  0.2664
 8569TIP3    H247123   3.566   0.740   4.355 -0.3822  1.7949 -1.4750
 8570TIP3   OH247124   1.645   4.713  13.022 -0.3725 -0.4802 -0.0383
 8570TIP3    H147125   1.708   4.649  12.989 -2.8390 -2.1240 -2.0016
 8570TIP3    H247126   1.605   4.672  13.098  0.5785  0.3878  0.9639
 8571TIP3   OH247127   4.656   6.143  14.953 -0.4672 -0.1878  0.1211
 8571TIP3    H147128   4.692   6.133  15.040 -2.7012 -1.4026  1.0000
 8571TIP3    H247129   4.584   6.079  14.949 -0.9755  0.4121 -2.2976
 8572TIP3   OH247130   1.904   6.476  14.368  0.1107  0.3059 -0.3137
 8572TIP3    H147131   1.899   6.396  14.422  2.1009 -0.7583 -1.5872
 8572TIP3    H247132   1.813   6.492  14.342 -0.5235 -0.7439  1.0898
 8573TIP3   OH247133   3.708   4.583   2.077 -0.1782 -0.3416  0.1771
 8573TIP3    H147134   3.621   4.544   2.070 -0.1718 -0.4696  0.7713
 8573TIP3    H247135   3.750   4.536   2.149  0.5723 -0.6286 -0.4291
 8574TIP3   OH247136   6.805   5.440   2.686 -0.4658  0.1703 -0.3384
 8574TIP3    H147137   6.853   5.496   2.625  2.7273 -1.6017  0.3242
 8574TIP3    H247138   6.753   5.383   2.629  1.1126 -0.3022 -1.3782
 8575TIP3   OH247139   2.582   6.785  13.843  0.3948 -0.5168  0.6588
 8575TIP3    H147140   2.544   6.735  13.770  2.5196 -0.5661 -0.4766
 8575TIP3    H247141   2.673   6.758  13.846  0.8275  0.9660  2.0759
 8576TIP3   OH247142   6.032   5.322   5.568 -0.2015  0.4433  0.2319
 8576TIP3    H147143   6.026   5.360   5.656  0.7423 -0.1755  0.5726
 8576TIP3    H247144   6.115   5.356   5.533 -0.8746  1.2022 -0.6765
 8577TIP3   OH247145   3.765   4.960   0.435  0.2160  0.3566  0.2126
 8577TIP3    H147146   3.851   4.993   0.463 -0.5526  1.4284  1.4267
 8577TIP3    H247147   3.781   4.869   0.411  1.8148  0.7150 -0.2397
 8578TIP3   OH247148   6.604   5.563  11.753  0.1371 -0.4412  0.5532
 8578TIP3    H147149   6.674   5.515  11.799 -1.7096 -1.2577  2.6920
 8578TIP3    H247150   6.581   5.634  11.812  0.8382  1.4119 -1.3033
 8579TIP3   OH247151   2.205   3.221  11.711 -0.6866  0.2911  0.8471
 8579TIP3    H147152   2.162   3.186  11.633  0.2715  0.4065  0.2504
 8579TIP3    H247153   2.168   3.171  11.783 -1.0353 -0.3409  0.2409
 8580TIP3   OH247154   2.104   3.169  16.489 -0.4651 -0.8829  0.3455
 8580TIP3    H147155   2.031   3.230  16.494  0.0141 -0.3053  0.3184
 8580TIP3    H247156   2.157   3.200  16.416  0.1325 -0.9378  0.7475
 8581TIP3   OH247157   0.367   5.698   2.555  0.3916 -0.7806  0.0188
 8581TIP3    H147158   0.404   5.784   2.539  2.2248 -1.5365 -0.0059
 8581TIP3    H247159   0.362   5.691   2.651  0.1457 -0.6191  0.0188
 8582TIP3   OH247160   1.158   1.328  12.561 -0.4874  0.2774 -0.4352
 8582TIP3    H147161   1.154   1.335  12.656 -0.3840  0.6002 -0.4531
 8582TIP3    H247162   1.074   1.364  12.530 -0.1959  0.9196 -0.5000
 8583TIP3   OH247163   5.142   1.079  11.323  0.3791 -0.5383  0.0778
 8583TIP3    H147164   5.112   1.082  11.232 -0.1994  3.1510  0.2609
 8583TIP3    H247165   5.082   1.018  11.365  0.0338 -1.5654 -1.7691
 8584TIP3   OH247166   5.894   4.905  14.980 -0.2683  0.2574  0.1684
 8584TIP3    H147167   5.907   4.914  15.074 -3.0554 -0.1182  0.6717
 8584TIP3    H247168   5.952   4.834  14.954  0.1025 -0.0312  1.7215
 8585TIP3   OH247169   1.725   2.263  15.859 -0.1930  0.2512  0.1829
 8585TIP3    H147170   1.636   2.229  15.855  0.1073 -0.5424  0.0034
 8585TIP3    H247171   1.736   2.293  15.949 -1.0285  1.4555 -0.1008
 8586TIP3   OH247172   5.749   1.158  11.146  0.6104 -0.4800  0.2131
 8586TIP3    H147173   5.841   1.136  11.134  0.4861 -0.4209 -0.9005
 8586TIP3    H247174   5.720   1.100  11.217  1.1774 -1.3964 -0.2800
 8587TIP3   OH247175   0.060   3.706   5.397  0.6746 -0.1801  0.0628
 8587TIP3    H147176   0.115   3.713   5.475  0.6946 -0.3960  0.0673
 8587TIP3    H247177   0.075   3.789   5.350  1.1809 -0.3336 -0.0551
 8588TIP3   OH247178   2.788   2.551   3.155 -0.5200 -0.0643 -0.2943
 8588TIP3    H147179   2.741   2.610   3.214  1.1437 -0.6427  1.7472
 8588TIP3    H247180   2.720   2.493   3.121 -1.7919  1.3596 -0.2933
 8589TIP3   OH247181   4.264   4.972  11.377  0.1216 -0.2772 -0.2153
 8589TIP3    H147182   4.341   5.021  11.405 -1.0222  2.4659 -1.4936
 8589TIP3    H247183   4.255   4.994  11.284 -0.3482 -3.1966 -0.9474
 8590TIP3   OH247184   1.620   1.991   5.222  0.7083 -0.2850 -0.2048
 8590TIP3    H147185   1.575   1.913   5.191  1.1365 -0.3918 -0.5770
 8590TIP3    H247186   1.663   1.964   5.303  0.8158 -0.4274 -0.3081
 8591TIP3   OH247187   1.963   5.148  11.455 -0.3748  0.2091 -0.3642
 8591TIP3    H147188   1.975   5.172  11.363 -0.6357  0.7692 -0.2535
 8591TIP3    H247189   1.903   5.073  11.452 -1.9870  1.4621 -0.5515
 8592TIP3   OH247190   2.231   3.565   5.178 -0.1119 -0.2600  0.0670
 8592TIP3    H147191   2.212   3.475   5.152  2.4963 -0.3836 -1.7711
 8592TIP3    H247192   2.278   3.602   5.104  1.6236  1.6434  1.9919
 8593TIP3   OH247193   6.548   0.681   1.281  0.1329  0.1335 -0.1252
 8593TIP3    H147194   6.578   0.712   1.195  0.9685  1.0620  0.4769
 8593TIP3    H247195   6.454   0.698   1.281  0.0562 -0.2370 -0.9985
 8594TIP3   OH247196   4.513   0.484  11.605  0.1788 -0.0977  0.1795
 8594TIP3    H147197   4.462   0.555  11.565  1.4307  0.7382  0.0126
 8594TIP3    H247198   4.460   0.456  11.680 -0.1905  1.2395  0.4387
 8595TIP3   OH247199   0.877   4.778  10.901 -0.5069  0.4249  0.0350
 8595TIP3    H147200   0.969   4.803  10.905 -0.5566  0.4526  1.6719
 8595TIP3    H247201   0.874   4.707  10.837  0.6534  0.3984 -0.0089
 8596TIP3   OH247202   3.659   1.638   1.562 -0.3891  0.1115 -0.2176
 8596TIP3    H147203   3.574   1.680   1.580 -0.2052  1.1069 -1.5647
 8596TIP3    H247204   3.653   1.554   1.607 -1.5995  0.6889  0.7835
 8597TIP3   OH247205   0.120   0.211   1.134  0.2169  0.2788  0.0323
 8597TIP3    H147206   0.030   0.179   1.130  0.3077 -0.4458  2.3145
 8597TIP3    H247207   0.172   0.134   1.154  0.9259  1.1614  1.8182
 8598TIP3   OH247208   5.879   5.311  12.396  0.8182  0.0189  0.4440
 8598TIP3    H147209   5.836   5.279  12.476  2.1730 -0.6341  0.9539
 8598TIP3    H247210   5.828   5.274  12.325  0.7490 -1.0723  1.0386
 8599TIP3   OH247211   2.542   6.634   3.430 -0.1620 -0.4596 -1.0068
 8599TIP3    H147212   2.591   6.658   3.509 -1.3674  0.8085 -0.5936
 8599TIP3    H247213   2.451   6.626   3.460 -1.0481  2.3180 -2.6072
 8600TIP3   OH247214   5.221   0.930   4.709  0.2273 -0.6789 -0.6248
 8600TIP3    H147215   5.279   0.964   4.640 -0.6956 -0.4051 -1.2891
 8600TIP3    H247216   5.176   1.007   4.743 -0.2710 -0.9681 -0.6158
 8601TIP3   OH247217   4.921   2.406  13.407 -0.3377  0.5182  0.4560
 8601TIP3    H147218   4.828   2.388  13.413 -0.0969 -1.5946 -0.9045
 8601TIP3    H247219   4.927   2.492  13.366 -1.7966 -0.9292 -3.2185
 8602TIP3   OH247220   2.611   2.704  13.760  0.3280  0.2332 -0.2286
 8602TIP3    H147221   2.605   2.610  13.742  4.7761 -1.1186  3.4370
 8602TIP3    H247222   2.537   2.721  13.819  1.3268 -2.0476  1.9134
 8603TIP3   OH247223   2.421   2.903   5.570  0.0790  0.9006  0.1385
 8603TIP3    H147224   2.465   2.880   5.651  1.0754  0.7665 -0.4251
 8603TIP3    H247225   2.388   2.820   5.536  0.0078  0.9039  0.1980
 8604TIP3   OH247226   5.278   4.297   1.157 -0.0042 -0.3989  0.1770
 8604TIP3    H147227   5.343   4.328   1.220  1.6334 -0.1952 -1.5246
 8604TIP3    H247228   5.322   4.228   1.108 -1.7486 -1.6050  0.2023
 8605TIP3   OH247229   3.641   3.910  12.244  0.6325  0.0144 -0.0188
 8605TIP3    H147230   3.612   3.980  12.302  1.3815  0.6108 -0.3467
 8605TIP3    H247231   3.728   3.936  12.216  1.0453 -1.1913  0.0709
 8606TIP3   OH247232   0.960   4.534  12.215  0.6002  0.6740 -0.7043
 8606TIP3    H147233   0.955   4.629  12.227  1.2881  0.4772  1.7809
 8606TIP3    H247234   1.036   4.507  12.268  0.8154 -1.1999 -1.8599
 8607TIP3   OH247235   3.776   3.760   4.153 -0.2429  0.3080  0.4038
 8607TIP3    H147236   3.833   3.713   4.092 -0.7453 -1.4747  1.2374
 8607TIP3    H247237   3.766   3.847   4.115  0.9795 -0.1547 -1.0580
 8608TIP3   OH247238   0.627   4.197   2.517 -0.2968 -0.0880  0.4965
 8608TIP3    H147239   0.596   4.126   2.573  0.5716  0.0313  1.1302
 8608TIP3    H247240   0.628   4.274   2.573 -3.5064  1.0368 -0.7503
 8609TIP3   OH247241   0.579   1.405   2.554 -0.0595  0.5667  0.0381
 8609TIP3    H147242   0.559   1.312   2.545 -0.5506  0.6847 -0.0900
 8609TIP3    H247243   0.675   1.408   2.562  0.2471  0.2403 -2.5897
 8610TIP3   OH247244   1.401   1.809  11.586  0.1300  0.0437 -0.3027
 8610TIP3    H147245   1.487   1.769  11.595 -0.1449 -0.3953  0.4703
 8610TIP3    H247246   1.412   1.897  11.623  0.4282  0.2631 -0.8987
 8611TIP3   OH247247   4.677   2.046  13.150 -0.1610  0.9893  0.1990
 8611TIP3    H147248   4.712   2.135  13.140  0.0508  0.8113 -0.6707
 8611TIP3    H247249   4.613   2.054  13.221 -1.0475  2.1043 -0.6999
 8612TIP3   OH247250   2.474   2.745   2.990  0.1094 -0.0479 -0.2066
 8612TIP3    H147251   2.538   2.810   3.019  0.0562 -0.3751  0.6704
 8612TIP3    H247252   2.521   2.692   2.926  0.8204 -0.4785  0.6588
 8613TIP3   OH247253   0.450   5.123   3.934 -0.5867  0.9591  0.0393
 8613TIP3    H147254   0.365   5.095   3.899  0.2736 -0.2576 -1.1513
 8613TIP3    H247255   0.469   5.059   4.002  0.3743 -0.1212 -1.2038
 8614TIP3   OH247256   2.524   1.002  15.458 -0.1612  0.3807  0.0260
 8614TIP3    H147257   2.610   0.987  15.419  0.8179  3.2766  0.8438
 8614TIP3    H247258   2.514   0.932  15.523  0.5529 -1.2830 -1.5827
 8615TIP3   OH247259   0.415   2.089  11.249 -0.6984 -0.3169  0.6985
 8615TIP3    H147260   0.506   2.101  11.277 -0.1337  0.5063 -1.2670
 8615TIP3    H247261   0.363   2.127  11.319  0.6144  1.5457  0.7520
 8616TIP3   OH247262   2.076   3.334  14.886 -0.5875 -0.0532 -0.0023
 8616TIP3    H147263   2.033   3.368  14.964  0.7686  1.0228  0.2950
 8616TIP3    H247264   2.098   3.244  14.908 -2.9329 -0.7773 -0.2867
 8617TIP3   OH247265   2.561   2.536   0.956 -0.5114  0.2901 -0.4550
 8617TIP3    H147266   2.557   2.456   1.009 -2.1936  1.9392  2.1706
 8617TIP3    H247267   2.654   2.557   0.951 -0.1909 -0.7880  0.4738
 8618TIP3   OH247268   4.915   1.282  11.905  0.3146 -0.4800 -0.2276
 8618TIP3    H147269   4.964   1.364  11.899  1.7001 -1.0104  2.3451
 8618TIP3    H247270   4.840   1.295  11.847  1.3592  1.9329 -1.1896
 8619TIP3   OH247271   5.044   3.637   1.584  0.4368  0.1421 -0.3971
 8619TIP3    H147272   5.032   3.545   1.610  0.0694  0.0735 -0.8012
 8619TIP3    H247273   5.092   3.632   1.501 -0.1985  0.2902 -0.7770
 8620TIP3   OH247274   4.445   4.981  12.668 -0.1132 -0.3323 -0.5455
 8620TIP3    H147275   4.393   4.983  12.748  0.7040  2.9847  0.0553
 8620TIP3    H247276   4.517   4.921  12.687  0.3792  0.8136  1.4874
 8621TIP3   OH247277   0.313   0.447  16.305 -0.2094  0.0852  0.2906
 8621TIP3    H147278   0.393   0.416  16.348 -0.2247 -0.0435  0.2279
 8621TIP3    H247279   0.345   0.495  16.229 -0.1880  0.1254  0.3255
 8622TIP3   OH247280   0.296   5.369   5.669  0.0124 -0.1556 -0.3701
 8622TIP3    H147281   0.370   5.356   5.609 -0.0992  0.5200 -0.6699
 8622TIP3    H247282   0.331   5.345   5.755  0.5647  0.0876 -0.5171
 8623TIP3   OH247283   6.633   4.057  11.549 -0.0499  0.4194  0.6493
 8623TIP3    H147284   6.631   4.139  11.501 -0.6846  0.3794  0.6028
 8623TIP3    H247285   6.629   4.083  11.641 -0.0609  0.4432  0.6422
 8624TIP3   OH247286   3.753   1.540   2.892  0.0073  0.0949 -0.4489
 8624TIP3    H147287   3.800   1.604   2.945  0.5877  0.5515 -1.4956
 8624TIP3    H247288   3.694   1.592   2.838 -1.5847 -0.4494  0.6691
 8625TIP3   OH247289   0.569   5.131   0.384  0.5149 -0.0592 -0.6199
 8625TIP3    H147290   0.657   5.098   0.404  0.0191 -0.6376  0.7585
 8625TIP3    H247291   0.567   5.138   0.289  1.3915 -2.0220 -0.8390
 8626TIP3   OH247292   6.014   5.594   4.436  0.4248  0.1369 -0.0859
 8626TIP3    H147293   5.957   5.556   4.369 -0.7032 -2.3455  2.0980
 8626TIP3    H247294   6.070   5.521   4.464  0.1626  0.7708  2.3359
 8627TIP3   OH247295   2.616   0.462  10.245 -0.0106  0.6565  0.2537
 8627TIP3    H147296   2.623   0.557  10.240 -1.0635  0.7214 -0.2417
 8627TIP3    H247297   2.546   0.446  10.308  0.8292  0.1750  1.0951
 8628TIP3   OH247298   4.589   2.328   3.068  0.3328  0.1264  0.3576
 8628TIP3    H147299   4.544   2.411   3.086  0.1551  0.3358 -0.9320
 8628TIP3    H247300   4.558   2.268   3.136 -1.7952  0.3153 -0.3739
 8629TIP3   OH247301   0.042   2.346  12.343 -0.0877 -0.0435  0.0252
 8629TIP3    H147302   0.070   2.260  12.312 -0.5991 -0.1512 -0.1525
 8629TIP3    H247303  -0.009   2.327  12.422 -0.1751  0.0948  0.0021
 8630TIP3   OH247304   4.034   4.330  15.906 -0.4030 -0.3975  0.6407
 8630TIP3    H147305   4.114   4.333  15.853 -0.5439 -2.3222  0.2744
 8630TIP3    H247306   4.002   4.241  15.896 -2.4618  0.2599  1.0188
 8631TIP3   OH247307   1.910   2.440  15.329  0.0986  0.0216 -0.3778
 8631TIP3    H147308   1.863   2.362  15.300  2.4050 -1.1790 -1.1269
 8631TIP3    H247309   1.925   2.427  15.422 -0.4366  0.0684 -0.2863
 8632TIP3   OH247310   1.660   6.322   5.314 -0.3289 -0.5148  0.2032
 8632TIP3    H147311   1.665   6.374   5.395 -1.0635  1.6358 -1.0606
 8632TIP3    H247312   1.583   6.356   5.268  1.4710  0.1652 -2.5731
 8633TIP3   OH247313   6.374   5.231  15.178  0.5831  0.0115  0.8603
 8633TIP3    H147314   6.356   5.150  15.226  0.1415 -0.6192 -0.3412
 8633TIP3    H247315   6.333   5.300  15.231  0.2017 -0.6564  1.4509
 8634TIP3   OH247316   2.419   3.218  16.568  0.3689 -0.4701 -0.1341
 8634TIP3    H147317   2.400   3.131  16.533 -1.0505  0.0999 -0.8627
 8634TIP3    H247318   2.391   3.214  16.660 -3.1789  0.1928 -1.0435
 8635TIP3   OH247319   1.474   5.308   3.051 -0.2145 -0.0666  0.0402
 8635TIP3    H147320   1.443   5.323   2.962 -2.2864 -1.4737  0.4387
 8635TIP3    H247321   1.569   5.297   3.042 -0.5088 -1.4435 -2.2123
 8636TIP3   OH247322   3.518   4.758  16.685 -0.3644 -0.3638 -0.1698
 8636TIP3    H147323   3.436   4.775  16.732  0.4592 -0.6427  1.4366
 8636TIP3    H247324   3.569   4.704  16.744  1.4094  0.6570 -0.6964
 8637TIP3   OH247325   0.246   6.291  11.348 -0.2508  0.0151 -0.2405
 8637TIP3    H147326   0.292   6.215  11.311  0.2975  0.3828 -0.3166
 8637TIP3    H247327   0.175   6.308  11.285  1.4141  1.4163 -1.8865
 8638TIP3   OH247328   6.573   3.040  12.806 -0.0821 -0.2321 -0.0651
 8638TIP3    H147329   6.503   3.009  12.748 -0.4944 -0.9918  0.8063
 8638TIP3    H247330   6.638   3.078  12.747  0.0778 -2.0527 -1.1287
 8639TIP3   OH247331   1.686   4.500   2.412 -0.0810 -0.7134  0.6858
 8639TIP3    H147332   1.767   4.453   2.388  0.1456 -0.5130  1.0662
 8639TIP3    H247333   1.686   4.502   2.507  0.8467  1.6628  0.7053
 8640TIP3   OH247334   1.902   2.393  13.443  0.0471 -0.3334  0.8161
 8640TIP3    H147335   1.896   2.329  13.514 -0.1421 -0.4849  0.6651
 8640TIP3    H247336   1.976   2.365  13.391 -1.1110 -1.4952 -0.2820
 8641TIP3   OH247337   2.288   6.452   3.103 -0.6757 -0.0668  0.8122
 8641TIP3    H147338   2.382   6.444   3.120 -0.8201 -1.2030  1.1285
 8641TIP3    H247339   2.277   6.428   3.012 -0.6651  0.0879  0.7691
 8642TIP3   OH247340   4.965   4.868   0.237  0.1074  0.1903 -0.0436
 8642TIP3    H147341   5.005   4.794   0.192  1.9666  0.5224  0.9610
 8642TIP3    H247342   4.888   4.831   0.280  0.1869 -0.8272 -0.7304
 8643TIP3   OH247343   3.343   5.384   6.360 -0.9462  0.2116  0.5217
 8643TIP3    H147344   3.326   5.477   6.344 -0.1103  0.3013  0.1455
 8643TIP3    H247345   3.256   5.348   6.380 -1.6234  0.6431 -1.4385
 8644TIP3   OH247346   2.848   4.309   2.660  0.2639 -0.7307 -0.1075
 8644TIP3    H147347   2.848   4.327   2.566 -2.3247  0.3215  0.0258
 8644TIP3    H247348   2.803   4.225   2.668 -1.1636  0.0488  0.2773
 8645TIP3   OH247349   4.505   0.819  13.943 -0.0947 -0.1647  0.1761
 8645TIP3    H147350   4.569   0.833  14.013  1.2283 -1.5162 -0.7075
 8645TIP3    H247351   4.539   0.872  13.870 -0.5761 -0.0341  0.0469
 8646TIP3   OH247352   1.919   1.600   5.864 -0.4521  0.3745  0.6516
 8646TIP3    H147353   1.945   1.587   5.955 -1.0063  3.8418  1.4471
 8646TIP3    H247354   1.824   1.611   5.868 -0.7636 -1.4502 -0.6817
 8647TIP3   OH247355   5.481   0.222   1.919  0.0819 -0.0116 -0.0475
 8647TIP3    H147356   5.533   0.267   1.986 -0.3703  0.1188  0.2213
 8647TIP3    H247357   5.513   0.258   1.836 -0.8984  1.5268  0.1846
 8648TIP3   OH247358   4.915   1.986   6.212 -0.0725  0.2744  0.1905
 8648TIP3    H147359   4.842   1.977   6.150  1.0011  0.4742 -1.1557
 8648TIP3    H247360   4.912   2.078   6.238 -1.2044 -0.0606  1.3412
 8649TIP3   OH247361   1.008   5.515  11.608 -0.2440 -0.0076  0.2094
 8649TIP3    H147362   1.015   5.508  11.703  0.3757 -0.6767  0.1223
 8649TIP3    H247363   0.947   5.446  11.582 -0.7447  0.4495  0.1576
 8650TIP3   OH247364   4.868   1.410   5.352 -0.0284  0.0020  0.1083
 8650TIP3    H147365   4.797   1.346   5.347 -0.8853  0.9491 -0.2317
 8650TIP3    H247366   4.875   1.432   5.445 -0.3252  0.0571  0.1185
 8651TIP3   OH247367   6.549   3.121   5.340 -0.0906  0.4655 -0.0632
 8651TIP3    H147368   6.615   3.189   5.332 -0.5423  0.9211  0.0033
 8651TIP3    H247369   6.594   3.048   5.381 -0.0915  1.4366  1.7635
 8652TIP3   OH247370   5.525   4.595   6.010  0.0858  0.4748 -0.0007
 8652TIP3    H147371   5.435   4.620   6.031  0.5286  1.7387  0.5221
 8652TIP3    H247372   5.531   4.503   6.036 -1.4136 -0.0401 -1.2880
 8653TIP3   OH247373   0.627   6.737  12.571 -0.2778  0.0570  0.9575
 8653TIP3    H147374   0.652   6.695  12.489  0.6327 -0.5484  1.5270
 8653TIP3    H247375   0.533   6.753  12.562 -0.3964 -0.9464  0.2148
 8654TIP3   OH247376   1.211   0.008   0.154  0.3242 -0.5563  0.4407
 8654TIP3    H147377   1.260   0.071   0.101  2.2532 -0.0195  2.6727
 8654TIP3    H247378   1.212  -0.073   0.103  0.6282  0.3385 -1.0337
 8655TIP3   OH247379   5.243   2.940   3.618  0.0065 -0.6663 -0.5276
 8655TIP3    H147380   5.321   2.974   3.661  0.1274 -0.6026 -0.7984
 8655TIP3    H247381   5.207   2.876   3.680 -0.6028  0.4321  0.2809
 8656TIP3   OH247382   6.025   2.565  11.187 -0.5778 -0.4157  0.3375
 8656TIP3    H147383   6.066   2.583  11.272  3.6779 -1.0777 -1.2971
 8656TIP3    H247384   6.055   2.477  11.165 -3.5196 -1.2103 -0.9437
 8657TIP3   OH247385   5.935   3.998   5.091  0.4578  0.2880 -0.1068
 8657TIP3    H147386   5.886   3.991   5.173 -0.6867 -0.9206 -0.8480
 8657TIP3    H247387   5.968   4.087   5.089  0.9317  0.1944  1.8979
 8658TIP3   OH247388   6.229   4.388  15.623 -0.5019  0.1150 -0.5916
 8658TIP3    H147389   6.309   4.405  15.575 -0.9736  2.1704 -0.7086
 8658TIP3    H247390   6.159   4.421  15.567 -1.3829 -0.9004 -0.1326
 8659TIP3   OH247391   6.541   6.128   3.421 -0.0593  0.4038 -0.5997
 8659TIP3    H147392   6.483   6.140   3.345  0.0400 -1.5950 -1.0370
 8659TIP3    H247393   6.504   6.054   3.468  0.7603  0.6656  0.4897
 8660TIP3   OH247394   3.818   0.304   5.633  0.0495 -0.3424  0.2156
 8660TIP3    H147395   3.775   0.389   5.635 -0.1307 -0.3954 -0.8419
 8660TIP3    H247396   3.785   0.258   5.710 -1.3271 -0.1659 -0.2531
 8661TIP3   OH247397   4.456   0.579  12.317  0.4035 -0.6243  0.2607
 8661TIP3    H147398   4.552   0.578  12.320  0.4277  1.2359  1.2142
 8661TIP3    H247399   4.429   0.605  12.405 -1.0372 -1.9158  0.2452
 8662TIP3   OH247400   1.991   4.254  15.782  0.4850 -0.1019 -0.4957
 8662TIP3    H147401   1.989   4.304  15.701  1.1756 -0.1340 -0.5434
 8662TIP3    H247402   1.903   4.263  15.819  0.3753  0.4971 -0.8898
 8663TIP3   OH247403   1.288   4.766   0.168 -0.0169  0.3335  0.0863
 8663TIP3    H147404   1.370   4.737   0.208  0.0463  0.3624 -0.0239
 8663TIP3    H247405   1.221   4.711   0.209  0.0148  0.5647  0.4464
 8664TIP3   OH247406   0.297   4.662  14.325 -0.3324 -0.3096 -0.0877
 8664TIP3    H147407   0.208   4.632  14.310 -0.5890  0.7819 -0.8813
 8664TIP3    H247408   0.340   4.655  14.240  0.1662 -0.2842  0.1575
 8665TIP3   OH247409   5.206   1.465  12.743  0.4869 -0.0241  0.1306
 8665TIP3    H147410   5.123   1.483  12.699 -0.6442 -1.0573  1.7609
 8665TIP3    H247411   5.226   1.374  12.720  2.1749  0.7304 -1.7344
 8666TIP3   OH247412   0.066   0.951   3.510 -0.2556  0.5534  0.1031
 8666TIP3    H147413  -0.021   0.952   3.549 -0.6682  0.3889 -0.7882
 8666TIP3    H247414   0.051   0.941   3.416  0.7136  0.8567 -0.1030
 8667TIP3   OH247415   5.367   1.277   4.559  0.1314  0.1305  0.5651
 8667TIP3    H147416   5.430   1.308   4.624  4.1994  0.1038 -2.9690
 8667TIP3    H247417   5.387   1.184   4.548 -1.6562 -0.2754  0.3232
 8668TIP3   OH247418   3.976   3.873  13.431 -0.3888 -0.3586 -0.6385
 8668TIP3    H147419   4.021   3.954  13.407  1.4773 -0.6032  1.7246
 8668TIP3    H247420   4.024   3.804  13.385  0.4614 -0.4259  0.3071
 8669TIP3   OH247421   4.575   2.035   0.686 -0.0201  0.5110  0.5475
 8669TIP3    H147422   4.646   2.066   0.630  0.7246  1.3103  1.8958
 8669TIP3    H247423   4.502   2.093   0.666 -0.0271  0.2666 -0.1817
 8670TIP3   OH247424   2.044   6.283   0.495  0.5937  0.0197  0.1759
 8670TIP3    H147425   2.038   6.378   0.482 -0.9744  0.0156  0.7417
 8670TIP3    H247426   2.080   6.251   0.413 -1.1571  0.8711 -0.9822
 8671TIP3   OH247427   0.739   1.999   4.067  0.3191 -0.4706 -0.4632
 8671TIP3    H147428   0.664   1.975   4.122 -0.3810  1.5659 -0.4412
 8671TIP3    H247429   0.711   1.976   3.978 -0.1724 -0.1186 -0.4050
 8672TIP3   OH247430   3.209   2.485  16.025 -0.7428  0.4823  0.2053
 8672TIP3    H147431   3.207   2.395  16.058 -0.1703 -0.0385 -1.0975
 8672TIP3    H247432   3.232   2.538  16.101  0.1292 -0.6115  0.7310
 8673TIP3   OH247433   6.578   4.447   2.748 -0.7128  0.0626 -0.0635
 8673TIP3    H147434   6.514   4.476   2.812  1.5777  0.8884  2.0214
 8673TIP3    H247435   6.560   4.353   2.736 -0.5150 -0.4243  2.7791
 8674TIP3   OH247436   1.340   1.417   1.860  0.4831 -0.0416  0.1228
 8674TIP3    H147437   1.371   1.443   1.774 -0.3474  1.9797  0.4040
 8674TIP3    H247438   1.419   1.422   1.915  0.6689  0.3083 -0.1683
 8675TIP3   OH247439   6.104   3.517   2.959 -0.9809 -0.7222  0.2230
 8675TIP3    H147440   6.184   3.569   2.956 -1.0403 -0.5505 -3.1544
 8675TIP3    H247441   6.040   3.568   2.909 -3.1203 -1.0624  2.4603
 8676TIP3   OH247442   1.833   1.024  15.999 -0.3531 -0.1389  0.7710
 8676TIP3    H147443   1.857   1.085  15.930  0.2563  1.3386  2.2055
 8676TIP3    H247444   1.783   0.956  15.955 -0.7594  1.2024 -0.9542
 8677TIP3   OH247445   6.002   2.290   5.826  0.1492 -0.5733  0.0586
 8677TIP3    H147446   6.011   2.206   5.872  0.0146 -0.9106 -0.5274
 8677TIP3    H247447   6.029   2.356   5.891 -1.1515 -0.9424  1.0037
 8678TIP3   OH247448   1.448   3.691   3.141  0.3364  0.3704 -0.1128
 8678TIP3    H147449   1.517   3.755   3.122 -0.5299  1.3252 -0.1599
 8678TIP3    H247450   1.367   3.737   3.119 -0.2319 -1.4523 -2.1345
 8679TIP3   OH247451   3.499   0.306   0.172  0.0046 -0.2796  0.5370
 8679TIP3    H147452   3.570   0.284   0.233 -0.6576 -0.0334  1.4090
 8679TIP3    H247453   3.458   0.383   0.210  1.0400  1.3398 -1.4574
 8680TIP3   OH247454   6.562   1.553  12.808  0.0030  0.5583 -0.1053
 8680TIP3    H147455   6.540   1.624  12.869 -0.7088  0.2059  0.0534
 8680TIP3    H247456   6.579   1.478  12.864 -0.8759  0.1731 -0.3516
 8681TIP3   OH247457   0.322   3.446   0.798  0.0464 -0.2705 -0.1460
 8681TIP3    H147458   0.320   3.415   0.708  0.6154 -0.3219 -0.1445
 8681TIP3    H247459   0.415   3.454   0.819 -0.0621  1.5666 -0.1933
 8682TIP3   OH247460   2.562   0.549   0.150 -0.3145  0.6503 -0.4679
 8682TIP3    H147461   2.620   0.506   0.086 -1.5583  0.9839 -1.8719
 8682TIP3    H247462   2.618   0.565   0.226  0.3681 -3.0333 -0.0096
 8683TIP3   OH247463   1.328   0.388   4.355 -0.9046 -0.1547  0.0857
 8683TIP3    H147464   1.400   0.442   4.390 -1.3595  0.2509  0.4224
 8683TIP3    H247465   1.322   0.413   4.263 -0.1565 -0.7082 -0.1192
 8684TIP3   OH247466   0.690   2.936  12.197  0.4127 -0.0991 -0.1992
 8684TIP3    H147467   0.769   2.991  12.200  0.8369 -0.6295 -1.2330
 8684TIP3    H247468   0.721   2.849  12.220 -0.5603  0.3288  3.2595
 8685TIP3   OH247469   0.178   4.700   5.159  0.1424  0.0592 -0.4230
 8685TIP3    H147470   0.220   4.676   5.077 -1.8491  1.2102 -1.8760
 8685TIP3    H247471   0.132   4.620   5.187  0.0092 -0.0627 -0.9845
 8686TIP3   OH247472   5.101   3.548   1.218  0.4029 -0.4244 -0.0092
 8686TIP3    H147473   5.140   3.610   1.280 -0.7947  0.7645 -0.4013
 8686TIP3    H247474   5.040   3.601   1.166 -2.0560 -2.2660  0.8450
 8687TIP3   OH247475   3.088   2.577  11.925 -0.4921  0.3950 -0.0893
 8687TIP3    H147476   3.135   2.506  11.882 -1.7788  0.3117 -1.4602
 8687TIP3    H247477   3.035   2.534  11.992 -1.2796  0.0328 -0.9272
 8688TIP3   OH247478   2.875   6.674   5.628 -0.7279 -0.5111  0.1717
 8688TIP3    H147479   2.935   6.645   5.559  0.2787  3.2312 -0.7455
 8688TIP3    H247480   2.923   6.657   5.709  0.9502  0.9066 -0.4596
 8689TIP3   OH247481   4.200   4.827   3.748 -0.2250  0.7608  0.0121
 8689TIP3    H147482   4.263   4.755   3.751 -0.1758  0.8460  1.6389
 8689TIP3    H247483   4.115   4.783   3.737 -0.4032  0.2536  2.7214
 8690TIP3   OH247484   0.105   0.720   4.307  0.2724  0.3612  0.4198
 8690TIP3    H147485   0.190   0.726   4.262  0.0990  1.6160  0.2385
 8690TIP3    H247486   0.040   0.730   4.237 -0.0117  0.6835  0.7245
 8691TIP3   OH247487   3.464   1.077   4.294  0.2630  0.1573  0.1554
 8691TIP3    H147488   3.491   1.043   4.380  0.4570  0.2508  0.1323
 8691TIP3    H247489   3.504   1.018   4.231  3.2782  2.1565 -0.0194
 8692TIP3   OH247490   4.936   5.857  10.370  0.3578 -0.4541 -0.0250
 8692TIP3    H147491   5.018   5.845  10.419 -0.8350  0.7083  2.4834
 8692TIP3    H247492   4.953   5.930  10.312  1.5413 -1.2201 -0.6750
 8693TIP3   OH247493   1.914   0.113   5.749  0.1066  0.0637 -0.5503
 8693TIP3    H147494   1.956   0.188   5.791  0.9474 -0.6757 -0.0396
 8693TIP3    H247495   1.885   0.147   5.664  0.9091  0.8497 -0.5296
 8694TIP3   OH247496   2.848   0.164  12.464 -0.2864  0.3276 -0.5270
 8694TIP3    H147497   2.848   0.071  12.484 -1.0630  0.3519 -0.4091
 8694TIP3    H247498   2.879   0.169  12.373 -2.2876 -0.2252 -1.2969
 8695TIP3   OH247499   0.503   2.897   1.101 -0.2497 -0.0662  0.0895
 8695TIP3    H147500   0.451   2.831   1.148 -1.9428  1.0649 -0.1362
 8695TIP3    H247501   0.507   2.971   1.161  2.5446 -0.6541  0.7852
 8696TIP3   OH247502   3.819   0.069   1.019 -0.7068 -0.1756  0.3751
 8696TIP3    H147503   3.903   0.025   1.004 -1.4270 -1.3360 -0.4857
 8696TIP3    H247504   3.840   0.142   1.077  0.7566 -0.9440  0.8830
 8697TIP3   OH247505   6.009   0.839   3.242 -0.5466 -0.2165 -0.8016
 8697TIP3    H147506   5.981   0.842   3.151 -1.6353 -0.9893 -0.5176
 8697TIP3    H247507   5.952   0.773   3.283  0.4582 -0.4813  0.2545
 8698TIP3   OH247508   2.814   4.077  13.555  0.6249  0.2499 -0.7235
 8698TIP3    H147509   2.844   3.993  13.520  2.5031 -0.3967  2.1386
 8698TIP3    H247510   2.788   4.058  13.645 -0.9325  2.4000 -0.6201
 8699TIP3   OH247511   6.360   5.829   4.170 -0.0356 -0.2469 -0.0060
 8699TIP3    H147512   6.326   5.802   4.255 -0.6812 -0.4714 -0.3306
 8699TIP3    H247513   6.425   5.897   4.190  0.0536 -0.5330  0.6788
 8700TIP3   OH247514   0.171   2.967   6.352  0.5565  0.3644 -0.1893
 8700TIP3    H147515   0.212   3.044   6.391  1.7530 -0.3496  0.0249
 8700TIP3    H247516   0.161   2.905   6.425 -1.9398  0.8900 -0.0053
 8701TIP3   OH247517   2.646   6.786   9.989  0.4771 -0.1518  0.0017
 8701TIP3    H147518   2.617   6.876  10.003  0.3894 -0.2341  0.3611
 8701TIP3    H247519   2.654   6.749  10.077  1.2673 -0.2601 -0.1019
 8702TIP3   OH247520   0.812   2.255  13.641 -0.8544  0.3464  0.2089
 8702TIP3    H147521   0.728   2.209  13.649 -0.0128 -2.3368 -3.6096
 8702TIP3    H247522   0.792   2.331  13.586 -1.0955  0.8513  0.9823
 8703TIP3   OH247523   4.231   2.892  14.272 -0.2968 -0.4766  0.0194
 8703TIP3    H147524   4.282   2.938  14.338 -0.1777 -0.2137 -0.2537
 8703TIP3    H247525   4.152   2.945  14.261  0.3165  0.2506 -1.0596
 8704TIP3   OH247526   4.864   6.119  12.400 -0.3964  0.5307  0.0240
 8704TIP3    H147527   4.820   6.203  12.413  0.6369  1.0054  0.6413
 8704TIP3    H247528   4.955   6.136  12.427  0.3028 -0.2601 -1.6462
 8705TIP3   OH247529   1.116   5.950   2.918  0.5584 -0.7233  0.3021
 8705TIP3    H147530   1.078   6.018   2.863 -0.4109 -0.2301  1.5372
 8705TIP3    H247531   1.092   5.974   3.007  0.5333 -2.4723  0.8144
 8706TIP3   OH247532   6.205   4.790   2.567  0.1997  0.5456  0.2310
 8706TIP3    H147533   6.219   4.805   2.661  0.8643  1.3640  0.0208
 8706TIP3    H247534   6.280   4.738   2.540  0.2183  0.6474  0.0834
 8707TIP3   OH247535   2.510   3.253   1.727 -0.2872  0.3501  0.2875
 8707TIP3    H147536   2.451   3.325   1.748 -1.6532 -0.7137  0.2936
 8707TIP3    H247537   2.458   3.174   1.744  1.1186 -0.6377  0.1824
 8708TIP3   OH247538   1.369   4.063   3.598 -0.3317 -0.6548  0.6311
 8708TIP3    H147539   1.417   4.067   3.681 -1.5441  0.3916  1.3248
 8708TIP3    H247540   1.400   4.140   3.550  0.6057 -1.4341 -0.0564
 8709TIP3   OH247541   2.085   1.174  14.100 -0.1240  0.7081 -0.5145
 8709TIP3    H147542   2.000   1.133  14.084 -1.2669  1.7760  2.1431
 8709TIP3    H247543   2.121   1.126  14.175  0.2129  2.1240  0.2686
 8710TIP3   OH247544   0.762   2.710  13.559  0.0749  0.0071  0.1920
 8710TIP3    H147545   0.698   2.745  13.497 -0.4581 -0.1835  0.6258
 8710TIP3    H247546   0.790   2.627  13.520 -2.3625 -1.5711  1.4694
 8711TIP3   OH247547   3.615   0.064   4.016 -0.1464  0.3641 -0.0741
 8711TIP3    H147548   3.539   0.120   4.033  0.0803  0.0013  2.5611
 8711TIP3    H247549   3.613   0.049   3.921 -3.2024  0.5576 -0.1347
 8712TIP3   OH247550   0.179   0.348  12.305  0.3339 -0.4596  0.7833
 8712TIP3    H147551   0.204   0.437  12.279  0.5823 -0.3794  1.2784
 8712TIP3    H247552   0.126   0.316  12.232  2.0079 -0.7006 -0.4030
 8713TIP3   OH247553   2.265   2.009  10.689  0.7733 -0.2330 -0.4960
 8713TIP3    H147554   2.238   1.921  10.663  0.0143 -1.5406  3.8628
 8713TIP3    H247555   2.361   2.008  10.680  0.9758 -2.2372  1.1020
 8714TIP3   OH247556   6.290   2.154  10.383 -0.0577  0.3666 -0.0719
 8714TIP3    H147557   6.335   2.229  10.344 -0.3078  0.3687 -0.3630
 8714TIP3    H247558   6.359   2.090  10.398 -0.3161 -0.8887 -3.4169
 8715TIP3   OH247559   6.495   5.433  14.085 -0.5439  0.1224 -0.3597
 8715TIP3    H147560   6.588   5.408  14.080 -0.6447 -0.6278  0.9605
 8715TIP3    H247561   6.454   5.360  14.130 -1.7966  0.4530 -0.9295
 8716TIP3   OH247562   3.186   2.890  13.442  0.2672 -0.0119 -0.2013
 8716TIP3    H147563   3.146   2.880  13.528 -0.3739  1.6441 -0.2823
 8716TIP3    H247564   3.111   2.896  13.382  0.6630 -2.8751 -1.1725
 8717TIP3   OH247565   4.665   6.298   0.478 -0.4860 -0.0223 -1.1238
 8717TIP3    H147566   4.604   6.319   0.407  1.3191 -0.9081 -3.0775
 8717TIP3    H247567   4.644   6.208   0.502 -0.6848  0.0597 -0.9902
 8718TIP3   OH247568   6.150   5.922  15.324 -0.5434  0.3971  0.6617
 8718TIP3    H147569   6.071   5.943  15.274 -0.9854  0.5495  1.4037
 8718TIP3    H247570   6.126   5.940  15.415  0.0335 -0.5008  1.0060
 8719TIP3   OH247571   4.647   4.604   5.534 -0.1938  0.2581 -0.2646
 8719TIP3    H147572   4.615   4.546   5.465 -1.1496  0.0343  0.3452
 8719TIP3    H247573   4.612   4.566   5.615  3.3845 -1.3084  0.7558
 8720TIP3   OH247574   4.056   3.755   2.069  0.1451  0.0294  0.1803
 8720TIP3    H147575   4.032   3.672   2.028  0.8927  0.1899 -0.6067
 8720TIP3    H247576   4.081   3.730   2.158 -3.3578 -0.0864  1.3081
 8721TIP3   OH247577   0.993   3.429  11.471 -0.4628 -0.2151 -0.2460
 8721TIP3    H147578   1.018   3.363  11.536 -1.2374 -0.0983  0.1816
 8721TIP3    H247579   0.919   3.390  11.424  0.6386 -0.6705 -1.6824
 8722TIP3   OH247580   1.029   0.335   0.951 -0.4253 -0.3888  0.5322
 8722TIP3    H147581   0.981   0.360   0.872 -0.1491 -3.1460 -0.6008
 8722TIP3    H247582   1.121   0.351   0.930 -0.4620  0.4705  0.9673
 8723TIP3   OH247583   5.054   3.827   1.789  0.1909 -0.5404 -0.4674
 8723TIP3    H147584   5.146   3.842   1.810  0.2545 -0.3756 -0.8544
 8723TIP3    H247585   5.056   3.769   1.713 -0.0484 -2.4915  0.9379
 8724TIP3   OH247586   6.633   4.900   2.557 -0.2779  0.0775  0.4242
 8724TIP3    H147587   6.710   4.955   2.544 -0.5085  0.3343  0.1455
 8724TIP3    H247588   6.668   4.818   2.590  0.5261 -1.2506 -3.2925
 8725TIP3   OH247589   3.182   6.547  15.555 -0.2071  0.1436  0.1989
 8725TIP3    H147590   3.168   6.453  15.560  0.0329  0.1440  3.9094
 8725TIP3    H247591   3.267   6.561  15.598 -0.0921  2.0295 -0.5442
 8726TIP3   OH247592   5.537   0.610   0.871  0.0743 -0.2494  0.1011
 8726TIP3    H147593   5.446   0.598   0.896  0.1178  0.7485  0.7912
 8726TIP3    H247594   5.562   0.527   0.830 -0.5604 -1.2535  1.6543
 8727TIP3   OH247595   5.915   5.944  10.675 -0.0341 -0.4719  0.6135
 8727TIP3    H147596   6.010   5.944  10.662  0.3582 -0.5185  3.0083
 8727TIP3    H247597   5.895   5.858  10.711 -1.0429 -0.5273 -0.0290
 8728TIP3   OH247598   0.767   5.481  15.657 -0.3392  0.5253 -0.6424
 8728TIP3    H147599   0.843   5.538  15.644  0.7083 -0.8985 -0.8835
 8728TIP3    H247600   0.742   5.495  15.748  0.4277  0.7447 -0.4600
 8729TIP3   OH247601   4.475   3.810  15.516  0.5112  0.2036 -0.4611
 8729TIP3    H147602   4.480   3.906  15.508  0.9179  0.5741  2.7319
 8729TIP3    H247603   4.565   3.781  15.503  0.6048  0.3902 -0.2393
 8730TIP3   OH247604   4.175   6.569   5.108 -0.4100 -0.2802  0.0700
 8730TIP3    H147605   4.117   6.644   5.091 -1.8839 -1.3028  0.3587
 8730TIP3    H247606   4.130   6.520   5.177  1.3954 -0.5310  1.1317
 8731TIP3   OH247607   2.455   2.531  11.991 -0.1407 -0.3985 -0.3477
 8731TIP3    H147608   2.425   2.541  11.901  1.2730 -0.2945 -0.8250
 8731TIP3    H247609   2.482   2.618  12.018  1.7749 -0.8438 -0.7037
 8732TIP3   OH247610   1.309   0.992   4.305  0.1532 -0.5401 -0.1003
 8732TIP3    H147611   1.323   1.071   4.357 -0.4318 -0.7921  0.4555
 8732TIP3    H247612   1.396   0.968   4.273  0.4610 -0.1691  0.4556
 8733TIP3   OH247613   4.442   4.287  15.179  0.0825  0.5727  0.3579
 8733TIP3    H147614   4.421   4.277  15.086  2.1699  0.4812 -0.1605
 8733TIP3    H247615   4.498   4.365  15.182  1.6920 -0.5671  1.2186
 8734TIP3   OH247616   6.527   3.988  16.984  0.3599 -0.2299  0.3957
 8734TIP3    H147617   6.592   3.982  17.053 -0.7827 -0.0146  1.5304
 8734TIP3    H247618   6.534   3.906  16.936  1.1384 -0.4007  0.7921
 8735TIP3   OH247619   5.119   2.223  13.692 -0.1767  0.0858  0.2511
 8735TIP3    H147620   5.199   2.180  13.721  0.4232  0.2228 -1.1038
 8735TIP3    H247621   5.123   2.310  13.731 -0.7858 -0.6118  1.9854
 8736TIP3   OH247622   2.399   0.258   0.393 -0.0355 -0.4486 -0.0796
 8736TIP3    H147623   2.494   0.264   0.401 -0.0498  0.6269 -0.4904
 8736TIP3    H247624   2.371   0.347   0.372 -1.2321 -0.5399  0.9889
 8737TIP3   OH247625   2.951   6.529   3.462  0.2482  0.0499 -0.2073
 8737TIP3    H147626   3.013   6.574   3.404 -1.3142  0.6970 -1.4517
 8737TIP3    H247627   2.960   6.573   3.546  0.1768  1.3779 -0.8703
 8738TIP3   OH247628   5.773   0.115  12.306  0.8708 -0.1678  0.0397
 8738TIP3    H147629   5.773   0.209  12.325  1.6656 -0.1243 -0.1383
 8738TIP3    H247630   5.724   0.107  12.224  0.6499  0.0726  0.1501
 8739TIP3   OH247631   4.414   0.248  11.472 -0.0291  0.0795  0.5321
 8739TIP3    H147632   4.467   0.323  11.499 -0.1386 -0.4007  2.1386
 8739TIP3    H247633   4.359   0.282  11.401  0.6507  1.2335  0.5390
 8740TIP3   OH247634   0.971   0.592  11.989  0.0875  0.1349 -0.1778
 8740TIP3    H147635   1.028   0.641  11.930 -0.2419  0.4160 -0.2640
 8740TIP3    H247636   0.965   0.647  12.067 -0.1001  0.1250 -0.1856
 8741TIP3   OH247637   2.302   1.630   2.220 -0.3456  1.1426 -0.4127
 8741TIP3    H147638   2.306   1.561   2.286 -0.8815 -1.0589 -2.5534
 8741TIP3    H247639   2.390   1.634   2.183 -0.1607  2.0584  0.0927
 8742TIP3   OH247640   1.610   5.838  13.449  0.2719  0.3089 -0.3532
 8742TIP3    H147641   1.528   5.788  13.445  0.8713 -0.6685 -1.0492
 8742TIP3    H247642   1.583   5.929  13.462 -0.8161 -0.3465  3.0817
 8743TIP3   OH247643   3.955   2.271   2.498  0.3320 -0.2228 -0.2743
 8743TIP3    H147644   4.042   2.272   2.540  0.1213 -1.5950  0.2338
 8743TIP3    H247645   3.950   2.187   2.454 -0.7090 -0.1184 -0.3785
 8744TIP3   OH247646   3.384   0.570   1.667  0.2360  0.2982 -0.3243
 8744TIP3    H147647   3.416   0.540   1.752  1.1679  0.5667 -0.5734
 8744TIP3    H247648   3.316   0.506   1.644 -0.3994  0.5215  0.8476
 8745TIP3   OH247649   6.733   1.027   1.376 -0.5003  0.0253 -0.7621
 8745TIP3    H147650   6.642   0.998   1.370 -1.3179  1.8574  1.3514
 8745TIP3    H247651   6.784   0.946   1.376 -2.3240 -1.2074  0.5634
 8746TIP3   OH247652   0.085   6.212   4.673  0.0846  0.1118 -0.3220
 8746TIP3    H147653   0.079   6.162   4.755  1.2203  1.2976  0.5377
 8746TIP3    H247654   0.178   6.235   4.666  0.0590 -0.2107 -2.1277
 8747TIP3   OH247655   2.960   1.133  13.784  0.5616  0.2471 -0.7328
 8747TIP3    H147656   3.019   1.183  13.727  2.2859 -2.6147 -1.7168
 8747TIP3    H247657   2.898   1.091  13.724  0.0417  0.1038 -0.1115
 8748TIP3   OH247658   1.375   1.234   3.781  0.3336 -0.6147 -0.5760
 8748TIP3    H147659   1.349   1.244   3.690 -0.9987  2.0943  0.0007
 8748TIP3    H247660   1.300   1.192   3.823  0.1757 -0.1360 -0.3804
 8749TIP3   OH247661   2.361   4.614  16.029  0.0841  0.1288  0.3763
 8749TIP3    H147662   2.417   4.546  15.991 -1.7831 -0.6559 -1.1151
 8749TIP3    H247663   2.396   4.627  16.118 -0.5923 -4.1490  1.4804
 8750TIP3   OH247664   2.522   4.819   2.486 -0.8519 -0.1226 -0.1625
 8750TIP3    H147665   2.613   4.825   2.515 -1.3179  1.0281  1.2130
 8750TIP3    H247666   2.525   4.841   2.393  0.1208  1.4218  0.1986
 8751TIP3   OH247667   5.847   1.760  12.904  0.2146  0.0767 -0.8083
 8751TIP3    H147668   5.798   1.713  12.971 -2.1587 -0.6881 -2.9127
 8751TIP3    H247669   5.836   1.853  12.927 -1.2274 -0.1385 -0.5395
 8752TIP3   OH247670   4.913   3.612   0.038 -0.0039 -0.4570  0.0106
 8752TIP3    H147671   4.846   3.552   0.071  0.2473  0.2317  1.8973
 8752TIP3    H247672   4.867   3.695   0.024 -0.0149 -0.6240 -1.0100
 8753TIP3   OH247673   5.727   0.217  13.721  0.0661  0.0203 -0.1187
 8753TIP3    H147674   5.648   0.220  13.666  0.2967 -0.5450 -0.4926
 8753TIP3    H247675   5.755   0.126  13.717  1.3411  0.4258 -0.8587
 8754TIP3   OH247676   6.648   2.697  11.354 -0.0381 -0.2561  0.2554
 8754TIP3    H147677   6.592   2.625  11.385 -0.1015 -0.1110  0.4809
 8754TIP3    H247678   6.618   2.713  11.265 -0.0486 -0.4884  0.2168
 8755TIP3   OH247679   0.771   2.454  13.460  0.1302 -0.1073  0.0409
 8755TIP3    H147680   0.857   2.418  13.441  0.1656 -0.5565  1.0011
 8755TIP3    H247681   0.730   2.464  13.374 -0.5033 -4.0048 -0.2808
 8756TIP3   OH247682   0.580   1.394  12.191  0.9258 -0.3914 -0.3328
 8756TIP3    H147683   0.552   1.479  12.157 -0.9233 -1.1823 -0.8887
 8756TIP3    H247684   0.641   1.360  12.126 -1.7303 -1.3973 -2.4688
 8757TIP3   OH247685   6.554   4.626  10.327 -0.1068 -0.1430  0.4828
 8757TIP3    H147686   6.626   4.589  10.378  0.0292 -0.3597  0.1390
 8757TIP3    H247687   6.501   4.674  10.390 -2.8092 -4.4344  1.9132
 8758TIP3   OH247688   4.337   0.155   3.400  0.0896  0.4685  0.0954
 8758TIP3    H147689   4.280   0.223   3.437 -0.6661  0.8788 -1.7355
 8758TIP3    H247690   4.341   0.088   3.469 -2.2331  0.6498  0.4839
 8759TIP3   OH247691   6.557   2.608  16.617 -0.1124 -0.1236  0.6165
 8759TIP3    H147692   6.489   2.605  16.684 -0.9837  2.2703 -0.0540
 8759TIP3    H247693   6.588   2.699  16.618  1.7098 -0.6690 -0.4602
 8760TIP3   OH247694   0.956   4.676  11.623 -0.6898  0.3940  0.3475
 8760TIP3    H147695   0.987   4.631  11.702  0.8319  0.4193 -0.2055
 8760TIP3    H247696   1.028   4.667  11.560 -1.0026  2.2079 -0.3222
 8761TIP3   OH247697   4.690   2.175   4.177  0.4693 -0.1931  0.7342
 8761TIP3    H147698   4.630   2.124   4.232 -0.0280 -0.5445 -0.1224
 8761TIP3    H247699   4.644   2.257   4.160 -0.0679 -0.7177 -0.4546
 8762TIP3   OH247700   0.167   1.001  14.838  0.2564 -0.2861  0.2663
 8762TIP3    H147701   0.216   1.083  14.825  0.3311 -0.1528  1.3428
 8762TIP3    H247702   0.165   0.989  14.933  0.6536 -1.7885  0.1035
 8763TIP3   OH247703   0.404   0.381  12.829  0.7167  0.0218 -0.7777
 8763TIP3    H147704   0.359   0.385  12.745  0.9020  0.1714 -0.8724
 8763TIP3    H247705   0.383   0.294  12.864 -0.3717  0.4201 -0.4044
 8764TIP3   OH247706   5.927   6.059   5.909 -0.5910  0.4699 -0.6825
 8764TIP3    H147707   5.990   6.112   5.860  1.3281 -0.5943  0.5009
 8764TIP3    H247708   5.870   6.124   5.951 -1.2817  1.4248 -2.9536
 8765TIP3   OH247709   1.660   0.348  16.894  0.0134  0.0201 -0.1620
 8765TIP3    H147710   1.724   0.320  16.960 -1.8006 -1.9733  0.8979
 8765TIP3    H247711   1.700   0.327  16.810 -0.1057 -3.4344  0.5312
 8766TIP3   OH247712   3.517   6.431   1.741 -0.2611  0.5761  0.1840
 8766TIP3    H147713   3.505   6.469   1.828  0.0126 -1.0384  0.9480
 8766TIP3    H247714   3.606   6.454   1.716 -0.5187  1.4995  0.0844
 8767TIP3   OH247715   5.584   4.588  13.972  0.0644  0.1829 -0.0003
 8767TIP3    H147716   5.593   4.553  13.884  0.9777  1.2454 -0.3500
 8767TIP3    H247717   5.568   4.681  13.959  2.4298  0.7877  0.9626
 8768TIP3   OH247718   6.737   5.753   2.321 -0.6182  0.4182 -0.1794
 8768TIP3    H147719   6.817   5.715   2.285 -1.0741  0.6104 -1.4692
 8768TIP3    H247720   6.677   5.679   2.331 -1.3175  0.6492 -2.1722
 8769TIP3   OH247721   6.186   0.895  15.982 -0.0438  0.1406  0.1181
 8769TIP3    H147722   6.263   0.890  15.926  0.9786  0.1026  1.4972
 8769TIP3    H247723   6.219   0.882  16.071 -1.8747 -1.6407  0.6059
 8770TIP3   OH247724   2.991   0.553   0.520 -0.1922 -0.3564 -0.3845
 8770TIP3    H147725   3.072   0.581   0.564 -0.9461 -0.0934  0.8794
 8770TIP3    H247726   2.933   0.629   0.525 -0.4847 -0.4924 -1.4262
 8771TIP3   OH247727   3.462   0.309   5.327  0.1669  0.0162 -0.6150
 8771TIP3    H147728   3.464   0.287   5.233 -0.3439 -0.9353 -0.4231
 8771TIP3    H247729   3.370   0.332   5.344  0.2623  0.2059 -0.3491
 8772TIP3   OH247730   1.998   3.362  15.627 -0.0989 -0.3404  0.5652
 8772TIP3    H147731   1.962   3.353  15.539 -0.1503  2.7005  0.1717
 8772TIP3    H247732   1.923   3.348  15.685 -0.1783 -1.8205  0.1395
 8773TIP3   OH247733   3.055   1.575  16.797 -0.4703  0.2966 -0.5850
 8773TIP3    H147734   3.050   1.492  16.751 -0.7327 -0.1108  0.1636
 8773TIP3    H247735   3.040   1.553  16.889 -0.8408  1.2072 -0.4111
 8774TIP3   OH247736   5.461   0.606   5.920  0.5158  0.0847  0.8662
 8774TIP3    H147737   5.514   0.557   5.857 -0.3281 -0.1519  0.3242
 8774TIP3    H247738   5.521   0.672   5.955  0.2235  2.5002 -2.6766
 8775TIP3   OH247739   2.654   4.995  13.881  0.0944  0.0497 -0.3157
 8775TIP3    H147740   2.598   5.030  13.811  0.7136  1.6085 -0.0755
 8775TIP3    H247741   2.594   4.976  13.952 -0.4092 -0.5445 -0.8831
 8776TIP3   OH247742   5.002   5.941  16.706  0.3594  0.5529 -0.2593
 8776TIP3    H147743   5.032   6.001  16.775  0.6739 -0.2118  0.2789
 8776TIP3    H247744   4.927   5.896  16.744  0.3221  0.3707 -0.5447
 8777TIP3   OH247745   6.676   6.759   3.604  0.0994  0.6869  0.0295
 8777TIP3    H147746   6.647   6.775   3.514  1.3662  2.2981 -0.1578
 8777TIP3    H247747   6.763   6.719   3.595  0.4819  1.3796  0.5129
 8778TIP3   OH247748   5.244   3.278  12.334 -0.5189 -0.1097  0.5144
 8778TIP3    H147749   5.277   3.216  12.398 -0.6820 -0.6248  0.1051
 8778TIP3    H247750   5.247   3.231  12.250  1.4444  1.1539 -0.1803
 8779TIP3   OH247751   0.689   1.755  11.569 -0.2322 -0.2940 -0.6545
 8779TIP3    H147752   0.667   1.663  11.588  1.1823 -0.6911 -0.8172
 8779TIP3    H247753   0.745   1.781  11.641 -2.1162  1.0819  0.3997
 8780TIP3   OH247754   2.350   0.147   2.996 -0.0792  0.8672  0.2187
 8780TIP3    H147755   2.281   0.103   2.946  0.1525  0.0890  0.5640
 8780TIP3    H247756   2.379   0.081   3.059  0.6163  1.3656  0.4284
 8781TIP3   OH247757   0.478   0.984  16.754  0.5841 -0.4017  0.3162
 8781TIP3    H147758   0.442   0.907  16.708  0.6239 -0.6189  0.6471
 8781TIP3    H247759   0.553   0.950  16.803  1.6951  0.1711 -0.9112
 8782TIP3   OH247760   2.489   1.255   4.798  0.0670  0.0050  0.1149
 8782TIP3    H147761   2.536   1.304   4.865 -1.2688  0.4202  0.8009
 8782TIP3    H247762   2.554   1.235   4.731  1.0294  1.1632  0.6795
 8783TIP3   OH247763   1.638   2.202  12.392 -0.4071  0.4550 -0.2511
 8783TIP3    H147764   1.557   2.207  12.342 -0.4833 -1.5437 -0.3870
 8783TIP3    H247765   1.637   2.115  12.431  1.9872  0.1082 -0.8173
 8784TIP3   OH247766   6.004   6.750  15.598  0.3299 -0.1832  0.2237
 8784TIP3    H147767   5.957   6.825  15.564  0.1198  0.2027  1.3205
 8784TIP3    H247768   5.975   6.676  15.544  0.1698  0.4289 -0.5426
 8785TIP3   OH247769   2.923   6.099  11.496 -0.1034 -0.4087 -0.2994
 8785TIP3    H147770   2.832   6.071  11.488  0.0974 -1.2384  0.1718
 8785TIP3    H247771   2.964   6.069  11.415 -0.1779 -0.3510 -0.3575
 8786TIP3   OH247772   6.212   0.019  12.319 -0.3685 -0.4983  0.1486
 8786TIP3    H147773   6.269  -0.019  12.387  2.3830  0.1412 -1.6262
 8786TIP3    H247774   6.215   0.113  12.336 -0.0434 -0.3776 -0.5267
 8787TIP3   OH247775   5.647   4.636  15.759 -0.2677 -0.1435 -0.3271
 8787TIP3    H147776   5.643   4.556  15.707 -2.1646 -0.6342  0.4726
 8787TIP3    H247777   5.623   4.706  15.699  0.7099 -0.2490 -0.8589
 8788TIP3   OH247778   1.991   3.485  14.068  0.3866 -0.0384 -0.0906
 8788TIP3    H147779   2.018   3.411  14.121  2.0728 -0.3197 -1.2686
 8788TIP3    H247780   1.933   3.447  14.001 -0.8545  0.1520  0.8343
 8789TIP3   OH247781   1.916   5.660   4.985 -0.2324 -0.0967  0.1183
 8789TIP3    H147782   1.907   5.693   5.075 -0.4006  2.6625 -0.8010
 8789TIP3    H247783   1.953   5.573   4.995 -0.9024 -0.1652  2.8861
 8790TIP3   OH247784   3.143   3.906  15.569 -0.2182  0.2241 -0.1850
 8790TIP3    H147785   3.200   3.855  15.626 -0.6465  0.6381  0.6333
 8790TIP3    H247786   3.094   3.840  15.519 -0.8383 -0.1898  0.9309
 8791TIP3   OH247787   4.087   3.274   1.200  0.5246 -0.1477  0.2372
 8791TIP3    H147788   4.023   3.222   1.249 -0.0625 -0.1198 -0.4762
 8791TIP3    H247789   4.151   3.210   1.168 -0.1448 -0.4345 -0.5604
 8792TIP3   OH247790   2.718   0.340   1.058 -0.2764  0.4787 -0.0320
 8792TIP3    H147791   2.744   0.287   1.134  1.4507 -0.7028 -1.3657
 8792TIP3    H247792   2.800   0.364   1.016 -1.1384  2.3766 -0.7467
 8793TIP3   OH247793   1.809   0.609  11.984  0.0579 -0.2791  0.2752
 8793TIP3    H147794   1.778   0.699  11.969 -1.3344 -0.8887 -0.7436
 8793TIP3    H247795   1.745   0.554  11.940  1.7465 -1.7219 -0.5182
 8794TIP3   OH247796   4.262   1.904   4.494  0.7399 -0.3294  0.2802
 8794TIP3    H147797   4.169   1.926   4.490  0.8316  0.5203  2.0708
 8794TIP3    H247798   4.266   1.826   4.548  0.9519 -1.3866 -1.2086
 8795TIP3   OH247799   2.374   0.557   0.734  0.1499  0.0042  0.2522
 8795TIP3    H147800   2.372   0.529   0.825 -0.2459 -1.0930 -0.0757
 8795TIP3    H247801   2.346   0.649   0.736  1.5478  0.4418  1.3708
 8796TIP3   OH247802   4.674   4.591   2.602  0.3385  0.4173 -0.5053
 8796TIP3    H147803   4.666   4.621   2.511  1.6549 -1.3113 -1.2628
 8796TIP3    H247804   4.769   4.586   2.616  0.1680  1.6632  1.3565
 8797TIP3   OH247805   2.292   1.986   4.056 -0.1050 -0.1058 -0.1843
 8797TIP3    H147806   2.260   1.907   4.013  1.0913 -1.1699  0.8083
 8797TIP3    H247807   2.387   1.981   4.047  0.3208 -0.8304  3.1771
 8798TIP3   OH247808   3.203   0.482   3.526  0.3889 -0.8086  0.2639
 8798TIP3    H147809   3.183   0.564   3.571  1.3434 -1.5147  2.1190
 8798TIP3    H247810   3.251   0.509   3.448 -2.1919  0.5196 -0.9676
 8799TIP3   OH247811   0.169   2.925   5.616  0.0140 -0.2189  0.0458
 8799TIP3    H147812   0.166   2.846   5.561  0.1736  0.9389 -1.7093
 8799TIP3    H247813   0.261   2.948   5.620 -0.1641  0.6346 -0.5973
 8800TIP3   OH247814   3.596   0.550   3.422  0.9348 -0.6100  0.8872
 8800TIP3    H147815   3.662   0.611   3.389  0.6787 -0.2911  0.9610
 8800TIP3    H247816   3.632   0.463   3.402  1.1716 -0.4334  0.5314
 8801TIP3   OH247817   5.166   6.343  14.998  0.5157 -0.6608 -0.1416
 8801TIP3    H147818   5.202   6.428  15.026 -0.9293  0.6164 -1.8801
 8801TIP3    H247819   5.243   6.287  14.987  1.8372  1.3234 -1.7484
 8802TIP3   OH247820   0.545   0.941   2.779 -0.1919  0.0688  0.1896
 8802TIP3    H147821   0.463   0.989   2.786 -0.8282 -1.0239  0.4534
 8802TIP3    H247822   0.550   0.889   2.859  0.9223  0.3669  0.3304
 8803TIP3   OH247823   6.250   1.765  17.020 -0.2047 -0.1174  0.2959
 8803TIP3    H147824   6.210   1.687  17.058 -0.4747 -1.3673 -2.2927
 8803TIP3    H247825   6.276   1.738  16.932  1.2407  2.2738 -0.1132
 8804TIP3   OH247826   4.508   0.251  14.080  0.3235  0.3254  0.3686
 8804TIP3    H147827   4.593   0.225  14.114  0.6539  0.1302 -0.5815
 8804TIP3    H247828   4.520   0.341  14.051  0.7651 -0.3067 -1.5287
 8805TIP3   OH247829   1.145   5.091   1.590 -1.0593 -0.4043  0.6626
 8805TIP3    H147830   1.076   5.024   1.584 -0.9754 -0.4014 -0.7801
 8805TIP3    H247831   1.142   5.135   1.505 -0.0633  0.3895  1.0282
 8806TIP3   OH247832   3.618   6.649   1.211  0.7454 -0.4180  0.0624
 8806TIP3    H147833   3.633   6.743   1.201 -0.0391 -0.1206  1.3920
 8806TIP3    H247834   3.705   6.612   1.220  1.0621  0.1918 -0.4207
 8807TIP3   OH247835   3.604   1.890   5.333 -0.6054  0.3478  0.1245
 8807TIP3    H147836   3.513   1.870   5.358 -0.4217 -1.3690 -0.4115
 8807TIP3    H247837   3.600   1.902   5.238 -0.3092  0.5059  0.1341
 8808TIP3   OH247838   6.001   5.433  12.688  0.4910  0.4568 -0.0923
 8808TIP3    H147839   5.966   5.508  12.736 -0.7631  0.0068 -0.2585
 8808TIP3    H247840   6.037   5.471  12.608 -1.9746  0.7474 -1.1636
 8809TIP3   OH247841   6.346   2.057  10.701 -0.6570  1.0567 -0.3056
 8809TIP3    H147842   6.265   2.094  10.665 -2.2060 -2.4508 -0.9215
 8809TIP3    H247843   6.388   2.015  10.626 -0.9378 -1.4178  0.8193
 8810TIP3   OH247844   4.439   5.476  16.468  0.2121  0.1772  0.4945
 8810TIP3    H147845   4.422   5.394  16.421  1.3867  0.6451 -0.8203
 8810TIP3    H247846   4.394   5.465  16.552 -1.7242 -0.8245 -0.5868
 8811TIP3   OH247847   5.959   4.832   4.919 -0.2622  0.0573  0.0165
 8811TIP3    H147848   5.907   4.781   4.982 -1.7494  3.6211  2.0390
 8811TIP3    H247849   6.046   4.794   4.923 -0.6455 -0.8142  3.2766
 8812TIP3   OH247850   0.827   4.306  15.170 -0.6142 -0.3435 -0.1437
 8812TIP3    H147851   0.883   4.237  15.206  2.5961  2.4715  0.7952
 8812TIP3    H247852   0.870   4.329  15.087 -1.6795  0.4839 -0.4757
 8813TIP3   OH247853   4.874   5.719   4.036 -0.6422 -0.2911 -0.6361
 8813TIP3    H147854   4.897   5.812   4.041 -2.0855  0.1292 -1.1417
 8813TIP3    H247855   4.839   5.698   4.122  1.4822 -0.9206  0.1218
 8814TIP3   OH247856   2.611   1.743   1.383  0.1603  0.6630  0.2954
 8814TIP3    H147857   2.538   1.771   1.439  1.4096  1.8566  1.4096
 8814TIP3    H247858   2.622   1.650   1.404 -0.4379  0.6968  0.8235
 8815TIP3   OH247859   1.892   1.801  14.176  0.1689 -0.3181 -0.2490
 8815TIP3    H147860   1.921   1.871  14.234 -0.8981  0.1595 -0.2808
 8815TIP3    H247861   1.965   1.790  14.114  0.6276  0.2893  0.1745
 8816TIP3   OH247862   5.880   3.688   4.127  0.5928  0.5465  0.7655
 8816TIP3    H147863   5.818   3.617   4.112  0.0167  1.2303 -0.1977
 8816TIP3    H247864   5.951   3.647   4.175 -0.4917 -0.3112  1.7010
 8817TIP3   OH247865   0.185   5.982   2.819 -0.1574  0.1856 -0.3054
 8817TIP3    H147866   0.169   5.907   2.876 -2.4581  0.8693  0.0636
 8817TIP3    H247867   0.167   6.058   2.875  1.7957  1.0471 -0.7680
 8818TIP3   OH247868   0.371   0.261   4.595  0.0600 -0.0735  0.1731
 8818TIP3    H147869   0.432   0.258   4.668  1.3357 -1.8793 -0.8871
 8818TIP3    H247870   0.334   0.173   4.590 -1.1138  0.4263 -0.4753
 8819TIP3   OH247871   6.558   6.562   5.254  0.7547 -0.4451  0.4324
 8819TIP3    H147872   6.481   6.619   5.256  0.9640 -0.1727  2.1852
 8819TIP3    H247873   6.624   6.614   5.207  0.3843  0.0096  0.4049
 8820TIP3   OH247874   2.978   2.745   3.022 -0.0297 -0.5123 -0.1876
 8820TIP3    H147875   2.936   2.816   2.973  0.2757  0.2876  0.6809
 8820TIP3    H247876   2.905   2.696   3.060 -0.2330  0.4375  0.7087
 8821TIP3   OH247877   5.737   2.609  13.905  0.1384 -0.1394 -0.1616
 8821TIP3    H147878   5.808   2.546  13.889 -0.8244 -1.3178  0.0931
 8821TIP3    H247879   5.697   2.579  13.987  0.5509  1.6655  0.7496
 8822TIP3   OH247880   0.975   2.090   2.971 -0.5642  0.0851 -0.2800
 8822TIP3    H147881   0.900   2.049   3.015 -1.2800  1.7146  0.1064
 8822TIP3    H247882   1.023   2.133   3.041  0.1353 -0.0442 -0.6774
 8823TIP3   OH247883   0.664   0.530   4.233  0.1675 -0.2648  0.2195
 8823TIP3    H147884   0.684   0.454   4.178  1.1770 -0.9654  1.4997
 8823TIP3    H247885   0.669   0.496   4.322 -0.1617  1.1390  0.7890
 8824TIP3   OH247886   3.302   3.639   1.348 -0.6506 -0.0955 -0.2104
 8824TIP3    H147887   3.234   3.587   1.306 -1.2829  1.4001 -1.1231
 8824TIP3    H247888   3.342   3.689   1.277 -1.5659  2.3108  0.8262
 8825TIP3   OH247889   1.512   1.674   5.511 -0.5486  0.1212 -0.4464
 8825TIP3    H147890   1.502   1.728   5.589 -0.3277  0.5408 -0.7058
 8825TIP3    H247891   1.423   1.659   5.480 -0.8789 -2.3154  1.3966
 8826TIP3   OH247892   6.191   2.743  15.383 -0.8313 -0.2424 -0.6233
 8826TIP3    H147893   6.217   2.651  15.373  1.1615  0.4105 -2.1099
 8826TIP3    H247894   6.117   2.754  15.324 -0.0343 -0.5364 -1.7072
 8827TIP3   OH247895   5.891   1.015   1.942 -0.1536  0.4618  0.0859
 8827TIP3    H147896   5.807   0.982   1.975  0.1037  0.3623  0.6530
 8827TIP3    H247897   5.893   0.988   1.850 -0.2334 -0.5507  0.3709
 8828TIP3   OH247898   0.169   5.939   2.334  0.0241  0.7608 -0.1963
 8828TIP3    H147899   0.147   5.902   2.420 -0.4599 -0.4375 -0.8146
 8828TIP3    H247900   0.191   6.031   2.353  0.7203  0.3264  1.3145
 8829TIP3   OH247901   0.034   0.037   3.210  0.4528 -0.1995 -0.3540
 8829TIP3    H147902   0.129   0.044   3.220  0.6683 -2.5296 -0.2880
 8829TIP3    H247903   0.021  -0.032   3.145 -1.2175  0.0755 -0.3710
 8830TIP3   OH247904   1.701   4.294   6.348 -0.4790 -0.0935 -0.4053
 8830TIP3    H147905   1.642   4.246   6.289  0.5627  1.0312 -2.4593
 8830TIP3    H247906   1.718   4.376   6.303  1.7692  0.0920  0.6488
 8831TIP3   OH247907   5.132   6.002  15.245 -0.2282 -0.4495 -0.1812
 8831TIP3    H147908   5.118   6.029  15.336 -1.9318 -0.0563 -0.5185
 8831TIP3    H247909   5.167   6.080  15.202  0.2863 -0.5419  0.0722
 8832TIP3   OH247910   4.179   5.506   4.633 -0.5086  0.0705 -0.5569
 8832TIP3    H147911   4.118   5.580   4.638  0.9377  1.2349  0.6048
 8832TIP3    H247912   4.234   5.514   4.711  0.2398 -1.7445 -0.8552
 8833TIP3   OH247913   6.053   2.494   1.666 -0.2450  0.5315 -0.1145
 8833TIP3    H147914   6.148   2.492   1.658 -0.2557  0.6721 -0.2771
 8833TIP3    H247915   6.032   2.422   1.725 -0.1156 -0.0514 -0.7766
 8834TIP3   OH247916   2.055   1.081   5.013  0.4540  0.7286 -0.1608
 8834TIP3    H147917   2.047   1.001   5.064  1.5722  0.1339 -0.8945
 8834TIP3    H247918   2.134   1.123   5.047  0.7855  0.6990 -0.8888
 8835TIP3   OH247919   0.489   0.879  11.319 -0.2651  0.1065 -0.0519
 8835TIP3    H147920   0.506   0.890  11.413 -2.1612  2.0260  0.1293
 8835TIP3    H247921   0.550   0.810  11.292  0.3857 -0.4502  2.5570
 8836TIP3   OH247922   5.830   2.493   2.995 -0.8191 -0.2262 -0.0504
 8836TIP3    H147923   5.810   2.575   2.951 -0.1975  0.0418  0.1608
 8836TIP3    H247924   5.762   2.486   3.063  1.1179  1.9216  2.3003
 8837TIP3   OH247925   3.606   1.486  13.351 -0.6324 -0.2993  0.5307
 8837TIP3    H147926   3.554   1.558  13.387 -3.1978 -1.9622  0.4420
 8837TIP3    H247927   3.682   1.480  13.409 -1.6655  0.8202  2.0955
 8838TIP3   OH247928   6.006   6.820  12.791 -0.3649 -1.1581  0.8057
 8838TIP3    H147929   6.062   6.853  12.861 -2.9140  2.5607  1.4149
 8838TIP3    H247930   5.917   6.832  12.825 -1.6427 -1.2016 -2.2554
 8839TIP3   OH247931   1.526   3.623  15.914  0.4267 -0.2153  0.5803
 8839TIP3    H147932   1.459   3.670  15.963  1.1012  1.3482  0.0567
 8839TIP3    H247933   1.560   3.558  15.976 -0.2657  0.2348  1.4518
 8840TIP3   OH247934   6.796   3.766   6.247  0.2147  0.6401  0.0859
 8840TIP3    H147935   6.759   3.714   6.176  1.0750 -0.6499  0.5481
 8840TIP3    H247936   6.767   3.856   6.229 -0.8565  0.0974 -1.0242
 8841TIP3   OH247937   2.382   4.160  12.539 -0.5401  0.5161  0.1776
 8841TIP3    H147938   2.476   4.148  12.555 -0.4396 -0.5962 -1.1020
 8841TIP3    H247939   2.360   4.092  12.475 -1.9112  1.7237 -0.6751
 8842TIP3   OH247940   2.806   1.615   1.715 -0.2078 -0.1010 -0.0706
 8842TIP3    H147941   2.723   1.579   1.684  0.0770 -0.4475 -0.4470
 8842TIP3    H247942   2.827   1.684   1.652  0.2158 -0.5950 -0.4809
 8843TIP3   OH247943   0.705   4.613   4.649 -1.0539  0.7106 -0.3761
 8843TIP3    H147944   0.653   4.668   4.591  0.2159  1.9391 -0.4220
 8843TIP3    H247945   0.759   4.675   4.699 -0.3152 -0.4425  0.3230
 8844TIP3   OH247946   6.537   2.084   5.786  0.0159 -0.1991 -0.1106
 8844TIP3    H147947   6.469   2.143   5.821 -1.3592 -2.4347  1.2672
 8844TIP3    H247948   6.607   2.142   5.758 -1.2278  2.0810  1.1909
 8845TIP3   OH247949   2.799   5.887   1.229  0.3624 -0.3247  0.0056
 8845TIP3    H147950   2.865   5.899   1.297  1.5348  0.0647 -1.1478
 8845TIP3    H247951   2.753   5.807   1.254  1.2443 -0.5842  0.8705
 8846TIP3   OH247952   4.385   4.873  14.114 -0.3351  0.3439  0.2542
 8846TIP3    H147953   4.320   4.806  14.090 -2.1602  1.5756  1.4871
 8846TIP3    H247954   4.355   4.952  14.069  2.0075  0.3405 -1.4863
 8847TIP3   OH247955   6.554   3.540   1.000  0.7725  0.4070  0.4684
 8847TIP3    H147956   6.557   3.489   0.919 -0.0610 -0.5475  1.0109
 8847TIP3    H247957   6.606   3.489   1.063  1.0145  0.8919  0.6648
 8848TIP3   OH247958   2.145   4.709  14.094  0.2326  0.0350 -0.0940
 8848TIP3    H147959   2.169   4.773  14.027 -0.2587 -0.1478 -0.4560
 8848TIP3    H247960   2.094   4.643  14.046  0.9122 -0.7403  0.2288
 8849TIP3   OH247961   3.203   4.593   0.736 -0.1014  0.1533 -0.2031
 8849TIP3    H147962   3.283   4.629   0.700 -0.1905 -0.3337 -0.9111
 8849TIP3    H247963   3.207   4.499   0.715 -0.5598  0.0137  0.3009
 8850TIP3   OH247964   6.271   4.496  14.897 -0.1749  0.2768  0.5708
 8850TIP3    H147965   6.206   4.567  14.895 -0.0472  0.5212 -3.5946
 8850TIP3    H247966   6.347   4.532  14.851  0.3682 -2.1065 -0.5455
 8851TIP3   OH247967   1.500   3.288   6.046  0.0214  0.6864 -0.4374
 8851TIP3    H147968   1.549   3.345   6.106  0.1080  0.0221  0.1549
 8851TIP3    H247969   1.461   3.222   6.104  0.5286 -0.2769 -1.1561
 8852TIP3   OH247970   5.393   1.526   1.929  0.2784 -0.0633 -0.0073
 8852TIP3    H147971   5.468   1.578   1.957 -0.9180  2.0156 -0.4473
 8852TIP3    H247972   5.317   1.579   1.955 -1.0027 -1.4154 -0.8675
 8853TIP3   OH247973   1.572   3.410  13.338 -0.0037  0.3012  0.0429
 8853TIP3    H147974   1.654   3.409  13.288 -0.4148  1.9621 -0.7074
 8853TIP3    H247975   1.573   3.492  13.386 -1.5123  0.6760 -0.4937
 8854TIP3   OH247976   4.728   3.031   4.552 -0.5473  0.3376  0.0285
 8854TIP3    H147977   4.732   3.044   4.457  0.7284 -1.2373 -0.1774
 8854TIP3    H247978   4.817   3.047   4.583 -0.7431 -0.0566  0.8326
 8855TIP3   OH247979   4.782   0.815   5.795 -0.5182 -0.0578  0.5334
 8855TIP3    H147980   4.702   0.764   5.800  0.3481 -1.4383  1.0382
 8855TIP3    H247981   4.773   0.881   5.864 -0.2322 -1.7460  2.2633
 8856TIP3   OH247982   4.019   0.951   3.652 -0.2181  0.4922  0.1055
 8856TIP3    H147983   4.090   0.889   3.665 -0.7188 -0.0326  0.4155
 8856TIP3    H247984   3.985   0.968   3.740  0.3835  1.7954  0.1130
 8857TIP3   OH247985   2.192   5.827  10.729  0.1713 -0.1128  0.1987
 8857TIP3    H147986   2.191   5.734  10.753  1.6310 -0.5306 -1.1790
 8857TIP3    H247987   2.233   5.871  10.803  0.2182 -0.6779  0.5141
 8858TIP3   OH247988   0.626   4.423  12.012  0.3709  0.1794  0.3323
 8858TIP3    H147989   0.656   4.428  12.103  2.1310 -0.3232 -0.1809
 8858TIP3    H247990   0.645   4.333  11.985 -2.8932 -0.6116  0.3206
 8859TIP3   OH247991   2.690   2.345   3.678 -0.5976 -0.1971  0.2888
 8859TIP3    H147992   2.761   2.349   3.614 -1.6286 -3.3066 -1.2764
 8859TIP3    H247993   2.733   2.334   3.762  0.7764  2.8462  0.1129
 8860TIP3   OH247994   0.543   4.238  11.782 -0.2782  0.3778  0.1363
 8860TIP3    H147995   0.600   4.179  11.832 -0.6083 -0.1494 -0.0960
 8860TIP3    H247996   0.454   4.215  11.810 -0.3495  2.1624  1.5575
 8861TIP3   OH247997   1.742   4.602   4.385 -0.1650 -0.2102 -0.0889
 8861TIP3    H147998   1.771   4.567   4.301 -1.7450  1.0436 -1.2351
 8861TIP3    H247999   1.776   4.692   4.387 -1.1573  0.1804  0.0087
 8862TIP3   OH248000   4.288   2.152  13.538 -0.1683 -0.0265 -0.7510
 8862TIP3    H148001   4.311   2.066  13.575  1.3694  0.6911  0.0493
 8862TIP3    H248002   4.286   2.211  13.614 -0.3139  0.8121 -1.3962
 8863TIP3   OH248003   1.179   6.314  13.768  0.0277 -0.1339  0.2103
 8863TIP3    H148004   1.189   6.252  13.696  0.7227  2.2048 -1.8732
 8863TIP3    H248005   1.266   6.353  13.778 -0.8798  2.2224 -0.3238
 8864TIP3   OH248006   5.850   3.202   4.051  0.0507  0.0315 -0.4534
 8864TIP3    H148007   5.804   3.161   3.977 -0.3344  0.9376 -0.7430
 8864TIP3    H248008   5.817   3.157   4.128  0.7230 -1.1711 -0.8480
 8865TIP3   OH248009   1.926   6.391   6.472  0.4882 -0.7018 -0.0245
 8865TIP3    H148010   2.022   6.393   6.474  0.7515  0.0034 -4.1613
 8865TIP3    H248011   1.904   6.298   6.467  0.9407 -0.8632  0.7925
 8866TIP3   OH248012   0.676   2.014  12.081  0.0033  0.1898  0.1728
 8866TIP3    H148013   0.620   2.024  12.004  2.3989  0.4769 -1.6329
 8866TIP3    H248014   0.627   2.057  12.152 -1.2102  2.1207 -1.7166
 8867TIP3   OH248015   2.680   3.093   0.450  0.1793 -0.3037  0.3360
 8867TIP3    H148016   2.636   3.078   0.366  0.6705 -0.9301  0.1800
 8867TIP3    H248017   2.610   3.084   0.515  0.2716 -2.6546  0.2002
 8868TIP3   OH248018   6.432   0.153  15.709 -0.5293  0.0171 -0.4968
 8868TIP3    H148019   6.383   0.071  15.696 -1.2947 -0.0538  2.2581
 8868TIP3    H248020   6.444   0.187  15.621 -1.3026 -2.4256 -1.6394
 8869TIP3   OH248021   0.812   3.990   1.873 -0.1803  0.0174  0.4642
 8869TIP3    H148022   0.864   3.976   1.953  1.2417  1.3506 -0.1799
 8869TIP3    H248023   0.767   4.073   1.888 -1.0678 -0.4445  0.4413
 8870TIP3   OH248024   1.496   4.910   2.063 -0.3200 -0.0671 -0.1470
 8870TIP3    H148025   1.512   4.861   2.144  0.5615  0.6822  0.1480
 8870TIP3    H248026   1.406   4.889   2.040  0.0549 -1.9041 -0.0964
 8871TIP3   OH248027   5.433   3.152   5.390  0.2023 -0.2710 -0.3061
 8871TIP3    H148028   5.448   3.244   5.366 -0.7195 -0.1069 -0.3036
 8871TIP3    H248029   5.338   3.145   5.397  0.3225 -0.8681  1.1139
 8872TIP3   OH248030   0.415   1.737   3.867 -0.5055 -0.2506  0.3786
 8872TIP3    H148031   0.322   1.728   3.846 -0.3439  0.2155 -0.6134
 8872TIP3    H248032   0.454   1.773   3.787  0.3191  0.7073  1.1886
 8873TIP3   OH248033   5.886   6.761   1.033  0.4752  0.7153  0.2071
 8873TIP3    H148034   5.972   6.755   1.075  1.2161  1.2807 -1.1698
 8873TIP3    H248035   5.826   6.781   1.105  1.4793  0.2710  1.1999
 8874TIP3   OH248036   0.125   5.424   0.120  0.0644 -0.3694 -0.4830
 8874TIP3    H148037   0.073   5.388   0.192  1.9030  0.0977  1.1497
 8874TIP3    H248038   0.082   5.507   0.099  0.2148  0.1034  0.9673
 8875TIP3   OH248039   3.452   6.769   5.928  0.1305 -0.3006 -0.9362
 8875TIP3    H148040   3.464   6.792   6.020 -3.7084  0.1995 -0.3777
 8875TIP3    H248041   3.465   6.674   5.926 -0.2649 -0.4056  0.2513
 8876TIP3   OH248042   4.077   4.310  13.680 -0.1540  0.1816  0.0004
 8876TIP3    H148043   4.166   4.337  13.703  1.2036 -2.0161 -2.1475
 8876TIP3    H248044   4.060   4.355  13.597 -0.4136 -0.6212 -0.3826
 8877TIP3   OH248045   5.485   4.431  11.778  0.4666 -0.1460 -0.1151
 8877TIP3    H148046   5.546   4.372  11.733 -0.9487 -1.8710  0.1032
 8877TIP3    H248047   5.400   4.387  11.771 -1.1481  2.9304 -1.8414
 8878TIP3   OH248048   4.411   2.580  16.887 -0.0770 -0.1079 -0.4972
 8878TIP3    H148049   4.327   2.592  16.844  0.1474  0.4427 -0.8000
 8878TIP3    H248050   4.391   2.531  16.967 -0.8466  1.0080  0.0180
 8879TIP3   OH248051   4.561   3.155  13.462  0.2863 -0.0434  0.1323
 8879TIP3    H148052   4.627   3.197  13.518 -0.7796 -0.4046  1.7211
 8879TIP3    H248053   4.498   3.117  13.523 -2.7053  2.2558 -1.2819
 8880TIP3   OH248054   1.405   3.526  16.746  0.0216 -0.3654 -0.2820
 8880TIP3    H148055   1.432   3.488  16.829  0.7117  1.0018  0.1436
 8880TIP3    H248056   1.320   3.568  16.764  0.9393  1.3673  0.1981
 8881TIP3   OH248057   2.043   5.808   4.421  0.0526 -0.3700  0.5111
 8881TIP3    H148058   2.031   5.795   4.326  2.4022  0.7446  0.0094
 8881TIP3    H248059   2.034   5.720   4.458  0.1204 -0.9833 -0.8663
 8882TIP3   OH248060   4.105   3.541  16.368 -0.0872  0.2678 -0.1344
 8882TIP3    H148061   4.115   3.561  16.461 -1.6646  0.7053 -0.0339
 8882TIP3    H248062   4.178   3.585  16.325 -1.1155  2.7890  0.5532
 8883TIP3   OH248063   6.472   0.766  11.694  0.4842  0.4731  0.5044
 8883TIP3    H148064   6.414   0.819  11.749  0.5620  1.4149 -0.3059
 8883TIP3    H248065   6.487   0.819  11.617 -0.0247 -1.0338 -0.6880
 8884TIP3   OH248066   3.369   4.178   2.060 -0.3178 -0.1151  0.9753
 8884TIP3    H148067   3.457   4.216   2.050  0.1872 -0.6502  2.8526
 8884TIP3    H248068   3.373   4.095   2.014 -0.1058  0.2350  0.3551
 8885TIP3   OH248069   1.474   3.144  15.408 -0.9524  0.0362  0.2929
 8885TIP3    H148070   1.398   3.150  15.350 -0.5087  2.1999 -0.1260
 8885TIP3    H248071   1.512   3.231  15.407  0.8988 -0.7113  1.4030
 8886TIP3   OH248072   4.867   0.770  10.669 -0.2064 -0.0173  0.0332
 8886TIP3    H148073   4.832   0.833  10.607  0.3429  0.7426  0.4735
 8886TIP3    H248074   4.962   0.785  10.667 -0.0105 -1.1220 -0.1632
 8887TIP3   OH248075   2.540   2.871   5.829 -0.4036  0.3458  0.4537
 8887TIP3    H148076   2.486   2.944   5.860 -0.9973 -0.1013  0.4879
 8887TIP3    H248077   2.629   2.894   5.855 -0.6174  0.9528  0.6627
 8888TIP3   OH248078   1.090   0.710   2.356  0.0011  0.3383  0.2394
 8888TIP3    H148079   1.142   0.719   2.276  1.9083 -1.7100  1.1298
 8888TIP3    H248080   1.041   0.792   2.362 -0.6228  0.3956 -3.2515
 8889TIP3   OH248081   1.005   6.471   3.903 -0.4734  0.6276 -0.4134
 8889TIP3    H148082   1.080   6.413   3.911 -0.5262  0.6498  0.3554
 8889TIP3    H248083   1.022   6.522   3.824  0.4711  0.8319 -0.0970
 8890TIP3   OH248084   2.931   0.081  12.832  0.2654 -0.2624  0.0990
 8890TIP3    H148085   2.888   0.062  12.748 -0.8515 -1.1819  0.8374
 8890TIP3    H248086   2.884   0.026  12.895  1.5271 -0.0924  1.2167
 8891TIP3   OH248087   0.152   4.976  12.009  0.2093  0.1462  0.0106
 8891TIP3    H148088   0.241   5.003  12.032  0.3475  0.9412 -1.3848
 8891TIP3    H248089   0.110   4.957  12.094  1.4859  0.4305  0.7237
 8892TIP3   OH248090   4.436   6.328   5.696 -0.0992  0.5551 -0.6303
 8892TIP3    H148091   4.414   6.262   5.631  1.6065  1.6176 -2.3740
 8892TIP3    H248092   4.456   6.407   5.645  1.3948  1.4125  1.1606
 8893TIP3   OH248093   6.628   2.558   0.496 -1.0848  0.4103  0.5409
 8893TIP3    H148094   6.580   2.606   0.564  0.3231  1.7888  0.6245
 8893TIP3    H248095   6.621   2.612   0.418  0.2129  0.6127  0.5336
 8894TIP3   OH248096   1.181   2.562   3.697 -0.0704  0.6881 -0.2767
 8894TIP3    H148097   1.087   2.545   3.709 -0.0147  0.7178  0.2207
 8894TIP3    H248098   1.192   2.570   3.603 -0.3719 -0.4663 -0.4286
 8895TIP3   OH248099   4.887   5.592  14.686 -0.4835  0.3724  0.2101
 8895TIP3    H148100   4.914   5.585  14.778  0.6572  2.1388  0.0745
 8895TIP3    H248101   4.888   5.686  14.669 -1.3780  0.1151 -1.4249
 8896TIP3   OH248102   4.838   0.466   3.187  0.0079 -0.1056  0.3253
 8896TIP3    H148103   4.846   0.505   3.100  0.6669  1.1778  0.9418
 8896TIP3    H248104   4.805   0.537   3.242 -0.4292 -0.9121  1.1346
 8897TIP3   OH248105   0.910   4.189   0.681 -0.8128  0.0126  0.2182
 8897TIP3    H148106   0.893   4.261   0.742 -0.1882  0.6291 -0.3276
 8897TIP3    H248107   0.991   4.149   0.712 -1.8819 -1.3808  1.3639
 8898TIP3   OH248108   3.487   5.165   1.334 -0.1922  0.2843 -0.1390
 8898TIP3    H148109   3.522   5.209   1.411 -0.7433  0.8371 -0.1895
 8898TIP3    H248110   3.495   5.229   1.263  0.0804 -0.1276 -0.4937
 8899TIP3   OH248111   2.104   4.441  16.239  0.0514  0.2345  0.3800
 8899TIP3    H148112   2.049   4.433  16.162 -0.9735 -1.7666  1.2410
 8899TIP3    H248113   2.188   4.472  16.206  0.2862 -2.4357 -1.8898
 8900TIP3   OH248114   5.311   6.396   4.986  0.0822 -0.4300  0.2578
 8900TIP3    H148115   5.249   6.415   4.916 -0.1335  0.7605  0.7419
 8900TIP3    H248116   5.259   6.352   5.053 -0.0057 -0.3947  0.2129
 8901TIP3   OH248117   5.575   5.041  12.175 -0.1789 -0.0207 -0.1186
 8901TIP3    H148118   5.652   5.031  12.119 -0.5483 -0.2376 -0.6068
 8901TIP3    H248119   5.591   5.121  12.225  1.7581 -1.6188  2.0640
 8902TIP3   OH248120   0.162   5.271  16.550  0.4205  0.0534 -0.0985
 8902TIP3    H148121   0.129   5.238  16.634  0.5774 -0.8009 -0.3683
 8902TIP3    H248122   0.090   5.258  16.489  0.3755  0.4967 -0.1391
 8903TIP3   OH248123   3.689   1.916  16.148  0.0835  0.0455  0.1827
 8903TIP3    H148124   3.650   1.851  16.090  2.5102 -1.6229  0.3052
 8903TIP3    H248125   3.709   1.868  16.229  1.6673  0.9708  0.3859
 8904TIP3   OH248126   0.630   6.047   0.302  0.3541  0.2508 -0.3191
 8904TIP3    H148127   0.574   5.986   0.255  0.7717  0.2262 -0.7900
 8904TIP3    H248128   0.572   6.088   0.366 -1.2226  2.9977 -3.1934
 8905TIP3   OH248129   1.091   6.781  13.287  0.4159 -0.6632 -0.0578
 8905TIP3    H148130   1.042   6.861  13.272 -0.4268 -0.6184  2.3734
 8905TIP3    H248131   1.027   6.711  13.274  0.4462 -0.7655  0.3048
 8906TIP3   OH248132   0.644   2.827   1.378 -0.0376  0.0862 -0.2616
 8906TIP3    H148133   0.580   2.897   1.373 -0.1429  0.1592  1.5064
 8906TIP3    H248134   0.626   2.784   1.462  0.1275 -1.9591 -1.2199
 8907TIP3   OH248135   6.534   1.546   5.478  0.6270  0.0126  0.3371
 8907TIP3    H148136   6.549   1.622   5.422 -0.5408  0.0657  0.0747
 8907TIP3    H248137   6.499   1.582   5.559 -0.6297 -0.2627 -0.0509
 8908TIP3   OH248138   5.460   4.656   1.787  0.1526  0.1059 -0.0247
 8908TIP3    H148139   5.375   4.619   1.764 -0.6700  0.6999  1.8003
 8908TIP3    H248140   5.442   4.750   1.801  1.2111  0.3317 -0.1008
 8909TIP3   OH248141   0.118   2.564   0.555 -0.8322 -0.0996  0.7313
 8909TIP3    H148142   0.029   2.535   0.577 -1.1073  0.8137  0.8884
 8909TIP3    H248143   0.117   2.575   0.460 -0.7876 -0.4223  0.6952
 8910TIP3   OH248144   6.346   4.619  11.782  0.4117  0.0386 -0.2104
 8910TIP3    H148145   6.253   4.595  11.782  0.3643 -0.1625  2.5224
 8910TIP3    H248146   6.350   4.698  11.836  1.8908 -0.3933  0.3718
 8911TIP3   OH248147   5.040   3.647   5.374 -0.1106  0.1689  0.0131
 8911TIP3    H148148   5.109   3.616   5.433 -1.3170  1.4974  2.2341
 8911TIP3    H248149   4.995   3.567   5.346  0.8188 -0.5205  0.4473
 8912TIP3   OH248150   3.381   3.471   5.022  0.0602 -0.0386 -0.0490
 8912TIP3    H148151   3.347   3.520   5.096  1.2670  1.0116 -0.1613
 8912TIP3    H248152   3.431   3.535   4.971  1.0946 -1.2214 -0.5850
 8913TIP3   OH248153   6.181   6.754  13.122 -0.4318 -0.0183 -0.0653
 8913TIP3    H148154   6.095   6.715  13.109 -0.8594  0.8958  0.0367
 8913TIP3    H248155   6.164   6.841  13.156  0.5780 -0.6761  2.3117
 8914TIP3   OH248156   0.745   0.452  10.969  0.3116 -0.1557  0.5054
 8914TIP3    H148157   0.826   0.435  10.920  0.5833  0.6003  0.6871
 8914TIP3    H248158   0.679   0.467  10.901  0.1589 -1.4139  0.3419
 8915TIP3   OH248159   6.758   2.543   4.640  0.2173 -0.0787 -0.2752
 8915TIP3    H148160   6.662   2.543   4.643  0.1327 -0.9867 -1.7135
 8915TIP3    H248161   6.783   2.470   4.698 -0.0158 -0.3734 -0.5375
 8916TIP3   OH248162   1.631   3.816  10.727  0.3237  0.9053  0.1036
 8916TIP3    H148163   1.617   3.721  10.733 -0.0819  1.0120  0.9635
 8916TIP3    H248164   1.545   3.851  10.703  0.6558  0.9965 -1.0063
 8917TIP3   OH248165   4.115   3.290   5.265  0.0896 -0.2831 -0.0345
 8917TIP3    H148166   4.021   3.296   5.285  0.1421 -0.9967  0.4491
 8917TIP3    H248167   4.157   3.345   5.331  0.3159 -3.1286  2.3831
 8918TIP3   OH248168   5.881   0.693  12.649  0.0638  0.1622  0.6903
 8918TIP3    H148169   5.894   0.622  12.586  0.1591  1.0127 -0.2600
 8918TIP3    H248170   5.841   0.764  12.599  2.9303  2.0159  0.8307
 8919TIP3   OH248171   4.946   4.987  10.596 -0.7213  0.4007  0.5693
 8919TIP3    H148172   4.852   5.003  10.581 -0.4270  0.3960 -1.5628
 8919TIP3    H248173   4.965   4.906  10.549  0.4162  0.5461  0.7473
 8920TIP3   OH248174   6.095   3.470  14.202  0.5024 -0.4739 -0.1408
 8920TIP3    H148175   6.042   3.447  14.279 -0.8713 -1.3335 -1.3018
 8920TIP3    H248176   6.131   3.386  14.173  0.3997 -0.2615 -0.8762
 8921TIP3   OH248177   0.920   6.732   1.479  0.0891  0.3132 -0.1860
 8921TIP3    H148178   0.925   6.732   1.384 -1.0121 -0.2972 -0.2578
 8921TIP3    H248179   0.981   6.801   1.506 -0.3542  1.2088 -1.3728
 8922TIP3   OH248180   2.393   3.427   4.707 -0.0831 -0.0584 -0.2561
 8922TIP3    H148181   2.465   3.373   4.674 -0.4308  0.0269 -1.1816
 8922TIP3    H248182   2.328   3.426   4.637 -0.8160  0.1880  0.4132
 8923TIP3   OH248183   2.713   4.236   3.268 -0.1022  0.2756  0.1343
 8923TIP3    H148184   2.741   4.198   3.351 -1.4492  2.1628  1.5671
 8923TIP3    H248185   2.762   4.318   3.261 -0.9215  0.7528 -0.2603
 8924TIP3   OH248186   3.903   6.309   4.448  0.3858  0.2863 -0.0666
 8924TIP3    H148187   3.939   6.332   4.533 -2.7583  0.1257  1.4591
 8924TIP3    H248188   3.856   6.387   4.419 -1.1592 -0.6024 -0.0988
 8925TIP3   OH248189   2.283   6.459  11.206 -0.0755 -0.1541  0.3149
 8925TIP3    H148190   2.256   6.543  11.168  1.0396  0.4691  0.8538
 8925TIP3    H248191   2.343   6.483  11.277 -2.3150 -1.2589  2.7334
 8926TIP3   OH248192   0.639   0.835  16.978  0.2069 -0.5888  0.5708
 8926TIP3    H148193   0.616   0.763  17.037 -0.2887  0.9365  2.3241
 8926TIP3    H248194   0.682   0.793  16.904 -4.2228 -3.2931 -0.8791
 8927TIP3   OH248195   4.830   1.449  16.300  0.3269 -0.3518  0.1017
 8927TIP3    H148196   4.908   1.470  16.248  0.5957  0.1444  0.6776
 8927TIP3    H248197   4.767   1.416  16.237  1.6764 -2.6975 -0.1280
 8928TIP3   OH248198   4.401   4.402  14.318  0.6068 -0.1395 -0.2955
 8928TIP3    H148199   4.369   4.428  14.405 -1.8632  1.6072 -1.6067
 8928TIP3    H248200   4.373   4.312  14.307 -0.8585  0.2649 -0.0249
 8929TIP3   OH248201   0.276   3.746   0.237  0.9061  1.0480 -0.2190
 8929TIP3    H148202   0.295   3.797   0.159  2.5761 -1.6840 -1.7829
 8929TIP3    H248203   0.217   3.677   0.207  2.0776 -0.4260  0.6918
 8930TIP3   OH248204   2.121   3.729   2.635 -0.0419  0.4768  0.2943
 8930TIP3    H148205   2.131   3.646   2.681 -0.2674  0.2656 -0.0355
 8930TIP3    H248206   2.046   3.716   2.578 -0.1097  0.9255  0.2778
 8931TIP3   OH248207   5.671   4.168   2.652  0.6082  0.5650  0.2723
 8931TIP3    H148208   5.678   4.086   2.602 -0.4981  0.7479 -0.2173
 8931TIP3    H248209   5.612   4.222   2.600  1.8733  1.9691  0.2245
 8932TIP3   OH248210   3.298   2.913   1.472  0.1747 -0.1614 -0.0688
 8932TIP3    H148211   3.284   2.831   1.520 -0.9099 -0.1846 -0.4183
 8932TIP3    H248212   3.305   2.887   1.381  0.2768  0.0945 -0.1351
 8933TIP3   OH248213   2.680   4.513  12.574 -0.5878  0.0619 -0.4223
 8933TIP3    H148214   2.616   4.455  12.616  0.7917 -1.9224 -0.9015
 8933TIP3    H248215   2.743   4.534  12.643 -0.3583 -0.1308 -0.5698
 8934TIP3   OH248216   0.721   0.475   5.240 -0.4548  0.2422 -0.6042
 8934TIP3    H148217   0.802   0.527   5.239 -1.0854  1.2511 -0.0795
 8934TIP3    H248218   0.673   0.504   5.162 -0.8469  0.5194 -0.2618
 8935TIP3   OH248219   3.989   2.825  15.085 -0.4963  0.4914  0.6323
 8935TIP3    H148220   3.933   2.808  15.160  1.0522 -0.5751  1.6122
 8935TIP3    H248221   3.966   2.755  15.022 -0.9788  0.6881  0.5851
 8936TIP3   OH248222   5.164   0.484   0.197 -0.3103  0.5704  0.5559
 8936TIP3    H148223   5.146   0.390   0.201 -0.4637  0.5895  0.3632
 8936TIP3    H248224   5.255   0.492   0.222 -0.1057  0.2987 -0.0640
 8937TIP3   OH248225   4.997   1.316   2.584 -0.0909  0.2140 -0.1941
 8937TIP3    H148226   4.904   1.309   2.606 -0.1863  0.9436 -0.3419
 8937TIP3    H248227   5.040   1.338   2.667  0.1874 -1.7614  0.2358
 8938TIP3   OH248228   4.335   5.625   5.144 -0.0694 -0.1319 -0.1239
 8938TIP3    H148229   4.331   5.588   5.232 -0.5711  0.5740  0.1621
 8938TIP3    H248230   4.407   5.689   5.148  1.2031 -1.4507 -0.7843
 8939TIP3   OH248231   6.358   2.369   2.398  0.3276 -0.0877  0.8218
 8939TIP3    H148232   6.322   2.314   2.468 -0.9667  0.1208  0.3322
 8939TIP3    H248233   6.292   2.368   2.329  1.6335 -0.4032 -0.4878
 8940TIP3   OH248234   2.175   1.223   1.632 -0.2006  0.4565 -0.6659
 8940TIP3    H148235   2.102   1.243   1.575  0.1819  1.7030 -0.7395
 8940TIP3    H248236   2.191   1.129   1.619 -0.7332  0.5212 -1.8620
 8941TIP3   OH248237   1.355   0.640   0.885 -0.0446 -0.1144 -0.4081
 8941TIP3    H148238   1.401   0.576   0.830  1.0082  0.4988 -0.2642
 8941TIP3    H248239   1.335   0.712   0.825 -2.0642 -0.9146 -0.8001
 8942TIP3   OH248240   2.155   5.117   5.713 -0.0940 -0.4491 -0.1843
 8942TIP3    H148241   2.165   5.159   5.799 -0.6372  0.7603 -0.6831
 8942TIP3    H248242   2.244   5.114   5.677 -0.1543  1.1843 -0.5309
 8943TIP3   OH248243   2.108   4.814   3.445 -0.4608 -0.1458 -0.7097
 8943TIP3    H148244   2.088   4.827   3.537  1.6994 -0.7355 -0.1023
 8943TIP3    H248245   2.089   4.898   3.404 -0.1496  0.5480  0.5244
 8944TIP3   OH248246   0.326   0.666  15.834 -0.1247  0.4281 -0.1346
 8944TIP3    H148247   0.273   0.586  15.836 -1.2152  1.1286  1.6886
 8944TIP3    H248248   0.287   0.722  15.902  2.5640  1.2543  0.8661
 8945TIP3   OH248249   6.156   0.401  14.193  0.7621 -0.5720  0.1872
 8945TIP3    H148250   6.188   0.446  14.114  1.9332 -0.7781  0.5202
 8945TIP3    H248251   6.236   0.372  14.237  0.0785 -1.3204  0.9503
 8946TIP3   OH248252   5.739   1.448  11.206  0.2302 -0.1624  0.1978
 8946TIP3    H148253   5.670   1.452  11.140  0.3931 -1.6215 -0.0971
 8946TIP3    H248254   5.763   1.356  11.210  0.5079 -0.0543  2.0206
 8947TIP3   OH248255   1.515   3.763   3.956 -0.0900 -0.5979  0.5061
 8947TIP3    H148256   1.497   3.669   3.965 -1.5438 -0.4063 -0.2256
 8947TIP3    H248257   1.468   3.803   4.029 -0.6146 -0.3128  0.0128
 8948TIP3   OH248258   1.947   4.880  14.289 -0.2967 -0.2143  0.0192
 8948TIP3    H148259   1.985   4.923  14.212  1.0180 -1.4538 -0.0717
 8948TIP3    H248260   1.976   4.935  14.362 -2.2453  1.4425 -0.3652
 8949TIP3   OH248261   2.486   0.238   2.108 -0.1653  0.4061 -0.2837
 8949TIP3    H148262   2.485   0.270   2.198  1.2171  1.3285 -0.5783
 8949TIP3    H248263   2.403   0.270   2.071  0.3660  2.1910 -0.0475
 8950TIP3   OH248264   5.349   3.086   1.932 -0.4571 -0.0073  0.3307
 8950TIP3    H148265   5.351   3.038   1.848  1.7132 -0.5274  0.6063
 8950TIP3    H248266   5.261   3.123   1.936 -0.6674 -0.0145 -2.1590
 8951TIP3   OH248267   0.809   0.262   2.799 -0.0181 -0.1689  1.0487
 8951TIP3    H148268   0.902   0.243   2.807 -0.1773 -0.4641  2.4334
 8951TIP3    H248269   0.801   0.312   2.717  1.8117  2.8154  2.5433
 8952TIP3   OH248270   5.872   4.978  14.046 -0.7811  0.1108 -0.4129
 8952TIP3    H148271   5.820   4.917  14.099 -0.4763 -1.8503 -2.2392
 8952TIP3    H248272   5.955   4.986  14.093 -1.1568 -0.1380  0.3125
 8953TIP3   OH248273   5.089   4.436  12.768  0.1580 -0.1386 -0.5536
 8953TIP3    H148274   5.135   4.398  12.843 -2.1231 -0.9099  0.5234
 8953TIP3    H248275   4.997   4.427  12.788 -0.5358  1.0599 -2.7889
 8954TIP3   OH248276   4.253   3.578   0.166  0.1366 -0.0564 -0.5343
 8954TIP3    H148277   4.267   3.552   0.075 -1.5240  1.4684 -1.2785
 8954TIP3    H248278   4.275   3.500   0.217  0.5201 -1.1351 -2.2808
 8955TIP3   OH248279   5.326   3.567   5.532  0.2947 -0.7114 -0.0918
 8955TIP3    H148280   5.333   3.482   5.489  2.0682 -0.9772  0.6267
 8955TIP3    H248281   5.344   3.630   5.461 -0.7698 -0.9271 -0.5698
 8956TIP3   OH248282   1.168   5.895  14.721  0.8916 -0.5484  0.1722
 8956TIP3    H148283   1.137   5.954  14.791  0.0622  0.7090 -1.2050
 8956TIP3    H248284   1.256   5.926  14.701  0.9572 -0.6226  0.3406
 8957TIP3   OH248285   5.539   5.546  12.986 -0.3970  0.1304  0.0396
 8957TIP3    H148286   5.458   5.583  13.019 -2.2220 -2.7061 -0.9067
 8957TIP3    H248287   5.571   5.490  13.057  1.3825  1.9471  0.7900
 8958TIP3   OH248288   2.048   2.821  12.880 -0.2968 -0.1165  0.1091
 8958TIP3    H148289   2.063   2.727  12.873  2.4821  0.1415  1.2112
 8958TIP3    H248290   2.055   2.840  12.974  0.9474  1.3774 -0.2312
 8959TIP3   OH248291   3.911   2.022  16.018 -0.4024  0.5534 -0.2383
 8959TIP3    H148292   3.888   2.105  15.977 -0.0145  0.7828  0.0067
 8959TIP3    H248293   3.828   1.989  16.053 -0.5851  0.7574 -0.4822
 8960TIP3   OH248294   6.634   5.519  11.475  0.4854 -0.2315 -0.1113
 8960TIP3    H148295   6.647   5.611  11.499  0.0446 -0.4737  1.1549
 8960TIP3    H248296   6.589   5.481  11.551  0.5658 -1.4666 -0.6613
 8961TIP3   OH248297   1.766   4.471  15.327  0.6253 -0.3213  0.1505
 8961TIP3    H148298   1.847   4.427  15.301  1.2688  1.7864 -1.7555
 8961TIP3    H248299   1.794   4.558  15.354 -0.8947 -0.0218  0.8518
 8962TIP3   OH248300   1.615   4.831   2.406  0.4727 -0.2546 -0.2470
 8962TIP3    H148301   1.675   4.879   2.349  1.7026 -1.1031  0.3025
 8962TIP3    H248302   1.613   4.743   2.370  0.6064 -0.5807  0.5355
 8963TIP3   OH248303   3.362   5.127  10.668  0.3709 -0.1212  0.1022
 8963TIP3    H148304   3.405   5.073  10.734 -1.3778 -1.2372  0.3795
 8963TIP3    H248305   3.306   5.066  10.620 -0.0304  1.0734 -0.9878
 8964TIP3   OH248306   5.886   3.979   4.548  0.5554  0.1481  0.5309
 8964TIP3    H148307   5.883   4.065   4.507 -0.3735  0.2558  0.8067
 8964TIP3    H248308   5.910   3.996   4.639  2.9099 -0.1136  0.0263
 8965TIP3   OH248309   3.131   5.346  11.887  0.1915 -0.5060 -0.2464
 8965TIP3    H148310   3.050   5.296  11.899 -0.5239  0.6723  0.0811
 8965TIP3    H248311   3.126   5.415  11.954  1.1206  0.0060 -0.6895
 8966TIP3   OH248312   5.188   5.940  14.561  0.1807 -0.0695  0.1261
 8966TIP3    H148313   5.121   5.874  14.543  0.3754 -0.3949  0.5813
 8966TIP3    H248314   5.235   5.950  14.478 -0.7960  0.5892 -0.3698
 8967TIP3   OH248315   5.922   6.216  12.979 -0.0875 -0.2238 -0.3459
 8967TIP3    H148316   5.937   6.130  13.018  0.7441  0.0453 -0.0566
 8967TIP3    H248317   5.874   6.197  12.898 -1.6695 -0.8064  0.6775
 8968TIP3   OH248318   0.967   6.008  11.700  0.3312  0.2643  0.6473
 8968TIP3    H148319   1.019   5.961  11.635  0.7521 -0.1620  1.2800
 8968TIP3    H248320   0.897   6.049  11.650  0.3252 -0.5135 -0.0045
 8969TIP3   OH248321   5.237   0.275   5.006 -0.0683 -0.2130 -0.2956
 8969TIP3    H148322   5.155   0.261   5.053  0.1166  0.3416  0.2066
 8969TIP3    H248323   5.290   0.198   5.027  0.5238  0.6249  1.5267
 8970TIP3   OH248324   5.181   3.537  12.065  0.3234 -0.4602 -0.0704
 8970TIP3    H148325   5.156   3.628  12.084  0.2225 -0.4142 -0.4244
 8970TIP3    H248326   5.241   3.514  12.136  0.0761 -0.2342  0.2176
 8971TIP3   OH248327   5.634   1.356   5.343 -0.4137 -0.1702  0.0114
 8971TIP3    H148328   5.693   1.345   5.417  0.4649 -0.4418 -0.7062
 8971TIP3    H248329   5.565   1.291   5.357  1.7922 -3.0384 -1.3422
 8972TIP3   OH248330   3.570   1.916   3.097 -0.0681 -0.0910  0.0831
 8972TIP3    H148331   3.515   1.842   3.124  0.8340 -0.3369  1.3206
 8972TIP3    H248332   3.507   1.983   3.071 -0.9738 -0.4386  1.2548
 8973TIP3   OH248333   3.752   4.147  17.025 -0.3155 -0.0180 -0.0268
 8973TIP3    H148334   3.711   4.212  17.083 -2.8725 -1.3291 -0.2522
 8973TIP3    H248335   3.749   4.065  17.074  2.4149 -0.1597  0.0514
 8974TIP3   OH248336   4.096   5.556  15.017  0.1546  0.3188 -0.2462
 8974TIP3    H148337   4.121   5.466  15.039 -0.1174  0.1438 -0.6541
 8974TIP3    H248338   4.178   5.597  14.987  0.0597 -0.1061 -1.0948
 8975TIP3   OH248339   2.412   2.181  12.276  0.0963  0.5507 -0.1240
 8975TIP3    H148340   2.353   2.252  12.251 -0.5329  0.5512  1.2763
 8975TIP3    H248341   2.356   2.103  12.282  0.5055  0.2448 -0.2033
 8976TIP3   OH248342   3.840   3.575  10.971  0.0731 -0.3550  0.1468
 8976TIP3    H148343   3.913   3.600  11.026 -0.2595 -0.2565  0.5483
 8976TIP3    H248344   3.802   3.658  10.942 -0.2590 -0.3979  0.4504
 8977TIP3   OH248345   0.657   0.158   1.807 -0.2975  0.4707 -0.2692
 8977TIP3    H148346   0.650   0.246   1.772 -0.9120 -0.3728 -2.4277
 8977TIP3    H248347   0.717   0.112   1.748  0.6514 -0.3636  1.2750
 8978TIP3   OH248348   2.027   6.517  10.996 -0.5398 -0.1265 -0.2770
 8978TIP3    H148349   1.974   6.469  10.932 -0.3778 -0.7051  0.0128
 8978TIP3    H248350   2.042   6.454  11.067  0.2039  0.1552 -0.1747
 8979TIP3   OH248351   4.295   2.136   5.845  0.1093  0.0961  0.0555
 8979TIP3    H148352   4.219   2.078   5.840  1.2451 -1.6791  1.8780
 8979TIP3    H248353   4.315   2.157   5.753 -0.8608 -1.7481 -0.6300
 8980TIP3   OH248354   4.001   5.691   2.239 -0.2489 -0.4368 -0.2380
 8980TIP3    H148355   4.077   5.696   2.297  0.4246 -0.8058 -1.0620
 8980TIP3    H248356   4.032   5.728   2.156 -1.0197 -0.4480 -0.5400
 8981TIP3   OH248357   5.869   0.171  15.908 -0.2651  0.3024  0.4675
 8981TIP3    H148358   5.908   0.097  15.954  1.2205  0.9499  0.3043
 8981TIP3    H248359   5.940   0.205  15.853 -1.2243  1.2030 -0.2460
 8982TIP3   OH248360   5.499   1.785  15.549  0.1211  0.7759  0.1676
 8982TIP3    H148361   5.577   1.818  15.505  0.7723 -0.3545  0.4450
 8982TIP3    H248362   5.515   1.802  15.642 -0.6021  1.8175  0.1245
 8983TIP3   OH248363   3.095   4.731  14.191  0.8805 -0.9649 -0.1874
 8983TIP3    H148364   3.010   4.726  14.235  0.7558 -0.4635 -0.3691
 8983TIP3    H248365   3.074   4.733  14.098  0.9274  1.8917 -0.2100
 8984TIP3   OH248366   4.395   6.051  12.313 -0.2918 -0.4092  0.3110
 8984TIP3    H148367   4.301   6.066  12.317 -0.4509 -1.2610 -0.1556
 8984TIP3    H248368   4.417   6.011  12.397 -0.0756  1.1674  1.0443
 8985TIP3   OH248369   2.101   6.494  14.549 -0.3610 -0.5853 -0.5855
 8985TIP3    H148370   2.117   6.560  14.481  0.7168 -2.2669 -2.0465
 8985TIP3    H248371   2.028   6.443  14.516 -0.6678 -0.6310  0.1477
 8986TIP3   OH248372   0.945   4.374   2.688  0.5348 -0.3498  0.1705
 8986TIP3    H148373   0.960   4.460   2.648  1.0205 -0.0026  1.0556
 8986TIP3    H248374   0.981   4.311   2.625  0.8058  0.1476 -0.1732
 8987TIP3   OH248375   3.199   3.495  16.906 -0.1882 -0.1277 -0.1930
 8987TIP3    H148376   3.239   3.412  16.933  0.2696  0.6936  1.8410
 8987TIP3    H248377   3.263   3.535  16.848 -0.8901 -1.6491 -2.1076
 8988TIP3   OH248378   1.191   3.705  14.029  0.6482 -0.0506  0.2870
 8988TIP3    H148379   1.151   3.624  13.997  0.5680  0.2211 -0.3133
 8988TIP3    H248380   1.198   3.761  13.952 -0.6053  1.0632  0.9343
 8989TIP3   OH248381   4.951   3.555   6.039 -0.2176  0.6934 -0.6761
 8989TIP3    H148382   4.917   3.486   6.097  0.5179  1.2172  0.4144
 8989TIP3    H248383   4.991   3.507   5.966  2.2892 -0.1846  1.1485
 8990TIP3   OH248384   0.579   1.402  14.081  0.1397  0.8142  0.3105
 8990TIP3    H148385   0.532   1.485  14.090  0.7549  1.3317 -0.9266
 8990TIP3    H248386   0.538   1.358  14.006 -1.0834 -0.6701  1.7863
 8991TIP3   OH248387   4.903   4.979  14.696  0.2119  0.5124 -0.2036
 8991TIP3    H148388   4.836   4.911  14.696 -0.2800  0.9040  2.1796
 8991TIP3    H248389   4.853   5.061  14.700  0.8096  1.0435 -2.3362
 8992TIP3   OH248390   5.222   0.885  14.702 -0.2247 -0.6728 -0.3444
 8992TIP3    H148391   5.175   0.942  14.763  0.8953 -0.2021  0.0945
 8992TIP3    H248392   5.265   0.945  14.641  2.1643 -0.9268  0.9837
 8993TIP3   OH248393   1.994   0.749   0.035  0.5768 -0.2918 -0.2080
 8993TIP3    H148394   2.039   0.818  -0.013 -1.5931  1.2738 -0.1742
 8993TIP3    H248395   1.901   0.762   0.013 -0.2882 -0.8508  2.6632
 8994TIP3   OH248396   2.298   3.477   3.264 -0.2017  0.0085 -0.3531
 8994TIP3    H148397   2.279   3.412   3.196  1.1958 -0.0118 -0.7568
 8994TIP3    H248398   2.353   3.542   3.220  0.1617  0.3544  0.5934
 8995TIP3   OH248399   1.513   6.795   1.875  0.0707  0.6171 -0.3983
 8995TIP3    H148400   1.449   6.859   1.906  1.3628  1.0306  1.6086
 8995TIP3    H248401   1.524   6.735   1.948  3.5958  1.8561  0.3046
 8996TIP3   OH248402   1.468   6.005   3.990 -0.1261 -0.1309 -0.5940
 8996TIP3    H148403   1.449   6.092   4.026  0.8094  0.9468 -2.5541
 8996TIP3    H248404   1.547   5.978   4.037  0.0553  0.4612 -0.5387
 8997TIP3   OH248405   1.899   2.463   4.356 -0.5265 -0.1239  0.0713
 8997TIP3    H148406   1.930   2.373   4.364 -0.5221  0.0221  2.5646
 8997TIP3    H248407   1.816   2.464   4.404 -0.5694  1.1909  0.0095
 8998TIP3   OH248408   6.264   3.938   1.129 -0.4289  0.0393  0.0479
 8998TIP3    H148409   6.268   3.919   1.223 -0.0195 -0.8850 -0.1409
 8998TIP3    H248410   6.319   4.015   1.117 -0.6127  0.2589  0.5834
 8999TIP3   OH248411   3.778   6.036  12.243  0.0970  0.0224  0.4111
 8999TIP3    H148412   3.716   6.107  12.227  1.1038  0.8301 -0.0183
 8999TIP3    H248413   3.864   6.074  12.221  0.7298 -1.0934  0.8905
 9000TIP3   OH248414   2.662   5.936   6.094 -0.4673  0.1312  0.2080
 9000TIP3    H148415   2.655   5.849   6.133 -0.4962 -0.5207 -1.2006
 9000TIP3    H248416   2.591   5.939   6.029 -1.0673  1.5677  0.8832
 9001TIP3   OH248417   1.850   2.493   2.395  0.0737 -0.1500 -0.9756
 9001TIP3    H148418   1.764   2.486   2.354 -0.6374  0.8205  0.2761
 9001TIP3    H248419   1.841   2.449   2.479 -0.0024  2.1433  0.2990
 9002TIP3   OH248420   5.651   2.649   4.525 -0.2426 -0.9182 -0.4450
 9002TIP3    H148421   5.704   2.585   4.572 -1.7206 -1.4682  0.5468
 9002TIP3    H248422   5.681   2.734   4.559  0.1774 -1.1987 -0.0926
 9003TIP3   OH248423   5.667   3.850   4.453  0.3062  0.3667 -0.5905
 9003TIP3    H148424   5.602   3.856   4.523 -2.1271  2.5105 -2.8209
 9003TIP3    H248425   5.749   3.879   4.494 -0.5678 -0.3384  1.8107
 9004TIP3   OH248426   0.033   4.640   1.141 -0.2455  0.0814 -0.3385
 9004TIP3    H148427   0.105   4.688   1.183 -0.1930 -0.0662 -0.2541
 9004TIP3    H248428  -0.040   4.649   1.202  0.4499 -1.9881  0.9265
 9005TIP3   OH248429   6.679   5.033  10.612 -0.0537 -0.3094 -0.1342
 9005TIP3    H148430   6.753   4.988  10.652 -0.0384  0.5961  0.9064
 9005TIP3    H248431   6.695   5.027  10.518  0.5265 -1.4529  0.0214
 9006TIP3   OH248432   2.024   3.863  15.037  0.1141 -0.1647  0.4793
 9006TIP3    H148433   2.035   3.897  14.948  0.5152  1.0996  0.9913
 9006TIP3    H248434   2.102   3.809  15.051 -0.9117 -2.0443 -0.6304
 9007TIP3   OH248435   4.298   5.893  13.243  0.3275 -0.3684 -1.0080
 9007TIP3    H148436   4.240   5.881  13.319  1.5717 -2.0851 -0.2378
 9007TIP3    H248437   4.318   5.803  13.216  2.6312  0.1694 -1.2031
 9008TIP3   OH248438   0.635   4.914   0.578  0.2122  0.0576  0.3102
 9008TIP3    H148439   0.675   4.993   0.614 -0.5173  1.3046 -1.4756
 9008TIP3    H248440   0.688   4.843   0.613  2.6367  1.4878 -0.1575
 9009TIP3   OH248441   2.297   3.706  11.796 -0.0430 -0.0854  0.0305
 9009TIP3    H148442   2.222   3.749  11.838  0.7198 -0.6884  2.1157
 9009TIP3    H248443   2.294   3.615  11.826 -0.6779 -1.2121 -3.0057
 9010TIP3   OH248444   5.166   2.751  11.631  0.0617 -0.0561  0.5786
 9010TIP3    H148445   5.179   2.775  11.539  1.1883 -0.0852  0.7169
 9010TIP3    H248446   5.211   2.819  11.681 -0.3371 -0.1686  1.1052
 9011TIP3   OH248447   5.543   5.533   3.621 -0.8449  0.2248  0.1578
 9011TIP3    H148448   5.618   5.526   3.681 -1.6892  0.7596  1.3101
 9011TIP3    H248449   5.531   5.445   3.587 -1.7398 -0.6420  2.5220
 9012TIP3   OH248450   5.268   4.225  10.659  0.4164  0.6516  0.5482
 9012TIP3    H148451   5.353   4.188  10.682 -0.2019 -0.5462  0.9835
 9012TIP3    H248452   5.287   4.315  10.633  1.7770  0.4848  0.9120
 9013TIP3   OH248453   3.265   5.904   0.190 -0.4122 -0.5544  0.0318
 9013TIP3    H148454   3.290   5.839   0.256  0.1224  0.6119  1.0187
 9013TIP3    H248455   3.173   5.922   0.209  0.3963  1.7643  2.3112
 9014TIP3   OH248456   1.503   0.716  11.799 -0.9397  0.7772  0.2050
 9014TIP3    H148457   1.579   0.768  11.770 -2.0639  0.8070 -3.2015
 9014TIP3    H248458   1.439   0.782  11.827 -0.9925  0.9971 -0.4147
 9015TIP3   OH248459   6.595   5.676  13.412  0.2115  0.6094  0.4095
 9015TIP3    H148460   6.683   5.641  13.430 -0.1779 -0.6801 -0.0402
 9015TIP3    H248461   6.607   5.735  13.338  0.5507 -0.4458 -0.4119
 9016TIP3   OH248462   5.397   0.907   3.607 -0.5262  0.5518 -0.3276
 9016TIP3    H148463   5.356   0.863   3.533 -0.8022 -0.1227  0.2192
 9016TIP3    H248464   5.438   0.837   3.657 -1.8431  0.7659  1.1190
 9017TIP3   OH248465   1.103   3.724   4.871  0.6951  0.0099 -0.0342
 9017TIP3    H148466   1.110   3.808   4.917 -2.5445  0.0054  0.6370
 9017TIP3    H248467   1.169   3.669   4.913  1.6050  1.6329  0.7860
 9018TIP3   OH248468   4.734   5.315   1.852  0.0433  0.2635  0.0236
 9018TIP3    H148469   4.789   5.341   1.925  1.3989  1.9809 -1.5106
 9018TIP3    H248470   4.792   5.263   1.795 -0.7229 -0.2709 -0.2936
 9019TIP3   OH248471   5.296   5.309  11.797  0.2937 -0.3192  0.1496
 9019TIP3    H148472   5.292   5.381  11.733  0.4039 -0.2495  0.2204
 9019TIP3    H248473   5.248   5.343  11.873 -0.6763 -0.7627 -0.2422
 9020TIP3   OH248474   6.316   2.329  11.400  0.3550 -0.3617  0.1426
 9020TIP3    H148475   6.259   2.253  11.413 -3.0755  1.9765  0.2438
 9020TIP3    H248476   6.292   2.362  11.313  2.4151  0.1737 -0.2845
 9021TIP3   OH248477   2.473   5.730  10.664 -0.1868 -0.4224 -0.6355
 9021TIP3    H148478   2.475   5.713  10.759 -1.5210 -0.3267 -0.5658
 9021TIP3    H248479   2.383   5.711  10.639 -0.5536  1.9815 -1.4148
 9022TIP3   OH248480   6.659   1.799  14.854 -0.7059  0.3117 -0.4779
 9022TIP3    H148481   6.676   1.739  14.781 -0.1940  0.4904 -0.5129
 9022TIP3    H248482   6.744   1.809  14.896 -1.1052 -0.2311  0.4916
 9023TIP3   OH248483   6.626   1.016   1.987  0.2094 -0.2186  0.6493
 9023TIP3    H148484   6.543   1.039   1.945  0.4083  0.3431  0.5599
 9023TIP3    H248485   6.646   0.929   1.952  0.7018  0.5071 -0.9477
 9024TIP3   OH248486   5.007   3.752  12.661 -0.0353  0.1907 -0.0396
 9024TIP3    H148487   4.975   3.838  12.688 -3.5554 -0.8813 -0.3262
 9024TIP3    H248488   4.961   3.733  12.580  1.1954 -1.6877 -0.3651
 9025TIP3   OH248489   2.160   1.244  15.413 -0.3151 -0.2792 -0.3125
 9025TIP3    H148490   2.129   1.334  15.400  0.3309 -0.2953 -2.1824
 9025TIP3    H248491   2.247   1.242  15.373 -0.7986 -2.0377 -1.3672
 9026TIP3   OH248492   3.945   4.576  10.782  0.5074 -0.2772  0.2530
 9026TIP3    H148493   3.873   4.576  10.720 -1.1814 -1.3868  2.1063
 9026TIP3    H248494   3.996   4.498  10.759 -0.5323 -1.1056  0.7059
 9027TIP3   OH248495   2.288   5.736  13.736  0.0703 -0.4663 -0.2871
 9027TIP3    H148496   2.338   5.655  13.737  0.1334 -0.4464 -0.9665
 9027TIP3    H248497   2.343   5.799  13.782  0.4506 -0.5728 -0.5916
 9028TIP3   OH248498   1.749   1.387   3.355  0.7014  0.3883  0.1247
 9028TIP3    H148499   1.772   1.438   3.278  2.6838 -1.3006 -0.4797
 9028TIP3    H248500   1.686   1.442   3.402 -1.4447  1.0437 -3.1701
 9029TIP3   OH248501   1.414   6.148   3.218 -0.2765  0.1606 -0.2825
 9029TIP3    H148502   1.507   6.167   3.227 -0.3261  0.6921 -0.8624
 9029TIP3    H248503   1.411   6.065   3.169 -0.1012  1.8082 -3.3541
 9030TIP3   OH248504   6.750   1.719   0.350  0.0380 -0.4163  0.6961
 9030TIP3    H148505   6.814   1.719   0.420 -1.6026  0.2348  2.2861
 9030TIP3    H248506   6.755   1.631   0.313  2.5548 -0.0582 -0.0015
 9031TIP3   OH248507   3.367   5.308  13.790  0.4692 -0.2031 -0.0437
 9031TIP3    H148508   3.377   5.213  13.803 -0.4254 -0.1590  1.0604
 9031TIP3    H248509   3.455   5.338  13.768  0.6578 -1.3791 -1.0375
 9032TIP3   OH248510   2.663   4.969   0.330  0.3997  0.3398  0.3858
 9032TIP3    H148511   2.714   4.971   0.411  0.2051  0.5329  0.5020
 9032TIP3    H248512   2.713   4.911   0.272 -0.0513 -0.7610  1.0460
 9033TIP3   OH248513   0.635   4.437  16.616 -0.2597 -0.1638 -0.3627
 9033TIP3    H148514   0.640   4.382  16.538 -1.7647  0.4514 -0.9477
 9033TIP3    H248515   0.642   4.376  16.689  1.0144 -0.7718 -0.9532
 9034TIP3   OH248516   0.091   4.763  16.105 -0.3122  0.4451 -0.3138
 9034TIP3    H148517   0.042   4.816  16.043 -0.0571  3.2590  1.6902
 9034TIP3    H248518   0.036   4.761  16.183  1.1627  0.6126  0.7668
 9035TIP3   OH248519   2.056   2.899  16.191 -0.1347  0.3704 -0.7272
 9035TIP3    H148520   2.136   2.951  16.179 -1.0803  2.1087  0.0164
 9035TIP3    H248521   1.986   2.954  16.154 -1.3871  0.3819  1.4832
 9036TIP3   OH248522   3.218   2.427  13.152 -0.4385 -0.1280  0.3855
 9036TIP3    H148523   3.169   2.504  13.178 -1.2957  0.0600 -1.6161
 9036TIP3    H248524   3.281   2.459  13.087 -0.4043 -1.0023 -0.0282
 9037TIP3   OH248525   0.266   3.620  13.706 -0.5863 -0.1487  0.0311
 9037TIP3    H148526   0.276   3.576  13.790 -0.2162  1.4289  0.8588
 9037TIP3    H248527   0.181   3.663  13.711 -0.3065  0.4451 -0.1474
 9038TIP3   OH248528   6.188   4.663   4.698  0.1124  0.5394  0.6808
 9038TIP3    H148529   6.124   4.595   4.718  0.4221  0.1203  0.2546
 9038TIP3    H248530   6.136   4.743   4.691 -0.8138 -0.2095 -2.3761
 9039TIP3   OH248531   5.822   5.859  15.669 -0.5291 -0.3437 -0.4033
 9039TIP3    H148532   5.886   5.842  15.601  0.2515  3.8125 -0.9313
 9039TIP3    H248533   5.866   5.917  15.731 -3.5651  2.5757 -0.7000
 9040TIP3   OH248534   1.435   2.264   2.339  0.3589  0.1763 -0.3195
 9040TIP3    H148535   1.370   2.314   2.291  0.5045 -0.5528 -1.3141
 9040TIP3    H248536   1.429   2.176   2.303  1.2351 -0.1314  0.2432
 9041TIP3   OH248537   5.538   5.069   0.016  0.5986  0.6461  0.1872
 9041TIP3    H148538   5.540   5.162  -0.009 -0.0488  0.3177 -1.2061
 9041TIP3    H248539   5.630   5.043   0.019  0.7457  1.0231 -0.7108
 9042TIP3   OH248540   3.353   4.883  14.231  0.3935 -0.4596  0.0688
 9042TIP3    H148541   3.337   4.872  14.325 -0.2620 -1.8290 -0.1848
 9042TIP3    H248542   3.271   4.858  14.189  0.1253  1.7205 -0.8259
 9043TIP3   OH248543   3.599   4.291   2.440  0.6365  0.0999  0.2265
 9043TIP3    H148544   3.514   4.246   2.441 -0.6686  2.2820 -1.8973
 9043TIP3    H248545   3.653   4.238   2.381 -0.4066  0.4415 -1.0971
 9044TIP3   OH248546   4.335   2.348   2.457  0.2752  0.7262  0.2338
 9044TIP3    H148547   4.271   2.291   2.499 -1.1319  0.9360 -1.4972
 9044TIP3    H248548   4.305   2.437   2.477  0.7183  0.8362  0.4141
 9045TIP3   OH248549   6.365   4.153   0.074 -0.2250  0.0742  0.0932
 9045TIP3    H148550   6.431   4.103   0.025 -0.8901 -1.5054  0.7107
 9045TIP3    H248551   6.290   4.094   0.080 -1.2754  1.3934  0.4056
 9046TIP3   OH248552   4.091   1.966   5.819  0.7632 -0.1254 -0.1389
 9046TIP3    H148553   4.048   2.020   5.885  0.4537 -0.3605 -0.1478
 9046TIP3    H248554   4.048   1.991   5.737 -0.3691 -1.3873  0.0397
 9047TIP3   OH248555   5.556   5.531  12.577  0.0367 -0.1289  0.8540
 9047TIP3    H148556   5.511   5.610  12.609  0.5807  0.3470  0.4702
 9047TIP3    H248557   5.545   5.467  12.647 -2.1746 -0.4056  0.3517
 9048TIP3   OH248558   6.647   3.738  12.200  0.5107  0.6111 -0.5512
 9048TIP3    H148559   6.642   3.642  12.195 -1.4510  0.6877 -1.0324
 9048TIP3    H248560   6.587   3.761  12.270  0.9166  1.5108 -0.4857
 9049TIP3   OH248561   0.591   3.787  12.888  0.6091  0.4326  0.4862
 9049TIP3    H148562   0.603   3.727  12.814  0.4709  0.0365  0.7779
 9049TIP3    H248563   0.510   3.757  12.930 -0.0427  1.4897  0.0212
 9050TIP3   OH248564   3.543   3.853  14.625 -0.1378 -0.0968 -0.0297
 9050TIP3    H148565   3.448   3.853  14.630 -0.2749  2.5449 -1.0338
 9050TIP3    H248566   3.563   3.877  14.534  1.3180  4.3231  1.2090
 9051TIP3   OH248567   5.926   4.692   2.184  0.1010 -0.3523 -0.2772
 9051TIP3    H148568   5.953   4.676   2.274  1.3672  0.7504 -0.4265
 9051TIP3    H248569   5.830   4.696   2.188  0.1701  0.5512  1.1706
 9052TIP3   OH248570   2.615   0.440   2.491 -0.8052 -0.0066  0.2606
 9052TIP3    H148571   2.538   0.383   2.490 -0.7235 -0.1159  0.0981
 9052TIP3    H248572   2.623   0.472   2.401 -0.2483 -0.5627  0.1005
 9053TIP3   OH248573   4.030   3.791  13.955  0.0801 -0.6148 -0.4295
 9053TIP3    H148574   4.025   3.885  13.975 -0.2683 -0.5794 -0.6876
 9053TIP3    H248575   4.048   3.750  14.040 -0.2757 -0.3573 -0.2248
 9054TIP3   OH248576   6.447   6.383   1.502 -0.1814  0.5858  0.0089
 9054TIP3    H148577   6.507   6.346   1.437 -0.2099  0.5635 -0.0045
 9054TIP3    H248578   6.361   6.376   1.462 -0.0066  2.2688 -0.7397
 9055TIP3   OH248579   5.115   4.470   1.429  0.2549 -0.0589 -0.2159
 9055TIP3    H148580   5.109   4.509   1.342  2.0305 -1.0109 -0.8339
 9055TIP3    H248581   5.119   4.376   1.413 -1.0105 -0.3552  1.0241
 9056TIP3   OH248582   0.499   0.719   3.002  0.3587  0.3458 -0.0483
 9056TIP3    H148583   0.431   0.683   2.945 -0.3089  0.4832  0.6423
 9056TIP3    H248584   0.576   0.664   2.985 -0.5779 -1.3529  0.8631
 9057TIP3   OH248585   3.904   6.580  17.052 -0.2224  0.1679  0.3661
 9057TIP3    H148586   3.826   6.536  17.084 -0.0355  0.4621  1.2602
 9057TIP3    H248587   3.873   6.664  17.018 -0.4288 -0.1741 -0.3201
 9058TIP3   OH248588   4.568   3.522  14.747 -0.2293 -0.1637 -0.1035
 9058TIP3    H148589   4.647   3.475  14.720 -0.5442 -0.9940  0.3912
 9058TIP3    H248590   4.543   3.573  14.669  0.5041 -0.2754 -0.4238
 9059TIP3   OH248591   0.118   4.025   0.268 -0.5583  0.1360  0.0986
 9059TIP3    H148592   0.211   4.024   0.247 -0.7124  0.2043 -0.6217
 9059TIP3    H248593   0.103   4.112   0.307 -0.1772 -0.1684  0.9355
 9060TIP3   OH248594   5.078   1.671  16.748 -0.1361 -0.1727  0.2739
 9060TIP3    H148595   5.168   1.699  16.765  0.2134 -1.3033  0.3807
 9060TIP3    H248596   5.024   1.748  16.768  0.8478  0.7331 -0.4252
 9061TIP3   OH248597   6.578   5.846   5.264  0.2752  0.2374 -0.0705
 9061TIP3    H148598   6.602   5.939   5.274  1.6560 -0.1383  0.3999
 9061TIP3    H248599   6.609   5.805   5.345 -0.8788 -0.5383 -0.0120
 9062TIP3   OH248600   4.494   6.042  16.773  0.1803 -0.0239  0.5474
 9062TIP3    H148601   4.557   6.079  16.835  0.5621 -0.6975  0.5709
 9062TIP3    H248602   4.534   5.959  16.745  1.5571  1.6100 -2.9863
 9063TIP3   OH248603   2.960   2.332  13.429  0.0730 -0.5870  0.1227
 9063TIP3    H148604   2.940   2.373  13.513  1.8046 -0.3533  0.4670
 9063TIP3    H248605   2.913   2.384  13.364  0.3586  0.4999  0.7704
 9064TIP3   OH248606   5.987   2.376   4.455  0.6230  0.7726 -0.0282
 9064TIP3    H148607   6.075   2.378   4.494  1.3137 -2.2411 -1.2340
 9064TIP3    H248608   5.928   2.390   4.530  2.0245  3.5334  0.7145
 9065TIP3   OH248609   1.709   0.379  15.786 -0.0328 -0.6826 -0.6040
 9065TIP3    H148610   1.732   0.403  15.696 -0.6873 -0.2044 -0.6483
 9065TIP3    H248611   1.692   0.463  15.829  0.7464 -0.8701  0.1006
 9066TIP3   OH248612   1.437   2.336   2.619 -0.0672 -0.3998  0.4830
 9066TIP3    H148613   1.424   2.429   2.602  0.3014 -0.2247  1.1213
 9066TIP3    H248614   1.400   2.292   2.542  0.5371  0.3045 -0.2284
 9067TIP3   OH248615   0.463   3.023  13.305 -0.5237 -0.5612  0.3945
 9067TIP3    H148616   0.430   3.008  13.394  1.0702  0.1911  1.1595
 9067TIP3    H248617   0.501   2.939  13.279  2.8073  0.1646  2.2013
 9068TIP3   OH248618   3.481   0.031  16.082  0.4050  0.4212  0.0814
 9068TIP3    H148619   3.490  -0.021  16.161  0.0227 -0.2361 -0.2973
 9068TIP3    H248620   3.413   0.095  16.103 -0.2242 -0.2256  0.0457
 9069TIP3   OH248621   6.502   4.357  14.240  0.2416  0.1039 -0.0862
 9069TIP3    H148622   6.540   4.361  14.153  1.1078  0.0944  0.2847
 9069TIP3    H248623   6.575   4.335  14.298 -0.7191 -2.2023  0.3764
 9070TIP3   OH248624   5.844   3.637   5.254 -0.5307 -0.8840  0.6855
 9070TIP3    H148625   5.830   3.551   5.294 -0.8326 -0.9815  0.3798
 9070TIP3    H248626   5.859   3.696   5.328 -1.7965 -0.9194  0.9978
 9071TIP3   OH248627   0.725   1.372   4.696  0.2851 -0.4282  0.0642
 9071TIP3    H148628   0.674   1.353   4.617  0.4181 -1.9668  0.3226
 9071TIP3    H248629   0.681   1.447   4.736 -0.4297 -0.3249 -0.8956
 9072TIP3   OH248630   3.400   5.869   0.578 -0.0749  0.8400  0.3584
 9072TIP3    H148631   3.400   5.960   0.608  0.0461  1.0628 -0.2834
 9072TIP3    H248632   3.329   5.828   0.626 -1.2754  1.7176 -0.5747
 9073TIP3   OH248633   6.123   2.822  16.148 -0.6060 -0.9005 -0.3904
 9073TIP3    H148634   6.171   2.788  16.072  0.9832  0.9590 -0.2877
 9073TIP3    H248635   6.181   2.804  16.222 -1.1332 -0.6972  0.0741
 9074TIP3   OH248636   1.482   3.143  13.175 -0.1760  0.3551 -0.3771
 9074TIP3    H148637   1.485   3.227  13.221 -0.8460  0.5729 -0.7347
 9074TIP3    H248638   1.392   3.135  13.143  0.1021 -0.1181 -1.0645
 9075TIP3   OH248639   3.544   0.250  15.645 -0.2523 -0.1391  0.3457
 9075TIP3    H148640   3.494   0.298  15.710  0.0672 -0.2051  0.6424
 9075TIP3    H248641   3.630   0.236  15.685  0.2105  0.4811 -0.3856
 9076TIP3   OH248642   2.658   1.271   5.827  0.3367  0.1445  0.1758
 9076TIP3    H148643   2.729   1.246   5.886  0.3182  0.7764  0.4779
 9076TIP3    H248644   2.592   1.203   5.838  0.6098 -0.0838  0.4007
 9077TIP3   OH248645   1.457   1.686  16.910 -0.4710  0.3146 -0.2153
 9077TIP3    H148646   1.386   1.644  16.862 -0.8207  1.4428 -0.7076
 9077TIP3    H248647   1.510   1.613  16.942 -1.7398 -0.5510  0.0130
 9078TIP3   OH248648   1.847   0.570   3.402  0.0091  0.3989  0.0093
 9078TIP3    H148649   1.941   0.548   3.401 -0.1880 -0.5655 -1.6702
 9078TIP3    H248650   1.846   0.666   3.398  0.9955  0.3883 -2.5278
 9079TIP3   OH248651   2.312   4.521  15.375  0.6272  0.0800  0.0373
 9079TIP3    H148652   2.297   4.426  15.365  1.7711 -0.0442 -0.6336
 9079TIP3    H248653   2.301   4.556  15.287  2.2360  0.2537 -0.1266
 9080TIP3   OH248654   0.638   6.205   4.531  0.2184  0.0959  0.5908
 9080TIP3    H148655   0.706   6.236   4.590 -0.0558 -0.0137  0.9707
 9080TIP3    H248656   0.680   6.200   4.445  0.6306  0.2158  0.7856
 9081TIP3   OH248657   1.239   6.241  13.317 -0.5488  0.5459 -0.1336
 9081TIP3    H148658   1.325   6.276  13.338 -0.7075  1.2755 -0.6293
 9081TIP3    H248659   1.230   6.254  13.222 -1.1908  0.4728 -0.0921
 9082TIP3   OH248660   1.480   5.214  11.770  0.1331 -0.7511  0.0713
 9082TIP3    H148661   1.445   5.217  11.681  1.7883  2.7678 -0.6312
 9082TIP3    H248662   1.572   5.188  11.758  0.3292 -0.3895  0.7798
 9083TIP3   OH248663   0.679   0.225  15.300  0.1218 -0.3270 -0.1981
 9083TIP3    H148664   0.753   0.241  15.241  0.2949  0.0243  0.1156
 9083TIP3    H248665   0.660   0.132  15.288  1.0287 -0.5735  0.1960
 9084TIP3   OH248666   4.564   4.280   1.827 -0.6540 -0.0822 -0.3875
 9084TIP3    H148667   4.643   4.304   1.779  0.0071  0.5674  0.9747
 9084TIP3    H248668   4.496   4.336   1.791 -0.0589  0.7635 -0.2247
 9085TIP3   OH248669   1.970   5.139   0.191 -0.8916 -0.0424 -0.0290
 9085TIP3    H148670   2.041   5.097   0.142  1.9984  0.9825  2.9393
 9085TIP3    H248671   1.917   5.066   0.223 -0.3028 -0.9405 -1.0148
 9086TIP3   OH248672   0.208   6.308  16.311 -0.1826 -0.0183 -0.6993
 9086TIP3    H148673   0.246   6.245  16.371 -0.4088 -0.4152 -0.9679
 9086TIP3    H248674   0.116   6.315  16.337 -0.4693 -0.7489 -1.4403
 9087TIP3   OH248675   5.327   5.852   0.072  0.3355  0.1623  0.2352
 9087TIP3    H148676   5.345   5.938   0.111  0.7310  0.4322 -0.5104
 9087TIP3    H248677   5.329   5.869  -0.023  1.6118 -0.8997  0.0470
 9088TIP3   OH248678   1.871   4.896  15.422 -0.0302  0.0312 -0.6004
 9088TIP3    H148679   1.948   4.947  15.448 -1.9314  2.3062  1.1985
 9088TIP3    H248680   1.814   4.960  15.380 -1.7064 -1.0866 -0.1368
 9089TIP3   OH248681   0.848   5.596   5.870 -0.8498 -0.3347  0.1436
 9089TIP3    H148682   0.909   5.633   5.934 -1.1780  0.0741  0.2228
 9089TIP3    H248683   0.765   5.641   5.887 -1.7522 -2.2863  1.3801
 9090TIP3   OH248684   3.588   0.124   5.764  0.2155  0.1433  0.4726
 9090TIP3    H148685   3.524   0.193   5.748  0.1916  0.5942  2.3689
 9090TIP3    H248686   3.547   0.067   5.829 -0.4930 -2.7151 -2.2211
 9091TIP3   OH248687   4.776   1.824  11.230  0.0807 -0.1824 -0.3971
 9091TIP3    H148688   4.845   1.820  11.164 -0.6135 -0.3542 -1.1443
 9091TIP3    H248689   4.698   1.790  11.184 -0.7375  0.9739  0.0873
 9092TIP3   OH248690   3.783   4.448   3.839 -0.1585 -0.0484  0.4905
 9092TIP3    H148691   3.869   4.432   3.878 -0.7364 -1.0232  1.4274
 9092TIP3    H248692   3.731   4.485   3.910 -1.0141 -1.1450  0.4661
 9093TIP3   OH248693   5.156   6.373   6.428 -0.1057  0.8175  0.3298
 9093TIP3    H148694   5.202   6.452   6.456 -0.6559  0.2243  3.2608
 9093TIP3    H248695   5.191   6.304   6.483 -2.0470 -0.3036  0.2448
 9094TIP3   OH248696   3.886   6.217  16.954  0.2802 -0.0452  0.1134
 9094TIP3    H148697   3.928   6.273  16.890 -1.1350  0.3333 -0.5216
 9094TIP3    H248698   3.798   6.253  16.964  0.2291 -0.5229  1.7485
 9095TIP3   OH248699   5.536   0.689   1.872  0.2816 -0.4736 -0.5887
 9095TIP3    H148700   5.571   0.646   1.794 -0.1461 -2.9127  0.4555
 9095TIP3    H248701   5.443   0.663   1.873 -0.3753  1.6763 -0.5984
 9096TIP3   OH248702   0.105   0.811   2.369 -0.2811 -0.5408 -0.1285
 9096TIP3    H148703   0.029   0.754   2.357  0.3176 -1.3683 -0.0327
 9096TIP3    H248704   0.116   0.854   2.284 -2.3647  1.5264  0.5394
 9097TIP3   OH248705   5.959   0.102  14.351 -0.2910  0.4864  0.4619
 9097TIP3    H148706   5.975   0.009  14.333  0.0680  0.5911  0.2285
 9097TIP3    H248707   5.938   0.139  14.265  0.4305  0.7916  0.4060
 9098TIP3   OH248708   3.392   1.071   0.495  0.2628  0.3312  0.2743
 9098TIP3    H148709   3.363   1.070   0.586 -1.9769  0.0581 -0.3820
 9098TIP3    H248710   3.353   0.992   0.456  3.2849 -1.0024 -0.3816
 9099TIP3   OH248711   6.760   0.508   5.857 -0.4568 -0.4148 -0.0069
 9099TIP3    H148712   6.811   0.546   5.786 -0.8383  0.5522  0.2183
 9099TIP3    H248713   6.797   0.545   5.937 -2.5925  1.7662  0.0888
 9100TIP3   OH248714   2.288   5.799  13.127  0.3386 -0.5354 -0.3605
 9100TIP3    H148715   2.310   5.872  13.185 -0.7605  0.6225 -1.3301
 9100TIP3    H248716   2.214   5.756  13.170 -0.4416  0.2893 -0.8487
 9101TIP3   OH248717   2.550   3.550  12.551  0.9837 -0.4005  0.1860
 9101TIP3    H148718   2.583   3.531  12.463  1.6860 -0.2524  0.4084
 9101TIP3    H248719   2.616   3.608  12.589 -0.2788  1.1639  0.1120
 9102TIP3   OH248720   4.399   4.221  17.052 -0.2161  0.0795  0.4294
 9102TIP3    H148721   4.378   4.137  17.093  1.6505  0.1264  1.5974
 9102TIP3    H248722   4.342   4.225  16.976  0.2523 -2.6729 -0.1840
 9103TIP3   OH248723   1.500   6.236   3.549 -0.1098 -0.4115  0.1225
 9103TIP3    H148724   1.552   6.263   3.473 -0.2064 -0.5630  0.0012
 9103TIP3    H248725   1.556   6.175   3.596 -0.7689 -1.8621 -0.8860
 9104TIP3   OH248726   2.225   2.685   2.675 -0.2552 -0.0480  0.3929
 9104TIP3    H148727   2.234   2.745   2.750 -0.1002  0.3080  0.0927
 9104TIP3    H248728   2.277   2.609   2.700 -0.8165 -0.2472  0.9700
 9105TIP3   OH248729   2.634   3.868  11.634 -0.0718 -0.3514 -0.1993
 9105TIP3    H148730   2.699   3.928  11.671 -1.1372 -0.1523  1.4636
 9105TIP3    H248731   2.675   3.781  11.640  0.6282 -0.0628 -0.6277
 9106TIP3   OH248732   1.501   1.785   2.039 -0.8051 -0.0884 -0.1973
 9106TIP3    H148733   1.512   1.702   1.992  0.7668  0.1046 -0.2140
 9106TIP3    H248734   1.426   1.826   1.996 -0.5676 -0.7638 -1.3114
 9107TIP3   OH248735   5.729   0.820   1.313 -0.6458 -0.0151 -0.0716
 9107TIP3    H148736   5.749   0.826   1.220  0.4494 -1.0113  0.0817
 9107TIP3    H248737   5.639   0.850   1.320 -0.5893  0.5300 -1.3832
 9108TIP3   OH248738   3.127   3.403   0.465  0.0740  0.5110 -0.2938
 9108TIP3    H148739   3.215   3.378   0.437  0.5907 -0.2030  1.8262
 9108TIP3    H248740   3.105   3.479   0.409  1.1609 -0.5384 -2.2600
 9109TIP3   OH248741   1.483   4.374   1.493 -0.2774 -0.3832 -0.5517
 9109TIP3    H148742   1.515   4.436   1.426 -0.0784 -0.0096 -0.1155
 9109TIP3    H248743   1.527   4.402   1.573 -1.0844 -0.3746 -0.1090
 9110TIP3   OH248744   5.424   5.495  15.707 -0.6600  0.0177  0.1976
 9110TIP3    H148745   5.488   5.560  15.737 -2.2483  1.9294 -0.3810
 9110TIP3    H248746   5.422   5.504  15.612 -1.9876  0.2140  0.2225
 9111TIP3   OH248747   1.152   3.676  14.749 -0.0929  0.2874 -0.4053
 9111TIP3    H148748   1.068   3.722  14.746 -0.0182  0.5008  0.5004
 9111TIP3    H248749   1.139   3.598  14.695 -0.5940  0.7637 -0.9860
 9112TIP3   OH248750   0.641   4.859  13.696 -0.6349  0.0382  0.2541
 9112TIP3    H148751   0.663   4.906  13.776  0.6167 -1.1295  0.6307
 9112TIP3    H248752   0.589   4.922  13.645  1.0727  1.8872  0.6520
 9113TIP3   OH248753   6.152   2.323  15.574  0.2934  0.1372 -0.2291
 9113TIP3    H148754   6.152   2.419  15.575  1.1726  0.1571 -0.8817
 9113TIP3    H248755   6.081   2.299  15.513  0.1297  0.3708 -0.1315
 9114TIP3   OH248756   4.073   1.886   2.144  0.0161 -0.2637  0.1597
 9114TIP3    H148757   4.093   1.979   2.151  0.9518 -0.2657 -1.8529
 9114TIP3    H248758   4.155   1.842   2.164 -0.1058 -0.6012 -0.0765
 9115TIP3   OH248759   1.514   3.516  14.921  0.4602  0.2534 -0.1693
 9115TIP3    H148760   1.561   3.583  14.871 -0.3649  0.7364 -0.3054
 9115TIP3    H248761   1.445   3.564  14.966 -1.1256 -0.7042 -1.4742
 9116TIP3   OH248762   5.437   0.157  11.933  0.7562  0.1536  0.2367
 9116TIP3    H148763   5.475   0.242  11.912 -0.2970  0.9079  1.2251
 9116TIP3    H248764   5.348   0.177  11.962  0.6062 -1.2542  0.8414
 9117TIP3   OH248765   3.223   2.551  16.769 -0.9050  0.5595  0.1085
 9117TIP3    H148766   3.160   2.599  16.715 -1.3924 -0.0382  0.1238
 9117TIP3    H248767   3.169   2.488  16.817 -0.0413 -1.9658 -1.9893
 9118TIP3   OH248768   0.436   6.352  13.516  0.2062 -0.7108 -0.1527
 9118TIP3    H148769   0.431   6.368  13.421 -0.0876 -1.9698 -0.3688
 9118TIP3    H248770   0.396   6.429  13.555 -0.5152 -0.5787 -1.0976
 9119TIP3   OH248771   4.280   4.465   2.652 -0.4210  0.3618  0.4995
 9119TIP3    H148772   4.345   4.407   2.613  0.4586  0.7219  1.3993
 9119TIP3    H248773   4.303   4.469   2.745 -3.2677 -1.5743  1.4356
 9120TIP3   OH248774   5.944   3.249  12.154 -0.1310  0.2814 -0.2713
 9120TIP3    H148775   5.978   3.161  12.133  0.0447  0.6350 -1.5994
 9120TIP3    H248776   5.919   3.285  12.069 -1.0593  1.1823  0.3624
 9121TIP3   OH248777   5.556   0.902   2.686  0.1964 -0.3326  0.0354
 9121TIP3    H148778   5.471   0.873   2.650  0.6481 -1.2467 -0.3210
 9121TIP3    H248779   5.618   0.885   2.616  0.6010  0.9379  0.0537
 9122TIP3   OH248780   0.721   3.232   1.580 -0.3839  0.1494  0.4181
 9122TIP3    H148781   0.722   3.234   1.485 -0.9523  0.3037  0.4084
 9122TIP3    H248782   0.669   3.308   1.605 -1.1898 -0.5110  0.8123
 9123TIP3   OH248783   3.568   1.198  11.436 -0.8604  0.0959  0.1861
 9123TIP3    H148784   3.582   1.148  11.356 -0.8789 -1.1117  0.9003
 9123TIP3    H248785   3.569   1.131  11.506  3.0766  1.3648  1.6607
 9124TIP3   OH248786   0.434   5.052  12.303 -0.0243  0.0203 -0.4469
 9124TIP3    H148787   0.450   5.136  12.347  0.4503  0.1120 -0.7920
 9124TIP3    H248788   0.507   5.042  12.242 -0.0477 -0.6689 -0.3747
 9125TIP3   OH248789   4.324   3.608  11.634 -0.0344  0.0253 -0.0165
 9125TIP3    H148790   4.304   3.700  11.616 -0.4131  0.0361  0.4310
 9125TIP3    H248791   4.399   3.611  11.692 -0.7053  0.0982  0.8720
 9126TIP3   OH248792   3.890   6.695   2.527 -0.2459  0.1659  0.0174
 9126TIP3    H148793   3.863   6.681   2.436 -2.8519 -0.1326  0.7543
 9126TIP3    H248794   3.919   6.608   2.556  0.7016  0.2843 -0.5258
 9127TIP3   OH248795   0.930   1.577   0.386 -0.1453  0.2150  0.3754
 9127TIP3    H148796   0.989   1.546   0.319 -1.6539 -0.7448 -0.5695
 9127TIP3    H248797   0.955   1.530   0.465  0.5608  0.0834  0.0739
 9128TIP3   OH248798   3.653   2.107  11.851  0.3471  0.7652  0.0927
 9128TIP3    H148799   3.668   2.117  11.945  0.9434 -0.9426  0.2057
 9128TIP3    H248800   3.738   2.127  11.811  1.3788 -2.6248  0.2802
 9129TIP3   OH248801   3.807   6.180   4.206  0.2719  0.8495  0.5935
 9129TIP3    H148802   3.869   6.222   4.266 -0.1385  2.4714 -0.0670
 9129TIP3    H248803   3.736   6.149   4.262 -0.5405  3.1309  0.9473
 9130TIP3   OH248804   3.293   2.787   2.995 -0.3845 -0.4830  0.0261
 9130TIP3    H148805   3.380   2.762   3.026 -0.4782 -0.0606  0.6479
 9130TIP3    H248806   3.233   2.754   3.062 -0.8373 -2.0169 -1.0902
 9131TIP3   OH248807   1.166   3.795   3.920 -0.4007 -0.7276  0.3252
 9131TIP3    H148808   1.191   3.758   3.835 -0.5436 -0.3477  0.1146
 9131TIP3    H248809   1.204   3.883   3.919  0.3986 -1.0477  1.0393
 9132TIP3   OH248810   4.172   5.913  10.527 -0.7437 -0.2572 -0.1158
 9132TIP3    H148811   4.207   5.899  10.438  1.8252  0.2145  0.7317
 9132TIP3    H248812   4.219   5.848  10.580 -3.0910 -1.3175  0.7725
 9133TIP3   OH248813   3.144   3.752  14.399 -0.1422  0.0085 -0.2234
 9133TIP3    H148814   3.210   3.817  14.374 -1.0281  1.0169 -0.0133
 9133TIP3    H248815   3.114   3.714  14.317 -0.0788  0.3240 -0.3915
 9134TIP3   OH248816   3.614   2.444   1.042  0.2452  0.0726 -0.0425
 9134TIP3    H148817   3.552   2.480   1.105  2.6261  1.6877  1.5336
 9134TIP3    H248818   3.679   2.398   1.095  0.3934 -1.7115 -1.6315
 9135TIP3   OH248819   0.919   0.681   4.159 -0.0301  0.5849  0.2993
 9135TIP3    H148820   0.931   0.733   4.238  0.7652 -0.3583  0.8332
 9135TIP3    H248821   0.969   0.601   4.176 -0.3858  0.0881 -0.8977
 9136TIP3   OH248822   2.326   0.842  15.334  0.5279  0.5832 -0.5640
 9136TIP3    H148823   2.343   0.918  15.390  1.1430  0.4342 -0.5486
 9136TIP3    H248824   2.273   0.784  15.389  1.3833  0.3015 -0.0162
 9137TIP3   OH248825   5.634   1.189   4.257 -0.1188  0.1102  0.4963
 9137TIP3    H148826   5.639   1.263   4.317  1.0146  0.9814 -0.6201
 9137TIP3    H248827   5.726   1.169   4.237 -0.4052 -1.5965  0.7544
 9138TIP3   OH248828   3.161   3.665   5.934  0.2968 -0.2784 -0.4676
 9138TIP3    H148829   3.098   3.706   5.875 -0.5990 -1.0602 -0.0860
 9138TIP3    H248830   3.244   3.707   5.914 -0.4716  1.2562 -0.5231
 9139TIP3   OH248831   4.352   0.344   0.236 -0.2396 -0.1152  0.0410
 9139TIP3    H148832   4.282   0.334   0.300  0.0860  2.2925  0.8555
 9139TIP3    H248833   4.314   0.394   0.164  0.7135  1.6953  0.7347
 9140TIP3   OH248834   5.463   5.726  11.576  0.5516 -0.1807 -0.3367
 9140TIP3    H148835   5.424   5.734  11.663  1.9464  1.5190  0.2031
 9140TIP3    H248836   5.550   5.689  11.592  1.8944  2.6192 -0.6034
 9141TIP3   OH248837   6.746   0.343  12.621  0.5057  0.1896  0.1845
 9141TIP3    H148838   6.724   0.425  12.577  0.7916  1.2185  1.8409
 9141TIP3    H248839   6.841   0.337  12.614  0.4496 -0.1992 -0.2584
 9142TIP3   OH248840   2.124   1.418   3.576  0.2748  0.4324 -0.3998
 9142TIP3    H148841   2.048   1.404   3.633 -1.2235  0.1193 -2.3899
 9142TIP3    H248842   2.087   1.438   3.490  2.4623  0.9607 -1.2826
 9143TIP3   OH248843   4.062   0.519   4.966  0.1933 -0.6295  0.0359
 9143TIP3    H148844   4.020   0.530   4.880 -1.6048 -0.4307  0.8985
 9143TIP3    H248845   4.156   0.520   4.947 -0.1517  0.2211 -1.8356
 9144TIP3   OH248846   2.823   6.669   9.820  0.4698  0.5718 -0.0005
 9144TIP3    H148847   2.898   6.686   9.877  0.4054  0.5058  0.1043
 9144TIP3    H248848   2.762   6.739   9.840  0.3452  0.4090  0.1872
 9145TIP3   OH248849   2.518   3.521   3.039 -0.3643 -0.1734  0.0175
 9145TIP3    H148850   2.515   3.563   2.953 -1.1819  0.5389  0.3776
 9145TIP3    H248851   2.473   3.437   3.027 -1.2653  0.3141 -0.0517
 9146TIP3   OH248852   5.055   4.928   3.572  0.1133  0.0791  0.1818
 9146TIP3    H148853   5.000   5.005   3.562  0.0365  0.2560  1.7338
 9146TIP3    H248854   4.995   4.854   3.560  0.0435  0.2545 -0.5903
 9147TIP3   OH248855   6.116   6.507  15.981  0.6523 -0.3556 -0.0882
 9147TIP3    H148856   6.076   6.436  16.031  0.9208  0.8941  2.0184
 9147TIP3    H248857   6.209   6.503  16.006  1.0115 -0.3971 -1.3925
 9148TIP3   OH248858   0.471   1.991   5.784 -0.2853  0.2413 -0.3551
 9148TIP3    H148859   0.510   2.010   5.870 -0.5974 -1.7590  0.2904
 9148TIP3    H248860   0.462   1.895   5.783 -0.8836  0.2776 -2.3770
 9149TIP3   OH248861   0.132   5.206   1.186 -0.0780  0.6427  0.0379
 9149TIP3    H148862   0.136   5.148   1.262  1.6518 -0.3004 -0.7208
 9149TIP3    H248863   0.111   5.148   1.112 -1.5189  1.5107 -0.2909
 9150TIP3   OH248864   3.652   5.433   4.885 -0.4285  0.6287  0.4404
 9150TIP3    H148865   3.587   5.363   4.874  1.7665 -1.3716 -1.0185
 9150TIP3    H248866   3.608   5.512   4.856 -1.7955 -0.8896 -1.9823
 9151TIP3   OH248867   1.151   5.733   2.358 -0.0513 -0.1316  0.1253
 9151TIP3    H148868   1.181   5.759   2.271  1.1816 -1.8223 -0.0075
 9151TIP3    H248869   1.224   5.751   2.416 -1.0029  1.3506  0.9409
 9152TIP3   OH248870   4.197   1.661  14.542 -0.3781 -0.7334 -0.0192
 9152TIP3    H148871   4.125   1.694  14.489  0.1157  1.2345  0.4471
 9152TIP3    H248872   4.155   1.626  14.620 -0.9352 -1.2592 -0.5483
 9153TIP3   OH248873   3.512   6.236   3.077 -0.1192  0.4752  0.0024
 9153TIP3    H148874   3.565   6.241   3.157  0.8678  0.6490 -0.6443
 9153TIP3    H248875   3.464   6.154   3.085 -0.8670  0.9916  1.2648
 9154TIP3   OH248876   0.494   0.244   1.474  0.0724  0.2130 -0.0611
 9154TIP3    H148877   0.489   0.319   1.414 -0.1838  1.0729  1.0200
 9154TIP3    H248878   0.588   0.231   1.488  0.1993 -0.7537 -1.5490
 9155TIP3   OH248879   3.105   6.800  12.285 -0.4912  0.3897  0.7483
 9155TIP3    H148880   3.082   6.727  12.342 -0.5473 -0.6217 -0.5394
 9155TIP3    H248881   3.197   6.787  12.263 -1.4436 -1.7653 -2.8276
 9156TIP3   OH248882   5.614   1.484   1.296  0.5633  0.1446  0.2763
 9156TIP3    H148883   5.576   1.401   1.323  1.3188  0.1656  1.4820
 9156TIP3    H248884   5.539   1.543   1.287 -0.0986 -0.8656 -1.5729
 9157TIP3   OH248885   2.844   3.365   5.747  0.4933 -0.1039 -0.0867
 9157TIP3    H148886   2.935   3.361   5.777 -0.0752 -0.6341  1.7383
 9157TIP3    H248887   2.803   3.429   5.805 -0.4946 -0.5508 -0.2690
 9158TIP3   OH248888   5.527   5.822   3.453  0.1520  0.2570 -0.1837
 9158TIP3    H148889   5.585   5.898   3.456 -0.3877  0.6764 -0.3012
 9158TIP3    H248890   5.563   5.762   3.519  0.5572  0.6268 -0.0653
 9159TIP3   OH248891   1.111   3.542   4.091 -0.0878 -0.1310 -0.4674
 9159TIP3    H148892   1.118   3.496   4.008 -2.2782 -1.6964  0.1165
 9159TIP3    H248893   1.127   3.474   4.157  2.0664  1.1719  0.4554
 9160TIP3   OH248894   3.587   0.339  14.827  0.7924  0.4799 -0.5711
 9160TIP3    H148895   3.501   0.321  14.866  0.0558  3.0221 -0.8641
 9160TIP3    H248896   3.642   0.267  14.857 -0.8683 -0.0404  1.4650
 9161TIP3   OH248897   4.960   0.782   1.508 -0.0532  0.0594 -0.3365
 9161TIP3    H148898   4.996   0.745   1.589  0.2480 -0.3762 -0.6677
 9161TIP3    H248899   4.866   0.764   1.514  0.2545 -2.0201 -1.1299
 9162TIP3   OH248900   2.810   0.291  13.931 -0.3945  0.4272 -0.8107
 9162TIP3    H148901   2.726   0.315  13.893 -0.2686  1.6262 -0.3758
 9162TIP3    H248902   2.806   0.196  13.941 -2.0332  0.5616 -0.0091
 9163TIP3   OH248903   0.543   2.252  17.019 -0.7832  0.5035 -0.3631
 9163TIP3    H148904   0.551   2.311  16.943  0.0264 -0.5564 -1.1273
 9163TIP3    H248905   0.454   2.266  17.051 -0.5814  2.2124 -0.4612
 9164TIP3   OH248906   1.079   6.486  13.997 -0.6608  0.4457  0.2804
 9164TIP3    H148907   1.012   6.427  14.033 -0.9708  0.6643  0.0608
 9164TIP3    H248908   1.127   6.431  13.935 -0.1401  0.0738  0.9972
 9165TIP3   OH248909   2.517   3.776  16.402 -0.2717  0.6863  0.1290
 9165TIP3    H148910   2.566   3.703  16.440  0.3380  0.4851 -1.0188
 9165TIP3    H248911   2.509   3.839  16.474 -0.2678 -0.2412  0.9542
 9166TIP3   OH248912   6.414   4.673  12.654 -0.0562  0.1472  0.2858
 9166TIP3    H148913   6.484   4.672  12.720 -0.6519 -1.7279  0.9419
 9166TIP3    H248914   6.336   4.702  12.702 -0.4684 -1.1202  0.4154
 9167TIP3   OH248915   1.477   4.328   0.211  0.2626  0.0015 -0.0194
 9167TIP3    H148916   1.414   4.287   0.152  0.2056  0.0046  0.0392
 9167TIP3    H248917   1.423   4.376   0.274  0.2849 -0.9836  0.7594
 9168TIP3   OH248918   5.251   5.350   5.165 -0.4924 -0.7559 -1.1690
 9168TIP3    H148919   5.285   5.422   5.217  0.2549 -1.4584 -0.6656
 9168TIP3    H248920   5.173   5.385   5.123  0.2845  0.5827 -1.5415
 9169TIP3   OH248921   2.003   3.093  14.300 -0.6255 -0.1948 -0.3515
 9169TIP3    H148922   2.071   3.144  14.255  0.2432 -0.7063  0.3657
 9169TIP3    H248923   2.039   3.076  14.387 -1.9153  0.0112  0.2439
 9170TIP3   OH248924   5.637   3.019   1.972 -0.2718  0.5708  0.0624
 9170TIP3    H148925   5.607   2.952   2.034  1.1534  0.4213  0.6341
 9170TIP3    H248926   5.557   3.060   1.940 -1.0847 -0.0767  1.2046
 9171TIP3   OH248927   0.743   2.084   3.375  0.6771 -0.4974 -0.1443
 9171TIP3    H148928   0.717   2.099   3.466 -1.1879  0.9160 -0.8611
 9171TIP3    H248929   0.714   1.994   3.356  0.0551 -0.4038  0.3315
 9172TIP3   OH248930   0.869   5.818   4.947  0.5242 -0.1679 -0.4333
 9172TIP3    H148931   0.862   5.723   4.948  1.6746 -0.2827 -1.1805
 9172TIP3    H248932   0.889   5.842   5.037  2.7942 -0.8995 -0.6792
 9173TIP3   OH248933   0.840   0.137   5.247 -0.0230  0.4689 -0.0287
 9173TIP3    H148934   0.772   0.077   5.278  0.5957 -0.2573 -0.0447
 9173TIP3    H248935   0.800   0.223   5.252 -0.1214  0.3487  2.3669
 9174TIP3   OH248936   5.508   2.419  11.165  0.3673 -0.0128  0.3567
 9174TIP3    H148937   5.580   2.480  11.149  0.7406 -0.4436  0.3669
 9174TIP3    H248938   5.431   2.462  11.128  0.3722  1.0550  1.5365
 9175TIP3   OH248939   2.001   5.055  14.997 -0.1670  0.1424  0.2125
 9175TIP3    H148940   1.979   5.148  14.998  0.2298  0.2409  0.3223
 9175TIP3    H248941   1.919   5.010  14.981 -0.3129  0.5273 -0.1301
 9176TIP3   OH248942   4.650   2.877  13.508  0.7483 -0.4377  0.8066
 9176TIP3    H148943   4.668   2.965  13.473  0.9292  0.1013  2.1873
 9176TIP3    H248944   4.559   2.861  13.486  0.8136 -0.0573  0.2289
 9177TIP3   OH248945   6.301   0.345  13.904  0.7154 -0.1342 -0.2789
 9177TIP3    H148946   6.358   0.329  13.830 -0.7581 -2.0806 -1.0649
 9177TIP3    H248947   6.318   0.436  13.928  1.6201  0.3932 -2.6636
 9178TIP3   OH248948   3.634   6.258  12.464 -0.1371  0.1538 -0.0368
 9178TIP3    H148949   3.702   6.325  12.464  1.3123 -1.2589 -0.6831
 9178TIP3    H248950   3.620   6.238  12.557 -1.2119  1.9010  0.2224
 9179TIP3   OH248951   0.511   4.442   3.316 -0.4174  0.1558 -0.8341
 9179TIP3    H148952   0.583   4.421   3.374 -1.1354 -3.2948 -0.9928
 9179TIP3    H248953   0.549   4.502   3.251  2.3368 -1.5778 -0.9664
 9180TIP3   OH248954   3.222   3.471   4.736 -0.3759  0.4589 -0.3002
 9180TIP3    H148955   3.191   3.423   4.659  0.0008 -1.0576  0.4662
 9180TIP3    H248956   3.159   3.450   4.804  1.1453 -0.9862  0.7176
 9181TIP3   OH248957   6.632   4.981  12.066  0.0825 -0.4855  0.1887
 9181TIP3    H148958   6.578   4.915  12.109 -0.5106 -1.5383 -2.0655
 9181TIP3    H248959   6.629   5.057  12.125 -4.3526 -0.2392 -0.0695
 9182TIP3   OH248960   4.885   1.423  13.390  0.1398 -0.1012 -0.0362
 9182TIP3    H148961   4.823   1.475  13.338  3.2514  2.3190 -1.7176
 9182TIP3    H248962   4.914   1.354  13.331  1.4037  0.8014 -0.5282
 9183TIP3   OH248963   2.227   4.351   3.955  0.1392 -0.3496  0.1770
 9183TIP3    H148964   2.183   4.316   4.033  1.1636 -1.5618  0.2435
 9183TIP3    H248965   2.223   4.446   3.966  0.3491 -0.4971  1.7756
 9184TIP3   OH248966   3.792   4.021  16.105 -0.1977 -0.1151 -0.2333
 9184TIP3    H148967   3.767   3.929  16.103 -0.3031 -0.1964  1.9559
 9184TIP3    H248968   3.755   4.054  16.187  1.5541  1.3546  0.0337
 9185TIP3   OH248969   2.272   4.402  12.590 -0.2672 -0.2749  0.2508
 9185TIP3    H148970   2.318   4.321  12.569  0.3079 -0.3431  1.6579
 9185TIP3    H248971   2.212   4.378  12.660 -0.1509  0.4796  0.6252
 9186TIP3   OH248972   3.671   1.414   1.089 -0.3042  0.4735  0.5381
 9186TIP3    H148973   3.627   1.380   1.168 -0.4530  0.0521  0.2786
 9186TIP3    H248974   3.607   1.472   1.049  0.4004  2.1034  1.6571
 9187TIP3   OH248975   0.466   4.877  13.104 -0.0137 -0.4319 -0.2164
 9187TIP3    H148976   0.374   4.857  13.119  0.3252 -0.8641  1.4747
 9187TIP3    H248977   0.511   4.794  13.116  0.5968 -0.2690 -1.2469
 9188TIP3   OH248978   4.629   3.471  11.109  0.3400 -0.2210 -0.2283
 9188TIP3    H148979   4.550   3.458  11.057  0.4669 -0.3148 -0.3999
 9188TIP3    H248980   4.625   3.563  11.137  0.2917 -0.1588 -0.4369
 9189TIP3   OH248981   2.058   4.550   0.343  0.4436 -0.4306 -0.2274
 9189TIP3    H148982   2.048   4.529   0.250 -3.9076  1.4135 -0.4038
 9189TIP3    H248983   2.012   4.480   0.388  1.0874 -0.4208  0.4650
 9190TIP3   OH248984   2.914   6.399  14.071  0.0187  0.6649  0.1720
 9190TIP3    H148985   2.975   6.370  14.139 -1.3452  1.3352  1.7259
 9190TIP3    H248986   2.857   6.323  14.056  1.1622  0.0261 -1.3079
 9191TIP3   OH248987   6.122   5.491   2.399  0.6316 -0.7396 -0.4867
 9191TIP3    H148988   6.031   5.511   2.380  0.5127 -0.6293  0.1731
 9191TIP3    H248989   6.147   5.425   2.334  0.1935 -0.4960 -0.8984
 9192TIP3   OH248990   2.991   0.233   5.809  0.4997 -0.2179 -0.2110
 9192TIP3    H148991   2.907   0.221   5.853  0.3961 -0.9383 -0.6046
 9192TIP3    H248992   3.055   0.192   5.868  0.6681  0.8067  0.3588
 9193TIP3   OH248993   0.002   2.070   4.143 -0.1444 -0.8837  0.0087
 9193TIP3    H148994  -0.073   2.085   4.085  0.4066 -0.0507 -0.5104
 9193TIP3    H248995   0.064   2.021   4.089  1.0031  1.1892 -0.6565
 9194TIP3   OH248996   0.413   2.972  11.413  0.4349 -0.0353  0.5071
 9194TIP3    H148997   0.473   2.961  11.339 -0.8717  1.0282 -0.7534
 9194TIP3    H248998   0.378   2.884  11.427  0.9136 -0.3088  0.0674
 9195TIP3   OH248999   1.596   4.687  11.468  0.1622  0.1918 -0.3481
 9195TIP3    H149000   1.585   4.681  11.373 -1.3152  0.7839 -0.2507
 9195TIP3    H249001   1.506   4.691  11.502  0.6070 -1.5774  1.2032
 9196TIP3   OH249002   6.265   3.312   1.579 -0.3403 -0.0404 -0.9610
 9196TIP3    H149003   6.193   3.284   1.636  0.2460  0.7279  0.2202
 9196TIP3    H249004   6.301   3.231   1.543 -1.9311 -0.4193 -1.7676
 9197TIP3   OH249005   4.047   3.537   4.684 -0.0016 -0.0751 -0.1203
 9197TIP3    H149006   3.954   3.551   4.667 -0.0552 -0.4729 -0.1485
 9197TIP3    H249007   4.069   3.455   4.638  0.1574 -0.4523  0.6213
 9198TIP3   OH249008   6.594   3.871  11.187  0.2134  0.2625 -0.7168
 9198TIP3    H149009   6.505   3.881  11.223  0.1627  0.0417 -0.7735
 9198TIP3    H249010   6.614   3.955  11.147 -0.6820 -0.2142 -2.2645
 9199TIP3   OH249011   0.275   1.569  11.135  0.1759  0.5086  0.0416
 9199TIP3    H149012   0.321   1.548  11.053  0.3551  0.4148  0.1667
 9199TIP3    H249013   0.321   1.646  11.168  0.5276  0.1452  0.3978
 9200TIP3   OH249014   0.086   6.136   3.595 -0.3906 -0.0997  0.1268
 9200TIP3    H149015   0.072   6.197   3.523  0.1417 -0.5172 -0.3353
 9200TIP3    H249016   0.178   6.147   3.618 -0.0587 -1.3358 -0.5285
 9201TIP3   OH249017   4.283   3.883   0.491 -0.2742 -0.3911 -0.4801
 9201TIP3    H149018   4.269   3.878   0.396 -0.5439  0.3815 -0.4858
 9201TIP3    H249019   4.292   3.791   0.518  0.2596 -0.6112 -1.3172
 9202TIP3   OH249020   2.230   3.197  16.238  0.4227 -0.3238  0.4678
 9202TIP3    H149021   2.313   3.245  16.237  0.1707  0.1113 -0.0079
 9202TIP3    H249022   2.164   3.264  16.257  0.4036 -1.0586  3.5370
 9203TIP3   OH249023   6.542   5.337  16.101 -0.1994  0.1784 -0.0798
 9203TIP3    H149024   6.484   5.320  16.175 -0.7050  0.7127 -0.3475
 9203TIP3    H249025   6.578   5.251  16.079  0.1114  0.0491  0.9090
 9204TIP3   OH249026   2.292   0.083   0.788 -0.8334  0.0749  0.2601
 9204TIP3    H149027   2.372   0.117   0.829 -2.5857  2.6970  1.8449
 9204TIP3    H249028   2.318   0.062   0.699  1.3645  2.2071  0.2838
 9205TIP3   OH249029   5.658   5.319  14.633 -0.3809 -0.1092  0.2039
 9205TIP3    H149030   5.592   5.338  14.566 -0.9696  0.1641  0.8541
 9205TIP3    H249031   5.651   5.391  14.696 -0.8104 -1.0786  1.3061
 9206TIP3   OH249032   6.635   2.514  11.769  0.2189 -0.1741 -0.0139
 9206TIP3    H149033   6.699   2.572  11.727 -0.6159  2.3671  1.9821
 9206TIP3    H249034   6.680   2.480  11.846 -0.6109  1.3679  1.2183
 9207TIP3   OH249035   4.955   6.821   1.345  0.2411  0.5215 -0.0683
 9207TIP3    H149036   5.004   6.773   1.279 -0.0625  0.2206 -0.0808
 9207TIP3    H249037   4.939   6.757   1.415  1.0370  0.9848  0.5555
 9208TIP3   OH249038   4.792   4.322   1.693  0.3189  0.0478 -0.2212
 9208TIP3    H149039   4.868   4.267   1.711  0.7747  0.9478  0.7318
 9208TIP3    H249040   4.773   4.307   1.600  2.7220  1.0428 -0.9670
 9209TIP3   OH249041   1.656   6.531   5.892  0.4109  0.0532 -0.1305
 9209TIP3    H149042   1.693   6.504   5.808 -0.4919 -0.1135 -0.4850
 9209TIP3    H249043   1.706   6.610   5.915  1.1555 -0.3099 -0.4604
 9210TIP3   OH249044   2.799   5.229  13.775  0.5817  0.0001  0.6255
 9210TIP3    H149045   2.884   5.193  13.748  1.0737  1.1467  0.6074
 9210TIP3    H249046   2.754   5.155  13.816  1.4365 -0.7235  0.2926
 9211TIP3   OH249047   5.114   6.066  12.801  0.1875  0.3918  0.2355
 9211TIP3    H149048   5.048   6.021  12.749 -0.2170 -0.1572  1.2027
 9211TIP3    H249049   5.196   6.022  12.778 -0.1948 -0.8205  1.1275
 9212TIP3   OH249050   1.647   6.436   3.401  0.2459  0.2634  0.3049
 9212TIP3    H149051   1.626   6.432   3.308 -2.3237  1.2805  0.7509
 9212TIP3    H249052   1.724   6.494   3.406  2.3668 -2.1863 -1.3250
 9213TIP3   OH249053   2.649   5.847  15.709 -0.6130  0.6169  0.6036
 9213TIP3    H149054   2.654   5.934  15.748  1.3403  1.6398 -1.6216
 9213TIP3    H249055   2.697   5.790  15.769  1.5234  1.9439  0.2645
 9214TIP3   OH249056   3.083   0.732   2.063 -0.3796 -0.6671  0.0216
 9214TIP3    H149057   3.157   0.718   2.122  0.5538 -0.7100 -1.1270
 9214TIP3    H249058   3.016   0.774   2.118  0.3840 -0.8694  1.1433
 9215TIP3   OH249059   0.531   5.598   3.990  0.5925  0.0714 -0.7060
 9215TIP3    H149060   0.595   5.650   4.040 -0.0355  0.8077 -0.6318
 9215TIP3    H249061   0.546   5.622   3.899 -0.3808  1.2408 -0.6005
 9216TIP3   OH249062   4.651   2.491  14.333  0.1305  0.4800 -0.1584
 9216TIP3    H149063   4.605   2.512  14.414 -0.2006 -0.5009 -0.0715
 9216TIP3    H249064   4.678   2.575  14.297  0.8640  0.8987  1.3068
 9217TIP3   OH249065   6.371   1.349  14.720 -0.7624 -0.0319  0.5696
 9217TIP3    H149066   6.355   1.277  14.781 -2.9645 -0.7511 -0.7381
 9217TIP3    H249067   6.330   1.320  14.638  0.9992  1.4215 -0.9016
 9218TIP3   OH249068   4.744   4.906  15.367  0.6655 -0.1607 -0.0717
 9218TIP3    H149069   4.760   4.883  15.275  1.7471 -1.4172  0.3942
 9218TIP3    H249070   4.731   4.821  15.410 -2.5776  0.4975  0.5077
 9219TIP3   OH249071   1.841   0.606   1.258 -0.3820 -0.0018  0.3508
 9219TIP3    H149072   1.931   0.582   1.238 -0.8309 -1.3605 -0.1608
 9219TIP3    H249073   1.790   0.527   1.240 -1.3611 -0.1226  3.1269
 9220TIP3   OH249074   3.652   5.809  13.510  0.5528  0.0928 -0.2241
 9220TIP3    H149075   3.628   5.870  13.580 -0.1537 -0.6554  0.2002
 9220TIP3    H249076   3.611   5.727  13.535  0.5435 -0.2683 -1.3699
 9221TIP3   OH249077   4.259   2.805  13.023 -0.2165  0.0101 -0.4296
 9221TIP3    H149078   4.279   2.727  13.073  0.3792  1.8104  2.3475
 9221TIP3    H249079   4.310   2.875  13.064 -0.8080  1.9266 -2.6905
 9222TIP3   OH249080   6.190   4.721   1.494  0.6599  0.3347 -0.2145
 9222TIP3    H149081   6.191   4.780   1.419  0.3723  2.2930  1.2250
 9222TIP3    H249082   6.099   4.695   1.504  0.7854 -0.3679 -0.8460
 9223TIP3   OH249083   4.690   6.745  16.638  0.0272 -0.0958 -0.0281
 9223TIP3    H149084   4.760   6.745  16.704  3.0220 -0.5163 -2.9006
 9223TIP3    H249085   4.674   6.837  16.620  1.7872  0.0465 -1.0918
 9224TIP3   OH249086   1.641   5.870   6.715 -0.0286 -0.0473 -0.7046
 9224TIP3    H149087   1.685   5.786   6.701 -0.3803 -0.2802 -0.4507
 9224TIP3    H249088   1.648   5.916   6.632  1.3527  0.2303 -0.4437
 9225TIP3   OH249089   1.291   3.254  11.721 -0.5445  0.1619 -0.1623
 9225TIP3    H149090   1.338   3.328  11.683 -1.8329  0.6009 -0.9424
 9225TIP3    H249091   1.220   3.293  11.771  0.0206 -0.4898  1.2218
 9226TIP3   OH249092   3.014   4.680   3.465 -0.6522 -0.7255 -0.5426
 9226TIP3    H149093   3.072   4.756   3.471  0.3888 -1.5763  0.6265
 9226TIP3    H249094   3.043   4.633   3.387 -0.6866 -0.4282 -0.7363
 9227TIP3   OH249095   6.569   0.912  13.107 -0.3121  0.2828 -0.2975
 9227TIP3    H149096   6.596   0.829  13.068  1.9177  1.0380 -0.5005
 9227TIP3    H249097   6.576   0.976  13.036  0.2447  1.0357  0.4196
 9228TIP3   OH249098   4.047   0.778  12.196  0.8598  0.3534  0.2643
 9228TIP3    H149099   4.077   0.758  12.285 -1.4466 -0.1563  0.9947
 9228TIP3    H249100   4.009   0.695  12.165  2.4315  0.2557 -1.5983
 9229TIP3   OH249101   2.062   2.647  14.713  0.1960 -0.6000 -0.8128
 9229TIP3    H149102   2.077   2.628  14.621 -0.8294 -0.8634 -0.9314
 9229TIP3    H249103   2.037   2.739  14.715 -1.5945 -1.0532 -1.0253
 9230TIP3   OH249104   4.144   2.318  16.983  0.3621 -0.4772  0.2843
 9230TIP3    H149105   4.103   2.384  16.926 -0.7285  0.0881  1.6582
 9230TIP3    H249106   4.094   2.238  16.966 -0.3983 -0.1489  0.8764
 9231TIP3   OH249107   3.332   3.265   5.979  0.5035  0.1478 -0.6342
 9231TIP3    H149108   3.268   3.205   5.941 -0.3323  1.0697 -0.7477
 9231TIP3    H249109   3.283   3.347   5.992  0.8714  0.0234  1.9932
 9232TIP3   OH249110   1.228   5.752   4.823 -0.3834  0.6882  0.5238
 9232TIP3    H149111   1.287   5.690   4.867 -0.7721  0.4990  0.7921
 9232TIP3    H249112   1.186   5.799   4.895 -1.2155  0.2040  0.3668
 9233TIP3   OH249113   3.264   5.431  14.935 -0.1395  0.0884  0.2197
 9233TIP3    H149114   3.356   5.449  14.954 -0.2597  1.6519 -0.5730
 9233TIP3    H249115   3.257   5.435  14.840 -1.3342  1.7812  0.3208
 9234TIP3   OH249116   4.219   0.748   3.720 -0.6140 -0.2462 -0.2974
 9234TIP3    H149117   4.179   0.708   3.798 -0.8522  2.1623  0.8887
 9234TIP3    H249118   4.307   0.710   3.716 -0.1245  0.5182  1.9464
 9235TIP3   OH249119   4.905   5.743  11.165  0.1814 -0.2230 -0.7699
 9235TIP3    H149120   4.980   5.786  11.124 -0.4877  0.1932 -1.6127
 9235TIP3    H249121   4.883   5.798  11.240  2.5966 -2.0032  1.4384
 9236TIP3   OH249122   3.686   1.005   4.714 -0.1613  0.1111 -0.0324
 9236TIP3    H149123   3.601   1.043   4.735 -0.0592  0.1704  0.2782
 9236TIP3    H249124   3.744   1.035   4.784 -0.4473 -1.9728  1.1941
 9237TIP3   OH249125   4.142   1.779  16.551  0.6515 -1.0507 -0.4057
 9237TIP3    H149126   4.071   1.733  16.597 -1.1575  1.5107 -0.4488
 9237TIP3    H249127   4.191   1.823  16.621 -0.8896  1.2195 -0.6796
 9238TIP3   OH249128   3.106   0.606  11.689  0.2690  0.3117 -0.1791
 9238TIP3    H149129   3.175   0.581  11.627 -0.3035  0.5080 -0.9169
 9238TIP3    H249130   3.081   0.525  11.732  0.0949  0.0265 -0.8124
 9239TIP3   OH249131   2.502   0.721   1.649  0.4944 -0.1044  0.7507
 9239TIP3    H149132   2.495   0.694   1.740  0.1978  1.2253  1.1492
 9239TIP3    H249133   2.417   0.699   1.611  0.6051 -0.6282  0.8015
 9240TIP3   OH249134   2.972   0.608   4.805  0.1939 -0.4202 -0.5531
 9240TIP3    H149135   2.925   0.672   4.752 -1.0793  0.0524  1.0579
 9240TIP3    H249136   2.930   0.613   4.891  1.5936 -1.7819  0.2571
 9241TIP3   OH249137   5.829   0.436   1.616  0.0696  0.3124  0.4940
 9241TIP3    H149138   5.790   0.354   1.645  1.5991 -0.6766 -0.1672
 9241TIP3    H249139   5.765   0.473   1.555  0.4103 -1.5878 -1.0877
 9242TIP3   OH249140   4.216   1.690   1.082  0.2401 -0.2888 -0.2781
 9242TIP3    H149141   4.231   1.636   1.160  1.6480 -0.3650 -0.5675
 9242TIP3    H249142   4.288   1.668   1.023  0.6173  1.5638 -0.5895
 9243TIP3   OH249143   1.575   2.950  16.099  0.0857  0.1504 -0.0833
 9243TIP3    H149144   1.671   2.946  16.101  0.1188 -0.0259 -1.3903
 9243TIP3    H249145   1.547   2.875  16.151  0.6866 -1.3040 -1.7541
 9244TIP3   OH249146   0.336   5.920  13.957 -0.2268 -0.2937  0.2797
 9244TIP3    H149147   0.259   5.976  13.945  0.2157  0.3045  0.1861
 9244TIP3    H249148   0.368   5.942  14.045  1.1086  1.0771 -0.5072
 9245TIP3   OH249149   1.133   5.428   4.508  0.2428 -0.1997 -0.7743
 9245TIP3    H149150   1.143   5.523   4.511  2.4263 -0.4129  0.8351
 9245TIP3    H249151   1.038   5.414   4.512 -0.0559  1.8770  0.8149
 9246TIP3   OH249152   6.268   3.835   3.070  0.0794 -0.1387  0.2623
 9246TIP3    H149153   6.363   3.831   3.083  0.0825 -0.1347  0.2419
 9246TIP3    H249154   6.232   3.771   3.131  0.2851 -2.1853 -1.6328
 9247TIP3   OH249155   5.988   0.658   0.540 -0.1522  0.3806  0.2939
 9247TIP3    H149156   5.972   0.752   0.532  0.2742  0.2829 -2.4586
 9247TIP3    H249157   5.968   0.622   0.454  1.5742 -1.7630  0.6984
 9248TIP3   OH249158   6.116   6.440  13.733 -0.1505 -0.3356  0.1513
 9248TIP3    H149159   6.021   6.430  13.735 -0.0039 -2.1293 -0.3699
 9248TIP3    H249160   6.130   6.529  13.700 -1.6359  0.8080  2.3918
 9249TIP3   OH249161   5.628   4.909  11.722 -0.2775 -0.0460 -0.3618
 9249TIP3    H149162   5.622   5.001  11.746 -1.1991  0.0221 -0.8122
 9249TIP3    H249163   5.541   4.886  11.691  0.3852 -0.5772 -1.9732
 9250TIP3   OH249164   1.028   5.918  11.946 -0.1975 -0.0281  0.1888
 9250TIP3    H149165   0.993   5.963  11.868  1.4398 -0.2651 -0.7344
 9250TIP3    H249166   1.087   5.982  11.986 -0.6165 -0.1020  0.9346
 9251TIP3   OH249167   3.052   0.612   3.987 -0.3243  0.2272  0.4638
 9251TIP3    H149168   3.113   0.637   3.917 -0.7808  1.9364  0.6242
 9251TIP3    H249169   3.108   0.575   4.056  0.5471  1.6258  0.5451
 9252TIP3   OH249170   1.348   4.734  16.859 -0.6478 -0.4809  0.0973
 9252TIP3    H149171   1.366   4.664  16.921 -1.2403 -1.5135 -0.8423
 9252TIP3    H249172   1.304   4.690  16.786  3.7251 -0.2438 -3.1168
 9253TIP3   OH249173   3.225   4.689   4.296  0.8399 -0.0427 -0.2258
 9253TIP3    H149174   3.218   4.753   4.225 -0.3420 -0.2316 -0.3005
 9253TIP3    H249175   3.319   4.677   4.308  1.0721  1.1230 -0.7369
 9254TIP3   OH249176   2.572   0.142  14.406 -0.1963 -0.1689 -0.5998
 9254TIP3    H149177   2.551   0.075  14.341  1.5302 -1.2006 -0.1429
 9254TIP3    H249178   2.591   0.220  14.354 -0.4874 -0.5043 -1.2307
 9255TIP3   OH249179   3.032   1.409  12.281 -0.3471 -0.4308 -0.5222
 9255TIP3    H149180   3.015   1.454  12.198  0.0573  1.4667  0.3563
 9255TIP3    H249181   3.038   1.480  12.345  0.4145 -1.7731  0.9549
 9256TIP3   OH249182   1.424   2.309   4.032 -0.4177 -0.1347 -0.2835
 9256TIP3    H149183   1.500   2.322   4.089 -2.1149  1.3008  1.8042
 9256TIP3    H249184   1.403   2.216   4.041 -0.1129 -0.1172  0.7550
 9257TIP3   OH249185   3.821   0.855  16.257  0.0673  0.3728 -0.2541
 9257TIP3    H149186   3.746   0.838  16.200 -0.7426  0.4718  0.7583
 9257TIP3    H249187   3.895   0.813  16.212 -1.1520 -2.6006  0.2845
 9258TIP3   OH249188   2.947   3.878  11.566 -0.0406  0.3379 -0.3245
 9258TIP3    H149189   3.015   3.877  11.634  1.5915  1.5606 -1.8412
 9258TIP3    H249190   2.915   3.968  11.565 -0.5320  0.1635 -0.7180
 9259TIP3   OH249191   3.782   6.055  16.502  0.3155 -0.6903  0.1460
 9259TIP3    H149192   3.738   6.136  16.529  0.0697 -0.2644 -1.4210
 9259TIP3    H249193   3.874   6.071  16.519  0.0491 -0.9962  2.0180
 9260TIP3   OH249194   4.346   4.666  16.325  0.4297 -0.1517  0.6171
 9260TIP3    H149195   4.350   4.646  16.232  1.7183  0.4067  0.5314
 9260TIP3    H249196   4.350   4.581  16.369  1.3185 -0.3460  0.1827
 9261TIP3   OH249197   1.733   0.148  14.066 -0.0804  0.1978 -0.4495
 9261TIP3    H149198   1.816   0.132  14.022 -0.2396  0.6925 -0.9461
 9261TIP3    H249199   1.755   0.150  14.159  0.8022  2.1809 -0.6586
 9262TIP3   OH249200   2.471   5.273  16.443 -0.2225 -0.3317 -0.3552
 9262TIP3    H149201   2.480   5.249  16.535 -1.8272  1.3707  0.3054
 9262TIP3    H249202   2.384   5.242  16.419 -1.9505  3.5215  0.2418
 9263TIP3   OH249203   5.977   0.546  10.652 -0.1323  0.2999 -0.4303
 9263TIP3    H149204   6.032   0.573  10.725  0.0085  0.0480 -0.4399
 9263TIP3    H249205   6.010   0.459  10.628 -2.3603 -1.2030  1.4659
 9264TIP3   OH249206   4.471   2.775   0.651  0.3808 -0.3414  0.3259
 9264TIP3    H149207   4.493   2.823   0.571 -0.1612  0.4593  0.6524
 9264TIP3    H249208   4.380   2.799   0.669  0.2947 -1.0262  0.8298
 9265TIP3   OH249209   2.510   5.704  14.566  0.4793 -1.0202 -0.0399
 9265TIP3    H149210   2.590   5.728  14.613  0.8081 -1.4006 -0.3991
 9265TIP3    H249211   2.510   5.761  14.489 -1.6106  1.8160  1.8614
 9266TIP3   OH249212   3.100   5.850   4.642 -0.4373 -0.2483 -0.1857
 9266TIP3    H149213   3.051   5.910   4.696 -0.9576  0.4282 -1.3713
 9266TIP3    H249214   3.114   5.897   4.560  0.1199 -1.3192 -0.7315
 9267TIP3   OH249215   6.046   6.248  16.602 -0.3249  0.2113  0.1281
 9267TIP3    H149216   6.141   6.243  16.611 -0.3597  1.0917  1.2005
 9267TIP3    H249217   6.016   6.294  16.681 -1.6512 -0.1246 -0.1442
 9268TIP3   OH249218   4.767   0.686   1.683  0.5954 -0.5662  0.3669
 9268TIP3    H149219   4.731   0.629   1.752  1.2843 -1.1330  0.2751
 9268TIP3    H249220   4.804   0.761   1.731  0.3711 -0.5751  0.5538
 9269TIP3   OH249221   1.009   0.524  16.892  0.0653  0.1230  0.0383
 9269TIP3    H149222   1.064   0.519  16.970  1.6963 -0.9619 -1.1235
 9269TIP3    H249223   1.059   0.479  16.824 -2.2031 -0.7860 -1.1297
 9270TIP3   OH249224   3.989   0.698   0.002 -0.0392  0.0583  0.3768
 9270TIP3    H149225   3.947   0.652  -0.071  0.5088 -0.4137  0.3537
 9270TIP3    H249226   4.079   0.712  -0.027 -0.0703  0.7107  0.5882
 9271TIP3   OH249227   2.894   1.967   1.081 -0.0233 -0.2184  0.2751
 9271TIP3    H149228   2.900   1.908   1.006  0.0547  1.1186 -0.8119
 9271TIP3    H249229   2.814   2.018   1.066  0.4197  0.6281  0.6609
 9272TIP3   OH249230   1.683   3.613  12.540  0.2904 -0.4986  0.2543
 9272TIP3    H149231   1.626   3.677  12.581 -0.5500 -2.4174  2.2960
 9272TIP3    H249232   1.737   3.578  12.611  0.8830 -1.8712 -0.7981
 9273TIP3   OH249233   4.026   3.913  11.177 -0.2177 -0.2540  0.1471
 9273TIP3    H149234   4.014   3.825  11.141 -1.6954  0.2782 -0.7654
 9273TIP3    H249235   4.118   3.915  11.205  0.3269 -1.5117 -1.3844
 9274TIP3   OH249236   1.126   3.771  14.397 -0.2628 -0.3355 -0.3579
 9274TIP3    H149237   1.038   3.794  14.427 -0.0574 -1.0818  0.8829
 9274TIP3    H249238   1.165   3.854  14.370 -1.6601 -0.1039 -1.8660
 9275TIP3   OH249239   3.717   4.108   2.791 -0.1435 -0.5041 -0.4510
 9275TIP3    H149240   3.660   4.069   2.857 -1.7062  1.5456 -0.4601
 9275TIP3    H249241   3.725   4.200   2.818  1.5530 -0.2788 -1.5623
 9276TIP3   OH249242   6.452   3.852   4.232 -0.2931  0.5561 -0.5619
 9276TIP3    H149243   6.438   3.793   4.306  1.8173  1.0400  0.3172
 9276TIP3    H249244   6.492   3.797   4.165  0.1876  0.6488 -0.3529
 9277TIP3   OH249245   0.109   3.879   3.618 -0.0951 -0.0992 -0.2442
 9277TIP3    H149246   0.036   3.931   3.653 -0.4899 -1.0117  0.3360
 9277TIP3    H249247   0.144   3.932   3.547 -1.9542 -0.0354 -1.1968
 9278TIP3   OH249248   4.234   1.795  11.185 -0.2492 -0.1617  0.3781
 9278TIP3    H149249   4.321   1.792  11.223 -0.2577  0.1197  0.4252
 9278TIP3    H249250   4.181   1.737  11.239 -0.2541  0.2115  0.7791
 9279TIP3   OH249251   5.863   2.729  15.788 -0.1623  0.1280  0.1769
 9279TIP3    H149252   5.909   2.803  15.826 -0.7104 -0.1460  1.4126
 9279TIP3    H249253   5.780   2.765  15.757 -0.8827 -0.1178  1.7145
 9280TIP3   OH249254   3.596   3.023   5.465 -0.4730  0.0106 -0.0700
 9280TIP3    H149255   3.630   2.934   5.470  0.8668  0.5377  0.5506
 9280TIP3    H249256   3.661   3.072   5.416 -0.6976  0.8722  0.4500
 9281TIP3   OH249257   4.412   1.886  16.226  0.0626  0.4636 -0.0073
 9281TIP3    H149258   4.475   1.958  16.224 -0.0424  0.5502 -0.4812
 9281TIP3    H249259   4.327   1.927  16.211  0.1884  0.0705 -2.1299
 9282TIP3   OH249260   2.281   3.348  11.125 -0.5043 -0.2822 -0.2836
 9282TIP3    H149261   2.270   3.417  11.059 -0.1667 -0.4757 -0.5485
 9282TIP3    H249262   2.374   3.326  11.120 -0.3981 -0.0461  0.5161
 9283TIP3   OH249263   0.807   5.992  16.364  0.2528 -0.2019  0.0937
 9283TIP3    H149264   0.845   5.937  16.296 -1.1899 -2.8516  1.2950
 9283TIP3    H249265   0.755   6.057  16.317  0.3488 -1.1403 -1.3641
 9284TIP3   OH249266   5.020   5.912  11.629  0.0216  0.3382 -0.4636
 9284TIP3    H149267   4.931   5.944  11.619  0.8854  3.5922  0.9784
 9284TIP3    H249268   5.010   5.825  11.668 -2.4885  0.3919 -0.8318
 9285TIP3   OH249269   2.939   0.077   0.587 -0.3822  0.0537  0.0886
 9285TIP3    H149270   2.985   0.046   0.664 -0.6901  0.5298  0.4708
 9285TIP3    H249271   3.007   0.085   0.520  0.2596  1.5447  0.8757
 9286TIP3   OH249272   3.017   2.037   2.955  0.1091  0.3719 -0.4867
 9286TIP3    H149273   3.027   1.989   2.873 -0.5723 -0.1762 -0.2586
 9286TIP3    H249274   3.027   2.129   2.930  0.6088  0.1698 -1.0641
 9287TIP3   OH249275   3.079   1.832   5.415  0.3603 -0.3294  0.2944
 9287TIP3    H149276   3.006   1.883   5.447  1.0333  1.1119 -0.3981
 9287TIP3    H249277   3.060   1.817   5.322 -0.1495 -1.9598  0.6166
 9288TIP3   OH249278   0.146   2.892  12.781  0.1510  0.5995  0.8209
 9288TIP3    H149279   0.113   2.926  12.698 -0.1654  1.7331  1.3831
 9288TIP3    H249280   0.192   2.966  12.821 -1.5897  0.7870  2.6480
 9289TIP3   OH249281   2.529   0.977   3.394 -0.0532  0.6998 -0.1204
 9289TIP3    H149282   2.531   0.962   3.299 -0.3247 -0.6453  0.0655
 9289TIP3    H249283   2.534   0.889   3.432  0.7780  1.2583  1.1362
 9290TIP3   OH249284   1.135   1.370   2.597 -0.4709  0.5534 -0.0353
 9290TIP3    H149285   1.185   1.429   2.540 -1.0734  0.0489 -1.1156
 9290TIP3    H249286   1.129   1.417   2.680 -0.1768  1.6303 -0.6016
 9291TIP3   OH249287   2.830   1.442  14.841  0.1273  0.3685  0.4193
 9291TIP3    H149288   2.783   1.511  14.887 -0.9782 -0.3059  0.3308
 9291TIP3    H249289   2.920   1.475  14.835  0.0505  0.9731  2.0248
 9292TIP3   OH249290   6.370   0.751  12.811  0.1988 -0.4124 -0.1487
 9292TIP3    H149291   6.381   0.810  12.736  1.2970 -2.0431 -1.3363
 9292TIP3    H249292   6.363   0.664  12.772 -0.7909 -1.1603  1.5886
 9293TIP3   OH249293   3.881   0.295   2.772  0.2910 -0.2122 -0.0673
 9293TIP3    H149294   3.850   0.371   2.722  1.2768 -0.7007 -1.5034
 9293TIP3    H249295   3.970   0.319   2.798  0.8854 -1.1389 -1.1808
 9294TIP3   OH249296   1.779   3.685  12.297 -0.1472  0.0793  0.2811
 9294TIP3    H149297   1.777   3.599  12.256 -0.8329  0.2949 -0.1494
 9294TIP3    H249298   1.746   3.671  12.386 -1.1349  0.0464 -0.0828
 9295TIP3   OH249299   6.638   0.883  13.500 -0.1512 -0.3085 -0.1995
 9295TIP3    H149300   6.708   0.922  13.553 -1.4613  2.1630 -0.1421
 9295TIP3    H249301   6.638   0.790  13.526  2.9825 -0.4063 -0.1550
 9296TIP3   OH249302   5.551   0.820  14.405  0.0509 -0.7612  0.3942
 9296TIP3    H149303   5.476   0.764  14.385  1.3055 -2.2912 -0.2156
 9296TIP3    H249304   5.623   0.783  14.354  1.0399  1.1790  0.2983
 9297TIP3   OH249305   3.650   0.732  14.190 -0.8691 -0.0206  0.4223
 9297TIP3    H149306   3.641   0.723  14.285 -1.3048 -0.1596  0.3707
 9297TIP3    H249307   3.699   0.655  14.162 -0.6139  0.0940  0.5531
 9298TIP3   OH249308   5.294   6.009   4.791 -0.1036 -0.1967  0.3938
 9298TIP3    H149309   5.249   6.001   4.875 -0.0724 -0.3084  0.4006
 9298TIP3    H249310   5.353   5.934   4.788 -1.6081 -1.4270 -0.6227
 9299TIP3   OH249311   1.158   3.680  11.552  0.2562 -0.5147 -0.1477
 9299TIP3    H149312   1.123   3.593  11.537  0.8800 -1.1744  1.9591
 9299TIP3    H249313   1.095   3.722  11.610 -0.7658  1.0058 -2.2245
 9300TIP3   OH249314   0.966   4.571   2.376  0.0965 -1.2722 -0.1498
 9300TIP3    H149315   1.040   4.522   2.410  1.0533 -0.5711 -1.1501
 9300TIP3    H249316   1.003   4.625   2.306 -1.6306 -2.0587 -1.7556
 9301TIP3   OH249317   1.576   3.975  16.327 -0.3463 -0.1823  0.2370
 9301TIP3    H149318   1.634   4.039  16.368 -1.5655  0.1866  1.4419
 9301TIP3    H249319   1.488   4.011  16.338 -0.7964 -0.2561 -2.3995
 9302TIP3   OH249320   6.694   2.150   4.750  0.3589  0.5256  0.3368
 9302TIP3    H149321   6.655   2.144   4.663 -1.6114  0.5968  1.1727
 9302TIP3    H249322   6.776   2.101   4.742  0.3627  0.7676 -1.6192
 9303TIP3   OH249323   5.619   0.411  13.208 -0.2103 -0.6706 -0.4133
 9303TIP3    H149324   5.582   0.371  13.130 -0.0292 -0.0135 -0.8449
 9303TIP3    H249325   5.708   0.376  13.214  0.2480  0.3209 -1.2800
 9304TIP3   OH249326   1.873   0.807   4.935 -0.5788 -0.1911 -0.0597
 9304TIP3    H149327   1.843   0.894   4.909  0.5808 -0.3327 -2.0509
 9304TIP3    H249328   1.942   0.824   5.000 -1.6924  0.2566  1.0705
 9305TIP3   OH249329   3.338   5.306  11.680 -0.5709 -0.5413  0.6073
 9305TIP3    H149330   3.402   5.368  11.716 -0.7093 -0.7891  1.2931
 9305TIP3    H249331   3.275   5.293  11.751 -0.9783 -0.8681  0.1919
 9306TIP3   OH249332   2.167   0.411   4.645 -0.7844  0.4077  0.1294
 9306TIP3    H149333   2.245   0.437   4.596 -0.6410 -1.4089 -0.6674
 9306TIP3    H249334   2.095   0.456   4.601 -0.3759  0.8566 -0.0962
 9307TIP3   OH249335   1.549   6.734   5.642  0.2861  0.1019 -0.1282
 9307TIP3    H149336   1.454   6.743   5.644 -0.0612 -2.7348 -0.1487
 9307TIP3    H249337   1.580   6.788   5.714 -1.2859  1.2590 -0.2578
 9308TIP3   OH249338   1.373   0.350   4.085  0.4095  0.1055 -0.4116
 9308TIP3    H149339   1.425   0.270   4.078 -1.5254 -1.0876 -2.3278
 9308TIP3    H249340   1.430   0.419   4.049  1.7835 -0.5115  0.4882
 9309TIP3   OH249341   2.198   2.549  15.385  0.2985 -0.2599  0.2789
 9309TIP3    H149342   2.115   2.508  15.408 -1.3508  2.4134 -0.4129
 9309TIP3    H249343   2.180   2.643  15.390  2.7838  0.4233 -1.5879
 9310TIP3   OH249344   3.218   4.601   6.827  0.1823 -0.0103  1.4163
 9310TIP3    H149345   3.270   4.680   6.844 -0.2530  0.6377 -0.1131
 9310TIP3    H249346   3.213   4.595   6.732  0.4126 -2.0622  1.4991
 9311TIP3   OH249347   6.557   5.338   1.766 -0.3831  0.3183  0.3608
 9311TIP3    H149348   6.520   5.284   1.835  0.2275  0.0330  0.4712
 9311TIP3    H249349   6.614   5.400   1.811 -1.1655  1.1528  0.2487
 9312TIP3   OH249350   2.098   2.324  13.698  0.0404  0.2063 -0.2895
 9312TIP3    H149351   2.069   2.329  13.789 -0.6499 -2.1421 -0.3204
 9312TIP3    H249352   2.123   2.413  13.676 -1.0352  1.0833  1.7811
 9313TIP3   OH249353   1.212   1.430  13.137  0.4571  0.2272  0.2563
 9313TIP3    H149354   1.264   1.350  13.145 -1.8162 -1.1933  2.4251
 9313TIP3    H249355   1.249   1.489  13.202  0.7904  0.1222  0.1651
 9314TIP3   OH249356   5.897   2.621  10.790 -0.2970 -0.1468 -0.4637
 9314TIP3    H149357   5.986   2.635  10.823 -0.7865 -0.2673  0.9841
 9314TIP3    H249358   5.881   2.528  10.804 -1.5144  0.3184  1.6484
 9315TIP3   OH249359   4.223   2.032   3.497 -0.1442 -0.2299 -0.0588
 9315TIP3    H149360   4.267   2.056   3.416  0.6884  1.5347  0.8493
 9315TIP3    H249361   4.130   2.038   3.476  0.0532 -0.3619 -1.0252
 9316TIP3   OH249362   5.950   4.190   3.913 -0.3388  0.6416 -0.0179
 9316TIP3    H149363   6.020   4.131   3.943 -0.4971  1.3900  2.0221
 9316TIP3    H249364   5.874   4.133   3.903 -0.5378  0.4462  2.0925
 9317TIP3   OH249365   4.778   5.230   5.371  0.4428  0.2665 -0.4682
 9317TIP3    H149366   4.703   5.289   5.380  0.0800  0.1068 -2.1288
 9317TIP3    H249367   4.811   5.247   5.282  0.4323 -1.8826 -0.9347
 9318TIP3   OH249368   6.268   3.704   5.814  0.0316  0.0349  0.4684
 9318TIP3    H149369   6.268   3.741   5.726  1.2851  1.4207  1.0081
 9318TIP3    H249370   6.357   3.718   5.846 -0.8197  1.1366  2.5761
 9319TIP3   OH249371   4.686   3.057   1.986 -0.3441  0.1772 -0.6609
 9319TIP3    H149372   4.671   2.987   1.923 -0.6361 -0.2447 -0.1273
 9319TIP3    H249373   4.666   3.018   2.071  2.0288  0.1314 -0.0755
 9320TIP3   OH249374   0.278   5.096   2.744  0.5683  0.2405 -0.0778
 9320TIP3    H149375   0.309   5.096   2.654  1.4836  1.5728  0.2062
 9320TIP3    H249376   0.184   5.113   2.737  0.5421 -0.1607 -0.7917
 9321TIP3   OH249377   5.626   6.660  11.869  0.0152  0.8964  0.2654
 9321TIP3    H149378   5.651   6.567  11.865  0.1794  0.9798 -2.0594
 9321TIP3    H249379   5.705   6.704  11.900 -0.1873  0.2589  1.7854
 9322TIP3   OH249380   2.907   4.855  13.936  0.6394  0.2447  0.0812
 9322TIP3    H149381   2.821   4.880  13.900 -1.1173 -1.9386  2.4005
 9322TIP3    H249382   2.935   4.781  13.883  0.0330 -0.3529  0.5675
 9323TIP3   OH249383   1.620   4.104  16.985  0.2113  0.0903 -0.7483
 9323TIP3    H149384   1.530   4.078  16.964  0.1840 -0.1714 -0.3191
 9323TIP3    H249385   1.614   4.196  17.009 -0.1938 -0.3014  0.7584
 9324TIP3   OH249386   1.701   1.365   0.760  0.2554  0.3313 -0.3987
 9324TIP3    H149387   1.759   1.328   0.826  0.2844  0.2362 -0.4772
 9324TIP3    H249388   1.756   1.428   0.713  0.3323  0.1455 -0.5586
 9325TIP3   OH249389   2.997   4.861   5.534  0.0124  0.7818 -1.0027
 9325TIP3    H149390   2.968   4.950   5.515 -0.1613  0.7663 -0.8075
 9325TIP3    H249391   2.945   4.834   5.610  3.1678  2.1722  1.9531
 9326TIP3   OH249392   3.164   5.526   2.569 -0.2314 -0.1979 -0.2350
 9326TIP3    H149393   3.088   5.579   2.543 -0.1974  0.9195  1.7402
 9326TIP3    H249394   3.198   5.570   2.647  3.1242 -0.0229 -1.6240
 9327TIP3   OH249395   1.107   6.151   1.256  0.8812  0.7574 -0.0240
 9327TIP3    H149396   1.160   6.162   1.177  0.1952 -1.8513 -0.9301
 9327TIP3    H249397   1.115   6.059   1.279 -2.6712  0.3371  0.1509
 9328TIP3   OH249398   2.483   0.687  14.728  0.6561 -0.2137 -0.7745
 9328TIP3    H149399   2.486   0.736  14.809  0.1647 -2.7705  0.9330
 9328TIP3    H249400   2.525   0.743  14.663  1.8725  1.5671  1.4266
 9329TIP3   OH249401   5.648   5.684  12.365  0.2258  0.0257  0.1023
 9329TIP3    H149402   5.585   5.755  12.377  0.0143 -0.3135  1.0278
 9329TIP3    H249403   5.635   5.627  12.440  0.1081 -1.2193 -0.8274
 9330TIP3   OH249404   4.213   1.370   4.482 -0.0279 -0.1242 -0.2375
 9330TIP3    H149405   4.141   1.416   4.439  0.7428  0.4023 -0.9878
 9330TIP3    H249406   4.268   1.339   4.410  0.2054 -1.0139  0.3040
 9331TIP3   OH249407   1.996   3.808  12.773 -0.5145  0.2281 -0.1322
 9331TIP3    H149408   1.941   3.788  12.849 -2.8620 -0.5075 -1.8933
 9331TIP3    H249409   2.010   3.724  12.730  1.4569  0.5129 -0.1502
 9332TIP3   OH249410   6.120   3.889   0.905  0.0563  0.3394  0.0506
 9332TIP3    H149411   6.181   3.893   0.979 -0.8183 -0.3227  0.8284
 9332TIP3    H249412   6.105   3.796   0.891 -1.8712  0.4777  0.8217
 9333TIP3   OH249413   3.522   2.216  13.283  0.1669 -0.3188 -0.1746
 9333TIP3    H149414   3.525   2.256  13.370 -2.7656  0.7670 -0.4463
 9333TIP3    H249415   3.613   2.218  13.252  0.5432  4.6606  0.5343
 9334TIP3   OH249416   4.281   2.219  15.532 -0.8337 -0.1344 -0.0267
 9334TIP3    H149417   4.227   2.287  15.573 -1.3387 -1.1618  1.0727
 9334TIP3    H249418   4.219   2.149  15.510 -0.0112 -1.2646  1.1040
 9335TIP3   OH249419   2.073   1.375  12.723  0.5152  0.2211  0.1620
 9335TIP3    H149420   2.161   1.411  12.710  1.8644 -2.8474  0.0726
 9335TIP3    H249421   2.059   1.316  12.649 -1.5774  0.4687  0.2871
 9336TIP3   OH249422   5.605   5.330   4.816 -0.1209  0.1309  0.1219
 9336TIP3    H149423   5.607   5.241   4.779 -1.1224  0.3933 -0.6014
 9336TIP3    H249424   5.589   5.316   4.910  0.3671 -0.4693  0.1250
 9337TIP3   OH249425   5.983   3.096  14.329 -0.3949 -0.5749  0.0272
 9337TIP3    H149426   5.963   3.047  14.409  0.4415 -0.1163  0.5303
 9337TIP3    H249427   5.958   3.186  14.349 -0.2934 -0.4795 -0.2716
 9338TIP3   OH249428   5.813   3.131  13.766 -0.1673 -0.6086  0.3431
 9338TIP3    H149429   5.837   3.197  13.830 -1.4065  0.1361  0.0857
 9338TIP3    H249430   5.860   3.052  13.793  2.0172  0.5623  0.1760
 9339TIP3   OH249431   3.708   3.455   1.600 -0.1416  0.0385 -0.2906
 9339TIP3    H149432   3.696   3.499   1.684 -1.0524  0.3380 -0.5650
 9339TIP3    H249433   3.631   3.480   1.548 -0.4674 -1.5406 -0.6141
 9340TIP3   OH249434   5.349   6.738  11.856 -0.1955  0.3691  0.0980
 9340TIP3    H149435   5.439   6.711  11.874  0.2568  0.1235 -2.2582
 9340TIP3    H249436   5.354   6.834  11.853  0.6048  0.3279 -2.4825
 9341TIP3   OH249437   2.152   5.834   2.496 -0.1818 -0.5244  0.2270
 9341TIP3    H149438   2.114   5.748   2.507 -0.2152 -0.7508 -1.3924
 9341TIP3    H249439   2.086   5.884   2.449  0.4670 -0.1109 -0.2619
 9342TIP3   OH249440   6.647   1.637   3.087  0.0860 -0.7288 -0.4463
 9342TIP3    H149441   6.656   1.541   3.084 -0.9372 -0.9522  1.7353
 9342TIP3    H249442   6.695   1.664   3.165  0.0457  0.4943 -0.8218
 9343TIP3   OH249443   0.923   1.631   5.421 -0.2913 -0.3198  0.1778
 9343TIP3    H149444   0.884   1.588   5.344  1.0167 -0.3896 -0.4700
 9343TIP3    H249445   1.018   1.624   5.406  0.0997 -2.3384  2.8566
 9344TIP3   OH249446   4.214   1.451  16.986 -0.4009 -0.0329 -0.1203
 9344TIP3    H149447   4.173   1.519  17.039 -3.2637 -1.7976  0.1845
 9344TIP3    H249448   4.260   1.498  16.916 -0.4024  2.2060  1.2868
 9345TIP3   OH249449   5.310   4.160  12.329  0.0260  0.3739  0.2682
 9345TIP3    H149450   5.218   4.138  12.310  0.3159 -0.2350 -0.4844
 9345TIP3    H249451   5.319   4.146  12.423 -0.5643  0.1178  0.2929
 9346TIP3   OH249452   2.655   5.095  14.251  0.8701  0.1224 -0.3126
 9346TIP3    H149453   2.599   5.117  14.326  0.5622  0.0394 -0.5145
 9346TIP3    H249454   2.744   5.105  14.284  0.7577 -1.3010  0.4911
 9347TIP3   OH249455   4.834   0.748  13.542 -0.5761  0.1393  0.5448
 9347TIP3    H149456   4.755   0.708  13.507 -1.5429 -0.2677  3.0294
 9347TIP3    H249457   4.891   0.760  13.465 -1.7234 -2.5120 -0.8242
 9348TIP3   OH249458   3.489   2.662   0.108 -0.2666 -0.0189 -0.0663
 9348TIP3    H149459   3.545   2.736   0.132 -1.4750  0.9221 -0.0323
 9348TIP3    H249460   3.449   2.688   0.025  0.1632 -1.1544 -0.6615
 9349TIP3   OH249461   4.468   1.670  15.250 -0.0684 -0.0478  0.4260
 9349TIP3    H149462   4.392   1.724  15.273  1.0678  1.1147  1.6709
 9349TIP3    H249463   4.494   1.630  15.333  1.0458  0.0799  0.1579
 9350TIP3   OH249464   6.363   4.493   1.301 -0.0126  0.7602 -0.8391
 9350TIP3    H149465   6.388   4.496   1.209 -0.4246 -0.1091 -0.9927
 9350TIP3    H249466   6.446   4.499   1.349  0.3615 -0.4517 -1.3060
 9351TIP3   OH249467   5.392   6.029   3.092  0.4282 -0.1001  0.5897
 9351TIP3    H149468   5.297   6.020   3.085  0.4707 -1.1024  1.1116
 9351TIP3    H249469   5.416   6.086   3.019 -0.4295 -0.8452 -0.3072
 9352TIP3   OH249470   3.050   3.761  12.426  0.0476 -0.6499  0.0713
 9352TIP3    H149471   3.135   3.717  12.421 -0.0446 -0.7326 -0.9616
 9352TIP3    H249472   3.071   3.849  12.460  0.7540 -0.1674 -1.5329
 9353TIP3   OH249473   5.655   3.565  10.924 -0.0661 -0.8914 -0.3598
 9353TIP3    H149474   5.703   3.634  10.877 -0.6652 -1.3937 -1.7771
 9353TIP3    H249475   5.717   3.493  10.932 -0.2076 -1.1216 -1.1887
 9354TIP3   OH249476   0.224   4.482  11.542 -0.2945 -0.0662 -0.6482
 9354TIP3    H149477   0.211   4.557  11.484 -0.0541 -0.0877 -0.7312
 9354TIP3    H249478   0.307   4.444  11.514 -0.2704 -0.1899 -0.4156
 9355TIP3   OH249479   3.774   6.197  15.660 -0.1164 -0.7677  0.4515
 9355TIP3    H149480   3.716   6.263  15.696  0.0512 -0.0874 -0.4721
 9355TIP3    H249481   3.853   6.246  15.635 -0.7479 -0.8980 -2.1026
 9356TIP3   OH249482   4.489   6.564   1.514 -0.6585  0.0865 -0.3667
 9356TIP3    H149483   4.546   6.587   1.440 -1.8136  0.4830 -1.1576
 9356TIP3    H249484   4.509   6.472   1.531 -1.3161 -0.4074 -2.0764
 9357TIP3   OH249485   1.053   2.759   5.195 -0.1041 -0.0875  0.3711
 9357TIP3    H149486   1.077   2.780   5.285 -0.0967 -1.4665  0.7049
 9357TIP3    H249487   1.075   2.667   5.184  1.0922  0.3423 -1.4429
 9358TIP3   OH249488   0.142   5.478  14.162 -0.3233  0.0875 -0.6311
 9358TIP3    H149489   0.073   5.522  14.211  0.5453  0.4936  0.2769
 9358TIP3    H249490   0.222   5.527  14.184  0.8574 -2.3941  1.1543
 9359TIP3   OH249491   4.349   2.395   5.578 -0.0590  0.2812 -0.0816
 9359TIP3    H149492   4.429   2.401   5.630  0.1693  1.9295 -0.5738
 9359TIP3    H249493   4.347   2.476   5.528 -1.8531  0.0992 -0.3597
 9360TIP3   OH249494   0.032   6.386   3.791 -0.4354  0.2162 -0.5614
 9360TIP3    H149495  -0.000   6.327   3.723 -0.2504 -0.7084  0.1231
 9360TIP3    H249496  -0.030   6.375   3.863 -0.2460  0.6657 -0.3230
 9361TIP3   OH249497   3.933   4.827  13.134 -0.1641  0.3090  0.2088
 9361TIP3    H149498   4.019   4.827  13.176  0.3076 -0.4701 -0.7317
 9361TIP3    H249499   3.897   4.740  13.155 -0.0219  0.0038 -0.7804
 9362TIP3   OH249500   1.797   5.062  16.661  0.1748  0.5891  0.5708
 9362TIP3    H149501   1.859   5.126  16.626 -0.2768  1.5998  1.5561
 9362TIP3    H249502   1.763   5.103  16.741 -2.2868  0.4176 -0.2848
 9363TIP3   OH249503   2.635   3.410   1.920 -0.2660  0.0042  0.4110
 9363TIP3    H149504   2.621   3.348   1.849 -0.4709  1.5550 -0.9708
 9363TIP3    H249505   2.579   3.378   1.991 -1.5071 -0.5831 -0.7747
 9364TIP3   OH249506   0.596   4.896   5.151 -0.2332 -0.3726 -0.4709
 9364TIP3    H149507   0.537   4.855   5.088  1.0636 -0.2592 -1.8375
 9364TIP3    H249508   0.653   4.824   5.179 -0.9240 -0.4647  0.7650
 9365TIP3   OH249509   3.905   6.526   5.212  0.4547 -0.2744  0.3694
 9365TIP3    H149510   3.810   6.513   5.210  0.1563  0.3487  4.0884
 9365TIP3    H249511   3.923   6.559   5.300  4.2007 -0.8036 -0.0439
 9366TIP3   OH249512   4.477   5.509  16.082 -0.0723  0.6142 -0.0692
 9366TIP3    H149513   4.462   5.450  16.009 -0.8042 -1.3312  1.5766
 9366TIP3    H249514   4.572   5.509  16.095 -0.1718 -1.8180  1.1138
 9367TIP3   OH249515   3.331   0.349  15.827  0.6128 -0.2675  0.2080
 9367TIP3    H149516   3.366   0.339  15.915  1.7641  3.6099  0.3893
 9367TIP3    H249517   3.243   0.385  15.839  1.3848  1.8493 -0.1234
 9368TIP3   OH249518   0.242   4.428  12.266 -0.2208 -0.1500 -0.8169
 9368TIP3    H149519   0.287   4.437  12.182  1.2679  1.2091  0.0664
 9368TIP3    H249520   0.203   4.341  12.263  1.5259 -0.9483 -2.1009
 9369TIP3   OH249521   6.087   2.337   0.752 -0.9049  0.4831  0.0602
 9369TIP3    H149522   6.132   2.257   0.779 -0.1661  1.0032  0.3762
 9369TIP3    H249523   6.004   2.335   0.800 -0.4201  0.4540  0.9133
 9370TIP3   OH249524   4.902   5.533  10.350 -0.3366  0.7274 -0.1400
 9370TIP3    H149525   4.823   5.570  10.312 -0.9300  0.8638  1.1539
 9370TIP3    H249526   4.874   5.502  10.437  1.4431  2.4905  1.1334
 9371TIP3   OH249527   4.513   4.437  11.199  0.0061  0.1292  0.2332
 9371TIP3    H149528   4.503   4.489  11.119  1.9899 -0.7514 -0.6587
 9371TIP3    H249529   4.465   4.356  11.181 -0.2611  0.2718  0.2917
 9372TIP3   OH249530   0.310   6.332  16.593  0.3919 -0.1751 -0.1246
 9372TIP3    H149531   0.352   6.321  16.678 -0.8913  1.1898  0.7409
 9372TIP3    H249532   0.263   6.250  16.579 -1.5821  0.5161  1.8206
 9373TIP3   OH249533   2.691   2.192  14.974  0.4419  0.0829 -0.6770
 9373TIP3    H149534   2.640   2.182  14.894  1.7341 -0.2279 -1.4857
 9373TIP3    H249535   2.781   2.203  14.944  1.3344 -2.4412  0.7651
 9374TIP3   OH249536   3.475   2.680   1.953 -0.0709 -0.2217  0.4349
 9374TIP3    H149537   3.384   2.679   1.985 -0.7509  1.0026 -1.3271
 9374TIP3    H249538   3.501   2.588   1.954 -1.2983 -0.5943  1.0415
 9375TIP3   OH249539   3.472   4.469   4.081  0.5106 -0.3210 -0.6741
 9375TIP3    H149540   3.440   4.538   4.023  0.2463 -0.1343 -0.3093
 9375TIP3    H249541   3.393   4.437   4.126  0.6677 -0.6829 -0.6507
 9376TIP3   OH249542   2.388   2.027  12.027 -0.4763 -0.0023 -0.6514
 9376TIP3    H149543   2.417   2.060  12.112 -0.7800 -1.1709 -0.0766
 9376TIP3    H249544   2.415   2.094  11.965  2.3128 -0.3930  0.0007
 9377TIP3   OH249545   4.422   2.374   4.768 -0.3760 -0.0993  0.8065
 9377TIP3    H149546   4.436   2.319   4.691 -1.7271 -0.0771  0.5172
 9377TIP3    H249547   4.430   2.464   4.735  1.7050 -0.0580  1.2544
 9378TIP3   OH249548   0.672   2.155  16.009  1.2618  0.1629  0.0812
 9378TIP3    H149549   0.659   2.071  16.054  0.2933  1.3631  2.1452
 9378TIP3    H249550   0.584   2.184  15.987  1.5883  0.7011 -0.5569
 9379TIP3   OH249551   3.497   5.203  15.633 -0.1129 -0.2820 -0.1265
 9379TIP3    H149552   3.500   5.245  15.719  2.4197  0.5819 -0.5382
 9379TIP3    H249553   3.510   5.110  15.651  0.8711 -0.0524  0.4195
 9380TIP3   OH249554   1.008   2.920  16.440  0.3898  0.6913 -0.0090
 9380TIP3    H149555   1.011   2.935  16.534 -0.1186  1.4155 -0.1049
 9380TIP3    H249556   1.003   2.824  16.431  0.8251  0.6015  0.6806
 9381TIP3   OH249557   4.922   6.297   3.948  0.4023 -0.2042  0.4667
 9381TIP3    H149558   4.964   6.233   4.006 -0.3267 -0.7700  0.3933
 9381TIP3    H249559   4.948   6.270   3.860  0.1361 -0.3760  0.4388
 9382TIP3   OH249560   6.504   3.659  16.568  0.2693  0.1402 -0.2837
 9382TIP3    H149561   6.448   3.733  16.590 -0.3042 -0.8773  1.8785
 9382TIP3    H249562   6.591   3.684  16.602 -0.0325 -0.3463  0.8867
 9383TIP3   OH249563   0.304   6.076   0.684  0.0853 -0.0566  0.1039
 9383TIP3    H149564   0.281   6.059   0.593  0.4257 -1.3173  0.2380
 9383TIP3    H249565   0.222   6.069   0.732  0.1529 -1.0540  0.1022
 9384TIP3   OH249566   0.538   0.019   4.470 -0.1548 -0.2270  0.1460
 9384TIP3    H149567   0.578  -0.056   4.427 -2.2656 -0.8337 -0.9392
 9384TIP3    H249568   0.575   0.095   4.425  0.1759 -0.7386 -0.4604
 9385TIP3   OH249569   6.174   2.655  15.897 -0.1404  0.2036  0.3164
 9385TIP3    H149570   6.237   2.722  15.872 -0.1205  0.4203  0.9375
 9385TIP3    H249571   6.149   2.613  15.815  0.9605 -0.0195  0.0876
 9386TIP3   OH249572   3.110   3.779   1.927  0.5751 -0.2597  0.1810
 9386TIP3    H149573   3.147   3.712   1.869 -0.9856 -0.4764 -0.6417
 9386TIP3    H249574   3.116   3.741   2.015  2.5093 -0.1448  0.1214
 9387TIP3   OH249575   0.549   1.731  13.299 -0.7410 -0.0851  0.2866
 9387TIP3    H149576   0.616   1.728  13.367 -1.0206 -0.8265  0.5387
 9387TIP3    H249577   0.500   1.650  13.310 -1.6275  0.4025  0.0475
 9388TIP3   OH249578   6.587   1.441   2.036  0.5869 -0.3254 -0.4955
 9388TIP3    H149579   6.551   1.371   2.090 -1.6400 -0.0983 -1.5592
 9388TIP3    H249580   6.528   1.515   2.050  0.1180 -0.1564 -2.9145
 9389TIP3   OH249581   6.704   2.520  16.206 -0.6281 -0.2026 -0.3293
 9389TIP3    H149582   6.674   2.526  16.115 -2.0027  1.3681  0.1777
 9389TIP3    H249583   6.628   2.486  16.254  0.0692 -0.9793  0.2548
 9390TIP3   OH249584   0.019   6.176  11.802  0.3151 -0.3532  0.1595
 9390TIP3    H149585   0.076   6.115  11.848 -0.1635  0.2340  1.5726
 9390TIP3    H249586   0.037   6.160  11.709 -0.0262 -2.8440  0.4492
 9391TIP3   OH249587   0.161   0.979   3.041 -0.2116  0.3847 -0.3527
 9391TIP3    H149588   0.157   1.069   3.071  0.3640  0.5866 -0.8625
 9391TIP3    H249589   0.204   0.984   2.956  0.8462 -0.4878  0.1090
 9392TIP3   OH249590   6.728   3.741  14.742 -0.2337  0.5463  0.6780
 9392TIP3    H149591   6.700   3.653  14.768  0.9452 -0.1406 -0.2746
 9392TIP3    H249592   6.745   3.786  14.825 -0.0337 -0.4095  1.1716
 9393TIP3   OH249593   5.975   5.735  16.508  0.0619  0.4284 -0.3097
 9393TIP3    H149594   6.016   5.814  16.471 -1.1292  1.9615  1.4623
 9393TIP3    H249595   6.009   5.730  16.597  0.3982 -1.3223 -0.5021
 9394TIP3   OH249596   2.457   4.127  14.745 -0.2173 -0.0017 -0.6396
 9394TIP3    H149597   2.369   4.162  14.728  0.1914  1.5193  0.1393
 9394TIP3    H249598   2.503   4.199  14.787  0.5390 -1.6800  1.6118
 9395TIP3   OH249599   5.391   2.369  15.964  0.2495 -0.3747 -0.0616
 9395TIP3    H149600   5.384   2.283  16.006  0.6216 -0.7223 -0.6832
 9395TIP3    H249601   5.423   2.349  15.876  0.7637  0.4434 -0.0646
 9396TIP3   OH249602   2.153   1.925  15.331 -0.1290  0.0973 -0.1348
 9396TIP3    H149603   2.197   1.931  15.247  1.6429  1.5301  0.8363
 9396TIP3    H249604   2.184   1.843  15.369 -0.8745 -0.5137 -0.8207
 9397TIP3   OH249605   0.250   5.826   1.031  0.6367 -0.6053 -0.0660
 9397TIP3    H149606   0.160   5.803   1.053 -0.0562  2.7425  1.1348
 9397TIP3    H249607   0.302   5.793   1.104  0.1267 -0.8966  0.1722
 9398TIP3   OH249608   4.701   5.858  15.071  0.1414  0.4147 -0.1500
 9398TIP3    H149609   4.627   5.908  15.107 -2.6651 -3.3302 -0.0829
 9398TIP3    H249610   4.692   5.866  14.976  0.3842  0.8706 -0.1378
 9399TIP3   OH249611   0.349   4.810   3.287  0.2239 -0.0208 -0.2592
 9399TIP3    H149612   0.391   4.842   3.366  0.3156 -0.4628 -0.1225
 9399TIP3    H249613   0.415   4.819   3.218  0.3202 -0.1087 -0.1786
 9400TIP3   OH249614   5.224   0.822  11.435  0.4314  0.4498  0.3693
 9400TIP3    H149615   5.247   0.862  11.350 -0.2522  0.6457  0.2682
 9400TIP3    H249616   5.219   0.729  11.417 -0.1669  0.5348  0.0833
 9401TIP3   OH249617   2.103   5.379   4.134  0.2393 -0.3507 -0.2060
 9401TIP3    H149618   2.089   5.347   4.224 -1.8520  0.2879 -0.2472
 9401TIP3    H249619   2.153   5.460   4.145 -1.0197  0.3658  0.5274
 9402TIP3   OH249620   5.954   2.093  16.893 -0.2545 -0.0440  0.1321
 9402TIP3    H149621   6.009   2.048  16.957 -0.0142  1.8085  1.2826
 9402TIP3    H249622   5.904   2.023  16.851  0.9435 -1.4835  1.0228
 9403TIP3   OH249623   5.576   3.174  10.829  0.6062  0.6063  0.0982
 9403TIP3    H149624   5.525   3.129  10.896 -2.2575  1.1529 -1.5546
 9403TIP3    H249625   5.622   3.104  10.782 -0.7831 -0.2355 -0.0520
 9404TIP3   OH249626   3.376   2.872   6.077 -0.0142 -0.2678  0.0605
 9404TIP3    H149627   3.461   2.835   6.105  1.1097  1.1912 -1.2619
 9404TIP3    H249628   3.365   2.949   6.132 -1.0133 -0.9944  0.9154
 9405TIP3   OH249629   0.242   1.417  15.279  0.1923  0.1866  0.0725
 9405TIP3    H149630   0.239   1.510  15.302 -0.9137  0.7649 -2.1914
 9405TIP3    H249631   0.289   1.414  15.195  1.2799 -1.4634  0.6764
 9406TIP3   OH249632   2.679   6.041   4.059 -0.2051 -0.2918 -0.2644
 9406TIP3    H149633   2.671   6.087   4.143  1.9607  1.7513 -1.0782
 9406TIP3    H249634   2.691   6.111   3.994  1.5288 -1.9351 -1.8247
 9407TIP3   OH249635   4.994   3.012   1.336  0.4709  0.4683  0.0360
 9407TIP3    H149636   5.074   2.980   1.295  0.1896 -0.3797  0.1485
 9407TIP3    H249637   4.997   2.978   1.425 -0.1301  0.2471 -0.0272
 9408TIP3   OH249638   4.021   2.129   3.068 -0.2631  0.2995  0.2245
 9408TIP3    H149639   4.053   2.039   3.065  0.3668  0.5433 -0.9518
 9408TIP3    H249640   3.941   2.124   3.120  0.6053 -0.6580  1.5283
 9409TIP3   OH249641   3.624   6.289  16.896  0.3309  0.4181  0.0267
 9409TIP3    H149642   3.599   6.197  16.892 -0.5245  0.6238  0.4389
 9409TIP3    H249643   3.554   6.331  16.945  1.2616  1.1029  0.8228
 9410TIP3   OH249644   2.733   3.767   2.728  0.8044 -0.3365  0.2195
 9410TIP3    H149645   2.785   3.794   2.803 -0.1549  2.2983  0.0181
 9410TIP3    H249646   2.790   3.782   2.653  1.0755 -1.1541  0.2441
 9411TIP3   OH249647   4.496   6.462  13.829 -0.2023 -0.6256  0.1561
 9411TIP3    H149648   4.550   6.382  13.824 -0.5053 -0.8573  0.5334
 9411TIP3    H249649   4.413   6.432  13.866 -0.3022 -0.1210  0.3370
 9412TIP3   OH249650   3.546   1.311   6.573 -0.1336  0.3334  0.0545
 9412TIP3    H149651   3.599   1.380   6.612  1.2443 -1.9389  2.4943
 9412TIP3    H249652   3.538   1.244   6.641 -1.9062 -1.6872 -1.9407
 9413TIP3   OH249653   4.206   2.622   4.708  0.3718 -0.8336  0.1313
 9413TIP3    H149654   4.111   2.617   4.720  0.5344 -1.0262  1.5483
 9413TIP3    H249655   4.231   2.707   4.745  0.5898 -0.0868 -1.6360
 9414TIP3   OH249656   0.376   6.356   2.436 -1.0067  0.3214  0.0127
 9414TIP3    H149657   0.342   6.426   2.381  0.5471 -0.2370 -1.7547
 9414TIP3    H249658   0.455   6.326   2.391  1.1069  0.6466  3.1852
 9415TIP3   OH249659   4.925   0.297   2.531  0.0142  0.5095 -0.4061
 9415TIP3    H149660   4.970   0.226   2.486  2.1413 -0.5471  2.9809
 9415TIP3    H249661   4.856   0.253   2.582 -0.2150  1.1931 -0.1166
 9416TIP3   OH249662   5.380   2.992  12.553 -0.4552 -0.5471  0.0670
 9416TIP3    H149663   5.442   3.031  12.491  0.0877 -2.5485 -0.7227
 9416TIP3    H249664   5.430   2.924  12.597 -1.4023 -0.4785  1.2942
 9417TIP3   OH249665   2.185   6.007  12.922 -0.6883 -0.0372 -0.8268
 9417TIP3    H149666   2.218   5.928  12.966 -0.5026  0.4134 -0.1306
 9417TIP3    H249667   2.232   6.010  12.839  1.1065  0.6208  0.1660
 9418TIP3   OH249668   1.098   0.057  15.320 -0.0279 -0.1077  0.1799
 9418TIP3    H149669   1.172   0.081  15.375 -0.6210 -0.0489  0.9813
 9418TIP3    H249670   1.129  -0.017  15.268  0.2771 -0.7784  1.2668
 9419TIP3   OH249671   0.578   4.489   5.045 -0.2876  0.0425 -0.2371
 9419TIP3    H149672   0.603   4.488   5.137 -1.3764  2.0919  0.1223
 9419TIP3    H249673   0.531   4.407   5.032  1.2769 -1.0378  0.5660
 9420TIP3   OH249674   2.119   3.237  12.214  0.2382 -0.0118 -0.2846
 9420TIP3    H149675   2.194   3.276  12.259 -0.0099  0.9565 -0.6798
 9420TIP3    H249676   2.100   3.157  12.263  2.3655 -0.9993 -0.9519
 9421TIP3   OH249677   0.017   2.632   1.327 -0.2741  0.4638  0.0096
 9421TIP3    H149678  -0.039   2.599   1.396  0.1263  0.3188  0.2684
 9421TIP3    H249679   0.069   2.701   1.369 -0.5385  0.8752 -0.3254
 9422TIP3   OH249680   3.533   6.504  14.388  0.8541  0.0229 -0.2580
 9422TIP3    H149681   3.573   6.505  14.475 -1.2966  1.9728  0.8399
 9422TIP3    H249682   3.490   6.589  14.381 -1.4351 -1.1706 -2.0716
 9423TIP3   OH249683   0.839   3.248  11.237 -0.0859  0.1071 -0.5601
 9423TIP3    H149684   0.918   3.202  11.264 -0.1141  0.4134  0.0719
 9423TIP3    H249685   0.807   3.200  11.160  0.0134 -0.7812 -0.0543
 9424TIP3   OH249686   1.743   4.845  12.651 -0.1849 -0.4378  0.7487
 9424TIP3    H149687   1.652   4.823  12.670 -0.3678  1.3728  2.2721
 9424TIP3    H249688   1.779   4.874  12.735  1.3866  0.2254 -0.1070
 9425TIP3   OH249689   5.490   3.733   0.875  0.9449 -0.8310  0.6189
 9425TIP3    H149690   5.448   3.694   0.951 -2.4153  1.9003  0.4096
 9425TIP3    H249691   5.483   3.667   0.806 -1.7169 -1.1284  1.0742
 9426TIP3   OH249692   0.114   1.478   0.326  0.0240 -0.7974 -0.1058
 9426TIP3    H149693   0.161   1.440   0.401  2.6170 -0.1567 -1.3093
 9426TIP3    H249694   0.088   1.402   0.274  0.9030 -1.1526 -0.0538
 9427TIP3   OH249695   2.257   5.590  10.813  0.0285  0.0072  0.5500
 9427TIP3    H149696   2.187   5.530  10.838  0.2939 -0.3347  0.4651
 9427TIP3    H249697   2.333   5.535  10.798 -0.6596 -0.2252 -3.4255
 9428TIP3   OH249698   5.503   1.601   4.887  0.0316 -0.3541  0.1458
 9428TIP3    H149699   5.459   1.542   4.948 -0.5720 -0.0138  0.0522
 9428TIP3    H249700   5.509   1.684   4.935 -0.5377 -0.0566 -0.2826
 9429TIP3   OH249701   0.889   1.174  12.549  0.9841 -0.0974 -0.3186
 9429TIP3    H149702   0.955   1.200  12.613  1.0480  2.3828 -1.3031
 9429TIP3    H249703   0.805   1.184  12.594  1.1426 -0.9667  0.1878
 9430TIP3   OH249704   6.778   6.238  15.815 -0.4306 -0.0937  0.1332
 9430TIP3    H149705   6.840   6.304  15.846 -1.0615 -0.5940  2.7394
 9430TIP3    H249706   6.812   6.210  15.730  1.6135  1.2773  0.4420
 9431TIP3   OH249707   4.587   2.844   3.067  0.3089 -0.0113 -0.2516
 9431TIP3    H149708   4.650   2.850   3.139 -0.9884 -0.8433  0.9923
 9431TIP3    H249709   4.640   2.814   2.993  1.5786  0.3534  0.4686
 9432TIP3   OH249710   0.525   2.629  15.650 -0.6389  0.8268 -0.2593
 9432TIP3    H149711   0.454   2.598  15.592  0.9599  0.1715 -1.9869
 9432TIP3    H249712   0.536   2.721  15.627 -0.3912  0.7112 -0.6290
 9433TIP3   OH249713   4.568   6.016   2.444  0.5160 -0.5808 -0.0791
 9433TIP3    H149714   4.621   5.939   2.426  1.2586  0.2059 -1.3790
 9433TIP3    H249715   4.629   6.090   2.438 -0.8254  0.4349 -2.4679
 9434TIP3   OH249716   6.178   0.063  11.737 -0.5002 -0.0215 -0.1136
 9434TIP3    H149717   6.227   0.002  11.792  2.0706  1.2472 -0.8288
 9434TIP3    H249718   6.167   0.018  11.654  0.2999 -0.0020 -0.2378
 9435TIP3   OH249719   0.076   2.351  15.903 -0.4957 -0.2455  0.3750
 9435TIP3    H149720   0.071   2.259  15.879 -2.1125 -0.7451  2.3212
 9435TIP3    H249721   0.159   2.382  15.865 -0.8960 -1.9161 -2.0642
 9436TIP3   OH249722   2.749   6.305  15.111 -0.3910 -0.0912  0.1735
 9436TIP3    H149723   2.664   6.263  15.126  0.6097 -1.9532  0.9081
 9436TIP3    H249724   2.802   6.277  15.186  1.0285  0.6298 -0.5397
 9437TIP3   OH249725   4.192   5.888  10.986  0.4676 -0.5670 -0.0375
 9437TIP3    H149726   4.230   5.802  10.969 -0.0213 -0.3668 -2.4324
 9437TIP3    H249727   4.107   5.886  10.942 -0.0599  0.7743  0.8495
 9438TIP3   OH249728   3.980   0.675  14.411  0.3214 -0.0984 -0.7379
 9438TIP3    H149729   3.930   0.728  14.473  1.1825  0.9563 -0.9046
 9438TIP3    H249730   3.938   0.589  14.412 -0.6548  0.3772  0.1015
 9439TIP3   OH249731   1.123   4.217  15.852  0.1318 -0.4259  0.1085
 9439TIP3    H149732   1.052   4.254  15.799 -0.1885 -1.7470 -0.4351
 9439TIP3    H249733   1.188   4.286  15.857 -0.4698  0.2293 -0.8032
 9440TIP3   OH249734   3.719   1.296  15.241  0.4436  0.0171 -0.5753
 9440TIP3    H149735   3.687   1.386  15.251 -1.3169 -0.8121  2.6909
 9440TIP3    H249736   3.717   1.260  15.329  0.2811 -3.5136 -1.8634
 9441TIP3   OH249737   1.889   6.180   3.915 -0.4734  0.8206 -0.1244
 9441TIP3    H149738   1.900   6.219   4.002  1.6830 -0.1543  0.1341
 9441TIP3    H249739   1.799   6.149   3.914 -0.4674  0.5514  1.9365
 9442TIP3   OH249740   6.698   2.305  12.563  0.0239  0.4851 -0.5943
 9442TIP3    H149741   6.603   2.297  12.555 -0.1498 -0.3512  1.5144
 9442TIP3    H249742   6.712   2.396  12.589 -0.3294  0.3498  0.1160
 9443TIP3   OH249743   1.693   2.311   6.419  0.4181 -0.3843 -0.2411
 9443TIP3    H149744   1.671   2.369   6.346  0.9568  0.6669  0.4024
 9443TIP3    H249745   1.612   2.262   6.436 -0.9816  2.0971  0.9023
 9444TIP3   OH249746   5.753   0.924   1.680 -0.8475  0.3238 -0.7880
 9444TIP3    H149747   5.834   0.880   1.656 -0.2286  1.2304 -0.3826
 9444TIP3    H249748   5.725   0.969   1.600 -0.4861  0.7154 -0.6986
 9445TIP3   OH249749   2.201   4.568   0.025 -0.4482  0.9803  0.3091
 9445TIP3    H149750   2.143   4.640   0.051 -1.2693  0.0556  1.1149
 9445TIP3    H249751   2.281   4.583   0.074 -0.0166  2.2039 -0.7178
 9446TIP3   OH249752   0.249   2.665   2.408  0.0790  0.3211  0.2357
 9446TIP3    H149753   0.203   2.668   2.492  0.0036 -1.5236  0.2834
 9446TIP3    H249754   0.182   2.643   2.344  0.5477 -0.5526  0.0330
 9447TIP3   OH249755   4.668   4.072   1.992  0.1478  0.2188  0.0478
 9447TIP3    H149756   4.748   4.021   1.981 -0.2108 -0.2842 -0.2660
 9447TIP3    H249757   4.670   4.136   1.922  0.9588  1.1253  0.8777
 9448TIP3   OH249758   1.245   5.174   3.159 -0.1872 -0.5977 -0.6759
 9448TIP3    H149759   1.341   5.181   3.158 -0.1460 -1.0924 -2.4237
 9448TIP3    H249760   1.225   5.105   3.096 -1.7180 -0.3198 -0.5258
 9449TIP3   OH249761   4.359   6.768   5.124 -0.1642  0.0064 -0.2306
 9449TIP3    H149762   4.287   6.830   5.129 -0.1939  0.3595 -3.0786
 9449TIP3    H249763   4.320   6.684   5.148 -0.9298  0.5607  0.5065
 9450TIP3   OH249764   4.845   2.772   1.349  0.1493 -0.0703 -0.0567
 9450TIP3    H149765   4.870   2.863   1.336 -2.0211  0.4269 -1.1599
 9450TIP3    H249766   4.858   2.731   1.263 -0.0657 -0.4991  0.1115
 9451TIP3   OH249767   4.947   4.836   1.328 -0.2423  0.2653  0.1703
 9451TIP3    H149768   5.015   4.785   1.284  1.0729  2.2395 -0.2319
 9451TIP3    H249769   4.865   4.803   1.291  0.7237  0.5535 -2.4423
 9452TIP3   OH249770   6.215   6.263  11.160  0.1326  0.0201  0.5561
 9452TIP3    H149771   6.169   6.280  11.078 -1.0945 -1.9571  0.7928
 9452TIP3    H249772   6.306   6.287  11.141 -0.4874  1.6233 -0.6819
 9453TIP3   OH249773   6.388   1.862  16.545 -0.2671 -0.6153  0.0713
 9453TIP3    H149774   6.481   1.866  16.565 -0.3866 -1.5957  0.8605
 9453TIP3    H249775   6.358   1.953  16.554 -0.0132 -0.7414  3.0392
 9454TIP3   OH249776   2.817   1.409   4.494  0.3238 -0.1780 -0.0673
 9454TIP3    H149777   2.901   1.407   4.538  0.2952 -1.8525 -0.0379
 9454TIP3    H249778   2.823   1.341   4.427 -1.1014 -0.5119  0.1168
 9455TIP3   OH249779   2.220   6.305  15.801 -0.1200 -0.1532 -0.3412
 9455TIP3    H149780   2.280   6.231  15.811 -0.9859 -0.9390 -0.8690
 9455TIP3    H249781   2.190   6.322  15.890  0.8281  0.2218 -0.0731
 9456TIP3   OH249782   6.113   2.718   2.840 -0.4862 -0.4025  0.2335
 9456TIP3    H149783   6.100   2.667   2.920 -0.6758  2.0693  1.8999
 9456TIP3    H249784   6.069   2.801   2.857  0.7026  0.7613 -1.8883
 9457TIP3   OH249785   3.580   5.122   2.420  0.2862 -0.2345 -0.8652
 9457TIP3    H149786   3.501   5.085   2.379 -0.3544  0.2962 -0.1454
 9457TIP3    H249787   3.590   5.073   2.502 -0.6119  1.1738  0.1312
 9458TIP3   OH249788   4.843   2.748   0.624  0.4772  0.1399 -0.6759
 9458TIP3    H149789   4.807   2.727   0.710  0.6381 -0.4912 -0.7546
 9458TIP3    H249790   4.938   2.742   0.637  0.4855 -0.9722 -1.1325
 9459TIP3   OH249791   5.532   2.747  11.755  0.1030  0.1725 -0.5900
 9459TIP3    H149792   5.555   2.661  11.790  1.0880  0.5379 -0.3276
 9459TIP3    H249793   5.518   2.802  11.832 -0.2614  0.3225 -0.7596
 9460TIP3   OH249794   0.753   2.187   0.822  0.1707  0.5882  0.2262
 9460TIP3    H149795   0.718   2.104   0.791 -0.5459  0.9438  0.0590
 9460TIP3    H249796   0.737   2.186   0.917  1.3660 -0.0249  0.4396
 9461TIP3   OH249797   5.620   2.565  14.149 -0.1558 -0.0337 -0.1968
 9461TIP3    H149798   5.680   2.500  14.186 -1.2357 -0.5122  0.8115
 9461TIP3    H249799   5.608   2.629  14.219 -1.4474 -0.3993 -0.0523
 9462TIP3   OH249800   5.268   3.643  12.650  0.0105  0.1311 -0.2201
 9462TIP3    H149801   5.290   3.694  12.572  0.0737 -1.5110 -1.3355
 9462TIP3    H249802   5.176   3.662  12.666 -0.7759 -1.4296 -2.3152
 9463TIP3   OH249803   6.420   1.940  14.483 -0.3383  0.1397  0.0906
 9463TIP3    H149804   6.376   2.023  14.499 -0.9563 -0.0163 -0.7232
 9463TIP3    H249805   6.366   1.875  14.527  0.3766  0.1999  1.0911
 9464TIP3   OH249806   2.322   3.098   1.853  0.7575 -0.0835  0.1459
 9464TIP3    H149807   2.232   3.118   1.878  1.2144 -0.1921  2.0038
 9464TIP3    H249808   2.319   3.008   1.819 -0.0146  0.3590 -1.0192
 9465TIP3   OH249809   3.128   2.289   2.917 -0.2504  0.2258 -0.2741
 9465TIP3    H149810   3.056   2.343   2.950 -0.4908 -0.3494  0.1380
 9465TIP3    H249811   3.206   2.330   2.954 -0.5842 -1.1915  2.1972
 9466TIP3   OH249812   1.057   0.223  13.368 -0.1284  0.2752  0.5831
 9466TIP3    H149813   1.129   0.161  13.378 -1.3798 -1.1489  1.0040
 9466TIP3    H249814   1.053   0.268  13.452 -0.7513 -0.8049  1.1513
 9467TIP3   OH249815   4.813   6.703  12.601  0.1517  0.4807 -1.2799
 9467TIP3    H149816   4.849   6.787  12.575  1.3445  0.8311  1.2067
 9467TIP3    H249817   4.890   6.647  12.612 -0.4955 -0.3931 -1.1087
 9468TIP3   OH249818   1.118   4.718  11.326  0.5125 -0.6667 -0.3753
 9468TIP3    H149819   1.104   4.794  11.269 -1.1769 -0.9432 -0.3895
 9468TIP3    H249820   1.032   4.677  11.333  0.8357 -1.0990  1.7389
 9469TIP3   OH249821   4.340   5.464  13.003  0.0600  0.2601 -0.2304
 9469TIP3    H149822   4.289   5.402  12.951 -0.9334 -0.2678  1.2863
 9469TIP3    H249823   4.372   5.528  12.940 -0.7197 -0.5841 -1.5347
 9470TIP3   OH249824   5.522   2.003   0.448  0.5393 -0.5013 -0.2129
 9470TIP3    H149825   5.617   1.995   0.447  0.6401  0.3464  0.8841
 9470TIP3    H249826   5.492   1.942   0.381  1.9038 -0.0078 -1.3093
 9471TIP3   OH249827   5.541   1.339   4.774  0.1231  0.2072 -0.2571
 9471TIP3    H149828   5.597   1.312   4.846 -0.6573 -0.9650 -0.0629
 9471TIP3    H249829   5.571   1.427   4.752  0.8347  0.3145  1.0341
 9472TIP3   OH249830   4.091   1.819   5.071 -0.4461  0.1405 -0.2015
 9472TIP3    H149831   4.011   1.797   5.121 -0.6520  1.0383 -0.1147
 9472TIP3    H249832   4.074   1.907   5.038  1.0318  0.8964  0.9228
 9473TIP3   OH249833   1.013   5.306  14.393  0.1881  0.5940  0.5419
 9473TIP3    H149834   1.066   5.243  14.443  0.1381 -0.4728 -0.7036
 9473TIP3    H249835   1.070   5.381  14.381  1.7994 -0.8331 -1.4526
 9474TIP3   OH249836   0.577   3.832  12.148 -0.4602 -0.4552 -0.0364
 9474TIP3    H149837   0.530   3.837  12.231  0.7975 -0.1417  0.6737
 9474TIP3    H249838   0.634   3.909  12.149 -1.3745  0.3177 -1.8002
 9475TIP3   OH249839   4.430   2.982  12.505 -0.1331  0.8086 -0.0290
 9475TIP3    H149840   4.432   2.894  12.467 -1.5596  0.6490  0.2461
 9475TIP3    H249841   4.515   3.020  12.481 -0.3493  0.1384 -2.0010
 9476TIP3   OH249842   1.286   3.816  13.246  0.2073 -0.4648  0.1691
 9476TIP3    H149843   1.372   3.821  13.205  0.3850 -1.7520  0.3214
 9476TIP3    H249844   1.230   3.774  13.180 -0.3318  0.4093  0.0492
 9477TIP3   OH249845   0.527   2.047  11.562 -0.4091 -0.1787 -0.5236
 9477TIP3    H149846   0.579   2.110  11.511  0.8678 -0.0441  0.8781
 9477TIP3    H249847   0.575   1.965  11.554 -0.3810 -0.2326  0.1829
 9478TIP3   OH249848   1.245   6.682  16.869  0.8083 -0.0311 -0.4584
 9478TIP3    H149849   1.178   6.678  16.938  3.4879  2.0006  2.5961
 9478TIP3    H249850   1.196   6.702  16.789 -2.2596  1.4312  1.5587
 9479TIP3   OH249851   1.304   5.342   5.655  0.0842  0.4181 -0.3065
 9479TIP3    H149852   1.384   5.290   5.656  1.0094  1.7541  1.1565
 9479TIP3    H249853   1.256   5.313   5.578  2.0716 -0.2852 -1.3220
 9480TIP3   OH249854   2.766   5.197   1.927 -0.0111 -0.1741  0.2921
 9480TIP3    H149855   2.783   5.199   1.833  1.6067 -0.9415  0.5359
 9480TIP3    H249856   2.689   5.253   1.939  0.4683  0.8778 -1.3312
 9481TIP3   OH249857   6.162   2.242  12.673 -0.2138 -0.0135 -0.3117
 9481TIP3    H149858   6.153   2.187  12.595 -0.4084  0.1338 -0.3933
 9481TIP3    H249859   6.085   2.220  12.726 -0.7893  0.8596 -0.7654
 9482TIP3   OH249860   1.677   0.360   2.925 -0.2597 -0.7923  0.0459
 9482TIP3    H149861   1.589   0.330   2.900 -0.7200 -0.1195  0.8348
 9482TIP3    H249862   1.670   0.382   3.017  0.5191  0.1120 -0.1005
 9483TIP3   OH249863   2.534   5.944  15.052 -0.0475  0.1782  0.0214
 9483TIP3    H149864   2.585   5.883  14.998 -1.1839  0.4811 -1.4548
 9483TIP3    H249865   2.446   5.908  15.053  0.1622 -0.5455  2.8728
 9484TIP3   OH249866   1.210   3.876   5.550 -0.2985  0.1925 -0.2073
 9484TIP3    H149867   1.181   3.931   5.622 -1.0872 -1.0308  0.4504
 9484TIP3    H249868   1.222   3.936   5.477 -0.0039  1.3858  0.7921
 9485TIP3   OH249869   0.835   3.920   4.882 -0.3434  0.3638 -0.6106
 9485TIP3    H149870   0.749   3.892   4.850 -1.4430  2.1546  0.6222
 9485TIP3    H249871   0.838   4.014   4.865  0.4996  0.7222  1.2584
 9486TIP3   OH249872   3.139   5.177   2.175  0.2000  0.9767 -0.0651
 9486TIP3    H149873   3.048   5.147   2.170  0.7466 -0.9532  0.5285
 9486TIP3    H249874   3.189   5.108   2.132  1.5436  1.0820  1.2571
 9487TIP3   OH249875   5.350   3.633  14.922 -0.6561  0.2527  0.2413
 9487TIP3    H149876   5.380   3.577  14.850 -0.3747 -0.9418  1.2481
 9487TIP3    H249877   5.303   3.705  14.879  1.9515  1.1586 -1.2890
 9488TIP3   OH249878   2.812   2.633  11.606  0.5007 -0.1266 -0.3058
 9488TIP3    H149879   2.831   2.688  11.682  0.6823 -0.2698 -0.2465
 9488TIP3    H249880   2.778   2.694  11.540  0.2685 -0.0150 -0.0851
 9489TIP3   OH249881   6.158   5.760   2.938  0.6472  0.2730 -0.1419
 9489TIP3    H149882   6.240   5.791   2.975 -0.0733 -0.1473  1.9754
 9489TIP3    H249883   6.181   5.680   2.890  1.5614  0.5654 -0.1982
 9490TIP3   OH249884   6.215   2.536  17.022  0.6693  0.5239 -0.3575
 9490TIP3    H149885   6.278   2.595  17.064 -1.5187  0.6787  3.1380
 9490TIP3    H249886   6.223   2.454  17.072 -2.4570  0.8829  0.9696
 9491TIP3   OH249887   0.038   3.774  13.708  0.1494 -0.3385  0.0141
 9491TIP3    H149888  -0.041   3.818  13.676  1.0976  0.0298 -1.9265
 9491TIP3    H249889   0.099   3.845  13.728  0.6315 -0.6647 -0.2669
 9492TIP3   OH249890   5.006   5.055  15.973 -0.2607  0.8470 -0.3481
 9492TIP3    H149891   4.923   5.043  15.928 -0.4434  0.1458  0.1481
 9492TIP3    H249892   5.067   4.999  15.925 -0.7640 -0.9957  1.0465
 9493TIP3   OH249893   5.536   2.330   2.537 -0.4763 -0.0961 -0.2993
 9493TIP3    H149894   5.616   2.351   2.488 -0.1839 -0.2823  0.1014
 9493TIP3    H249895   5.543   2.380   2.618 -0.2848 -0.9087  0.1917
 9494TIP3   OH249896   1.308   0.719  14.603 -0.0970  0.1688  0.1794
 9494TIP3    H149897   1.343   0.805  14.625 -0.7767  0.4770  0.0749
 9494TIP3    H249898   1.214   0.731  14.600 -0.1271 -0.0448 -2.0245
 9495TIP3   OH249899   3.362   4.052  13.342  0.1840 -0.1585 -0.2785
 9495TIP3    H149900   3.416   3.985  13.383 -0.7587 -0.5300  0.3855
 9495TIP3    H249901   3.289   4.004  13.304  0.1941  0.3611 -0.9769
 9496TIP3   OH249902   4.155   6.032  13.673  0.0388 -0.0266 -0.6503
 9496TIP3    H149903   4.119   6.040  13.761  0.5320 -1.8002 -0.2398
 9496TIP3    H249904   4.250   6.032  13.686  0.1075 -1.4774 -1.0345
 9497TIP3   OH249905   2.260   5.765  11.915 -0.5523  0.4024 -0.2809
 9497TIP3    H149906   2.225   5.795  12.000 -0.5686  0.7355 -0.4021
 9497TIP3    H249907   2.324   5.699  11.937 -0.8818  0.1646 -0.0262
 9498TIP3   OH249908   5.371   6.635  10.396 -0.3384  0.3516 -0.5485
 9498TIP3    H149909   5.295   6.620  10.341  0.0858  0.9345 -1.3094
 9498TIP3    H249910   5.375   6.730  10.405 -1.1658  0.2497  1.5920
 9499TIP3   OH249911   4.946   1.159  16.245 -0.3997  0.6585 -0.4084
 9499TIP3    H149912   4.880   1.144  16.313 -0.5025 -2.0676 -0.9944
 9499TIP3    H249913   5.028   1.128  16.284 -0.0052  1.3097 -0.7068
 9500TIP3   OH249914   6.023   6.405  10.606 -0.4063 -0.0268 -0.2192
 9500TIP3    H149915   5.958   6.427  10.540  1.2969  0.8156 -1.7072
 9500TIP3    H249916   6.053   6.317  10.583  0.0097  0.1672 -0.4343
 9501TIP3   OH249917   0.753   1.955  11.787  0.1302  0.1865 -0.3265
 9501TIP3    H149918   0.752   1.930  11.879  0.8411  3.1505  0.5831
 9501TIP3    H249919   0.822   1.902  11.748  1.0426  0.1570  1.2658
 9502TIP3   OH249920   0.659   0.049  16.631 -0.9198 -0.6147  1.1197
 9502TIP3    H149921   0.616  -0.024  16.587 -0.3349 -0.5352  0.3889
 9502TIP3    H249922   0.725   0.008  16.687 -0.1951 -0.6474  0.2742
 9503TIP3   OH249923   5.239   4.047  12.955  0.4566  0.5295 -0.2629
 9503TIP3    H149924   5.222   4.070  12.863  3.0137 -0.5780 -1.1214
 9503TIP3    H249925   5.238   4.131  13.001 -1.0815  1.0828 -1.2446
 9504TIP3   OH249926   6.262   0.748   1.344 -0.2413  0.2135 -0.0241
 9504TIP3    H149927   6.194   0.753   1.276 -1.5177  0.6668  1.2374
 9504TIP3    H249928   6.223   0.693   1.412 -0.6784  2.9563  2.1270
 9505TIP3   OH249929   3.829   2.354  11.314 -0.0189 -0.2185 -0.4441
 9505TIP3    H149930   3.861   2.274  11.356 -2.6866 -0.7279  0.8959
 9505TIP3    H249931   3.781   2.323  11.237 -0.5848  0.1248 -0.2366
 9506TIP3   OH249932   4.130   0.148  16.444  0.4970  0.0266 -0.6606
 9506TIP3    H149933   4.222   0.175  16.435  0.2771  1.8653  1.6340
 9506TIP3    H249934   4.081   0.229  16.434 -0.6975 -0.5318  0.5478
 9507TIP3   OH249935   0.627   6.733   3.825 -0.3562  0.2886  0.2801
 9507TIP3    H149936   0.654   6.824   3.807 -1.4480  0.7433  0.8587
 9507TIP3    H249937   0.587   6.704   3.744  2.5027 -0.7033 -0.9157
 9508TIP3   OH249938   2.974   5.812  15.622 -0.3538 -0.2340 -0.0955
 9508TIP3    H149939   3.024   5.751  15.567 -0.1281  0.7296 -0.9969
 9508TIP3    H249940   2.912   5.756  15.669  0.7578 -1.3122  0.1422
 9509TIP3   OH249941   5.189   5.295  13.634  0.2869  0.0130 -0.5488
 9509TIP3    H149942   5.219   5.204  13.631  0.6398  0.1196 -0.3805
 9509TIP3    H249943   5.218   5.332  13.551 -0.2321 -0.1386 -0.8025
 9510TIP3   OH249944   1.171   6.567  15.419 -0.2496 -0.4876  0.1436
 9510TIP3    H149945   1.178   6.602  15.330  0.4591  0.6467  0.6260
 9510TIP3    H249946   1.114   6.490  15.410  2.2298 -2.2773 -1.8070
 9511TIP3   OH249947   6.093   4.265   0.441  0.2735  0.5586  0.1984
 9511TIP3    H149948   6.140   4.233   0.364  1.5780  0.9397  0.8122
 9511TIP3    H249949   6.018   4.206   0.449  1.3553 -0.9115 -0.0494
 9512TIP3   OH249950   2.946   6.575  15.695  0.1389 -0.1606 -0.2808
 9512TIP3    H149951   2.918   6.561  15.605  1.0421  0.5751 -0.6799
 9512TIP3    H249952   3.041   6.569  15.692  0.1255 -2.0923  0.9694
 9513TIP3   OH249953   6.017   1.662  16.505 -0.3896 -0.1070 -0.4429
 9513TIP3    H149954   5.976   1.580  16.477  1.2507 -1.5651  1.1445
 9513TIP3    H249955   6.094   1.671  16.449 -0.6797  0.4905 -0.7569
 9514TIP3   OH249956   0.232   4.386  11.179  0.0344  0.5392  0.4892
 9514TIP3    H149957   0.314   4.424  11.209  0.2676 -0.4695  1.1388
 9514TIP3    H249958   0.192   4.455  11.126  1.5736  0.8264 -0.3448
 9515TIP3   OH249959   5.324   4.735  16.328 -0.3374 -0.5498  0.0909
 9515TIP3    H149960   5.321   4.722  16.422 -2.1833 -0.4599  0.0892
 9515TIP3    H249961   5.329   4.647  16.291  0.3070 -0.5882  0.2591
 9516TIP3   OH249962   0.755   1.533  14.281 -0.3924 -0.5598  0.2150
 9516TIP3    H149963   0.836   1.484  14.267  0.3333  0.9481 -1.2084
 9516TIP3    H249964   0.689   1.486  14.231  0.2509 -0.2369 -0.9639
 9517TIP3   OH249965   5.218   6.536   0.741 -0.4121  0.2022 -0.3514
 9517TIP3    H149966   5.181   6.530   0.653 -0.1594 -0.9995 -0.3882
 9517TIP3    H249967   5.142   6.540   0.799 -0.6152 -0.8740 -0.5188
 9518TIP3   OH249968   0.497   3.820  11.076  0.0415  0.0174 -0.1961
 9518TIP3    H149969   0.511   3.914  11.088  2.8611  0.1942 -3.2527
 9518TIP3    H249970   0.466   3.812  10.986 -0.2446 -1.9771  0.0413
 9519TIP3   OH249971   0.735   3.413   4.524 -0.3397 -0.2710  0.6213
 9519TIP3    H149972   0.686   3.495   4.524 -1.5323 -0.9537  0.6263
 9519TIP3    H249973   0.712   3.371   4.607 -0.2898 -0.9143  0.3192
 9520TIP3   OH249974   5.419   0.155   6.690 -0.3974  0.3518  0.2689
 9520TIP3    H149975   5.504   0.183   6.724 -0.0884 -1.9158  1.5779
 9520TIP3    H249976   5.437   0.124   6.602  0.3837 -1.0300  0.8810
 9521TIP3   OH249977   4.032   4.155  16.992 -0.0580  0.2079  0.0965
 9521TIP3    H149978   3.938   4.173  17.001  0.1374  1.5019 -0.1926
 9521TIP3    H249979   4.069   4.180  17.077 -0.1020 -1.3583  0.6006
 9522TIP3   OH249980   4.379   4.234   5.484 -0.1052 -0.0946  0.4352
 9522TIP3    H149981   4.357   4.231   5.391  0.3900  0.2593  0.3020
 9522TIP3    H249982   4.295   4.230   5.529 -0.3206 -0.7898 -0.0140
 9523TIP3   OH249983   5.747   1.724  12.640 -0.3754 -0.6612 -0.5583
 9523TIP3    H149984   5.796   1.750  12.718 -0.2235 -1.5679 -0.3326
 9523TIP3    H249985   5.692   1.651  12.670  0.4685 -1.7421 -1.5257
 9524TIP3   OH249986   2.507   4.805   1.805  0.1703  0.3767  0.4331
 9524TIP3    H149987   2.418   4.841   1.799  0.4378  1.5228  2.2953
 9524TIP3    H249988   2.494   4.710   1.810 -0.6530  0.1850 -3.1690
 9525TIP3   OH249989   1.911   5.171   4.055 -0.4030  0.8770 -0.7021
 9525TIP3    H149990   1.968   5.244   4.078 -1.1233  0.8176  1.5804
 9525TIP3    H249991   1.833   5.211   4.018  0.0395  1.1067 -1.4069
 9526TIP3   OH249992   4.399   1.012  15.576  0.4312 -0.2632  0.0495
 9526TIP3    H149993   4.374   0.922  15.600  1.3203 -0.3386  0.7535
 9526TIP3    H249994   4.493   1.015  15.592  0.1816  1.2474  1.5639
 9527TIP3   OH249995   1.813   5.619  11.717 -0.2218  0.2828  0.6584
 9527TIP3    H149996   1.737   5.567  11.743 -0.9025  0.5281 -0.7231
 9527TIP3    H249997   1.848   5.571  11.641  0.6235  0.5154  0.9015
 9528TIP3   OH249998   5.106   0.099  11.782  0.3892 -0.1069  0.3131
 9528TIP3    H149999   5.148   0.013  11.770 -1.0590 -0.8112  0.1292
 9528TIP3    H250000   5.140   0.130  11.866 -0.4242 -1.6819  1.2593
 9529TIP3   OH250001   5.504   4.005   0.806  0.1535  0.4662 -0.1587
 9529TIP3    H150002   5.514   3.915   0.836  1.9514  0.6433 -0.1479
 9529TIP3    H250003   5.444   4.045   0.870 -0.0467 -0.5006  0.2726
 9530TIP3   OH250004   5.552   4.740  11.070  0.1508 -0.3767 -0.0247
 9530TIP3    H150005   5.572   4.805  11.138  0.2918  0.3722 -0.7624
 9530TIP3    H250006   5.579   4.656  11.108  1.1679  0.1513  0.4554
 9531TIP3   OH250007   5.169   5.189  14.131  0.0233  0.3538  0.6630
 9531TIP3    H150008   5.204   5.222  14.049 -0.3617  1.0947  0.7833
 9531TIP3    H250009   5.125   5.108  14.109 -0.9635  1.0614 -0.0537
 9532TIP3   OH250010   1.663   6.687  16.809 -0.1172  0.1180  0.3533
 9532TIP3    H150011   1.637   6.762  16.755 -2.0750  0.5862  1.8316
 9532TIP3    H250012   1.582   6.636  16.818  1.0816 -2.0067 -0.2869
 9533TIP3   OH250013   5.979   2.523   5.479 -0.3965  0.2078  0.5827
 9533TIP3    H150014   5.887   2.538   5.499 -0.0868  1.4581  1.1943
 9533TIP3    H250015   5.978   2.468   5.400 -1.6478 -0.6936  1.1946
 9534TIP3   OH250016   0.384   3.687   0.643  0.5798  0.3528 -0.2295
 9534TIP3    H150017   0.440   3.763   0.658  2.1475 -0.8356  0.2298
 9534TIP3    H250018   0.342   3.672   0.728  2.1589 -0.7174  0.4021
 9535TIP3   OH250019   2.940   6.125  13.093 -0.0743 -0.5114  0.7165
 9535TIP3    H150020   2.946   6.045  13.145  0.8762 -2.4311 -2.1410
 9535TIP3    H250021   3.001   6.112  13.021 -2.2249  1.3548 -1.6429
 9536TIP3   OH250022   1.792   1.999  12.805 -0.2832 -0.3447  0.7245
 9536TIP3    H150023   1.793   1.970  12.896  0.3475  2.2901  1.6643
 9536TIP3    H250024   1.882   2.023  12.785 -0.5035 -0.3640 -0.4156
 9537TIP3   OH250025   2.536   6.116   2.244  0.3295 -0.2736 -0.1160
 9537TIP3    H150026   2.464   6.072   2.200  1.6875 -1.2082 -1.5233
 9537TIP3    H250027   2.538   6.077   2.332 -1.4588  0.4944  0.2933
 9538TIP3   OH250028   3.272   2.236   0.633  0.0054 -0.0869 -0.3895
 9538TIP3    H150029   3.213   2.237   0.558 -0.8683  0.7094  0.2719
 9538TIP3    H250030   3.228   2.180   0.697  0.0566  0.3439  0.0297
 9539TIP3   OH250031   3.208   6.602  16.521 -0.3183 -0.5012  0.4094
 9539TIP3    H150032   3.127   6.571  16.562 -1.6510 -0.2227 -1.8341
 9539TIP3    H250033   3.215   6.694  16.547  0.5284 -1.0857  2.4016
 9540TIP3   OH250034   5.707   5.922   0.993 -0.2854  0.3117 -0.4878
 9540TIP3    H150035   5.619   5.951   0.968 -0.1564  0.7915 -0.4097
 9540TIP3    H250036   5.715   5.834   0.958 -0.9464  0.1128 -0.1551
 9541TIP3   OH250037   5.447   1.472  11.138 -0.7866  0.1746  0.3654
 9541TIP3    H150038   5.469   1.563  11.161  0.4319 -0.1415  0.5456
 9541TIP3    H250039   5.361   1.458  11.176 -0.1224  0.6300  2.1584
 9542TIP3   OH250040   5.502   2.196   5.349 -0.8603 -0.0075  0.5383
 9542TIP3    H150041   5.522   2.289   5.358 -1.5655  0.1843  0.2547
 9542TIP3    H250042   5.517   2.159   5.436 -0.1341  0.2754  0.5399
 9543TIP3   OH250043   1.765   6.572   2.388  0.0596 -0.0691 -0.2249
 9543TIP3    H150044   1.703   6.643   2.374 -0.3167 -0.6565 -1.6897
 9543TIP3    H250045   1.711   6.494   2.400  0.4925 -0.3029  0.2907
 9544TIP3   OH250046   3.024   3.001   3.300 -0.0919 -0.6899  0.4302
 9544TIP3    H150047   3.089   3.000   3.369  0.7518  0.0424 -0.3281
 9544TIP3    H250048   3.056   3.065   3.237 -1.3414 -0.6080 -0.1640
 9545TIP3   OH250049   4.428   6.003  11.066 -0.3464  0.0364  0.9554
 9545TIP3    H150050   4.485   5.940  11.111 -0.9768 -0.2932  1.3127
 9545TIP3    H250051   4.349   5.953  11.046  0.8007 -0.6352 -2.8488
 9546TIP3   OH250052   0.850   0.954   5.760 -0.2250 -0.5244 -0.4214
 9546TIP3    H150053   0.928   0.913   5.798  0.1016  1.9241  1.8275
 9546TIP3    H250054   0.883   0.997   5.680  0.7462  0.3627  0.4249
 9547TIP3   OH250055   5.434   5.713   1.692  0.3428  0.3800  0.2848
 9547TIP3    H150056   5.473   5.727   1.605  0.4040  1.5150  0.4795
 9547TIP3    H250057   5.469   5.629   1.720  0.4519  0.0735 -0.7265
 9548TIP3   OH250058   0.391   2.891  13.575 -0.1284 -0.1355 -0.2176
 9548TIP3    H150059   0.324   2.941  13.623 -1.0364 -1.6417  0.1551
 9548TIP3    H250060   0.458   2.873  13.641 -0.3586 -0.3934 -0.0506
 9549TIP3   OH250061   3.659   6.416   2.234 -0.4713  0.4422  0.5264
 9549TIP3    H150062   3.636   6.428   2.141  0.1734  0.4096  0.3552
 9549TIP3    H250063   3.580   6.443   2.282 -0.3151  1.8620  0.0258
 9550TIP3   OH250064   1.317   3.830   4.165 -0.0400 -0.0705 -0.0793
 9550TIP3    H150065   1.258   3.769   4.121 -2.0667  0.0591  2.2494
 9550TIP3    H250066   1.260   3.899   4.200  1.9032  1.9032 -0.5208
 9551TIP3   OH250067   0.449   2.340  11.072 -0.0425 -0.3033 -0.1799
 9551TIP3    H150068   0.416   2.306  10.988  0.7348 -0.8551 -0.2771
 9551TIP3    H250069   0.404   2.288  11.138 -1.5666  0.9492 -0.1975
 9552TIP3   OH250070   5.285   2.725  12.088  0.3195 -0.6476 -0.1221
 9552TIP3    H150071   5.238   2.687  12.014 -0.5772 -0.5944  0.4048
 9552TIP3    H250072   5.292   2.653  12.151 -2.1224  0.1801  1.2312
 9553TIP3   OH250073   2.092   1.700  15.665 -0.7665  0.3845  0.5053
 9553TIP3    H150074   2.128   1.622  15.624 -2.2250 -0.2918  0.4170
 9553TIP3    H250075   2.094   1.681  15.759  0.7368  1.1008  0.6340
 9554TIP3   OH250076   6.400   0.780  16.812 -0.4613  0.0009 -0.2197
 9554TIP3    H150077   6.415   0.690  16.783 -0.6374 -0.0211 -0.2452
 9554TIP3    H250078   6.341   0.772  16.887 -1.6870  0.1695 -1.1296
 9555TIP3   OH250079   4.117   2.840  13.323 -0.1313  0.3615  0.4864
 9555TIP3    H150080   4.079   2.883  13.246 -0.9734  2.1359  1.8172
 9555TIP3    H250081   4.075   2.883  13.397 -1.4916 -3.1880  1.9923
 9556TIP3   OH250082   4.570   0.599  13.529 -0.0728  0.4161  0.0024
 9556TIP3    H150083   4.568   0.615  13.435  0.0952  2.6194  0.3134
 9556TIP3    H250084   4.516   0.669  13.566  0.9100  0.3644  1.6107
 9557TIP3   OH250085   3.386   0.180   4.092  0.2569 -0.1013 -0.3551
 9557TIP3    H150086   3.409   0.154   4.181 -0.9669  3.0754  1.0427
 9557TIP3    H250087   3.320   0.115   4.065  4.6740 -4.7232 -1.5162
 9558TIP3   OH250088   4.969   2.327  16.009 -0.0147 -0.2942  0.1805
 9558TIP3    H150089   5.058   2.304  15.981 -0.5196 -0.3922 -1.4784
 9558TIP3    H250090   4.976   2.417  16.041  0.8952 -0.7211  1.2632
 9559TIP3   OH250091   0.661   0.571  12.936  0.3237  0.2616  0.6586
 9559TIP3    H150092   0.656   0.534  13.024 -1.0331 -1.1383  0.0385
 9559TIP3    H250093   0.698   0.501  12.883  0.4922  0.8534 -0.0069
 9560TIP3   OH250094   4.865   4.818   5.864  0.1091  0.8932 -0.0486
 9560TIP3    H150095   4.855   4.849   5.954  0.4987 -0.2137  0.3972
 9560TIP3    H250096   4.929   4.877   5.825 -0.0628  1.3806  0.4052
 9561TIP3   OH250097   4.597   4.549  10.937  0.1888  0.0305 -0.3404
 9561TIP3    H150098   4.667   4.490  10.963 -0.6720 -0.9966 -0.2943
 9561TIP3    H250099   4.640   4.634  10.928  1.8353 -0.9105 -2.1768
 9562TIP3   OH250100   0.297   3.127  14.998 -0.2593 -0.4273  0.2108
 9562TIP3    H150101   0.335   3.191  14.938 -0.0142 -0.9808 -0.2405
 9562TIP3    H250102   0.318   3.042  14.958  0.1731 -0.8166  1.2332
 9563TIP3   OH250103   4.101   0.932   5.418  0.1107 -0.0286 -0.0135
 9563TIP3    H150104   4.046   0.894   5.348  0.7808  1.8499 -1.6408
 9563TIP3    H250105   4.099   0.866   5.487 -1.8112 -1.3246 -1.1846
 9564TIP3   OH250106   5.173   3.963  10.527 -0.3316 -0.2659  0.4335
 9564TIP3    H150107   5.128   3.993  10.448  0.0019 -0.0428  0.3263
 9564TIP3    H250108   5.259   3.935  10.496 -0.0544  0.2048  0.7774
 9565TIP3   OH250109   1.673   6.413  16.603 -0.4559 -0.2053 -0.1218
 9565TIP3    H150110   1.725   6.408  16.683 -0.3494  0.9454 -0.1106
 9565TIP3    H250111   1.722   6.360  16.540 -0.9207 -1.7434  0.7445
 9566TIP3   OH250112   2.275   6.501   5.666  0.1631 -0.3041 -0.3913
 9566TIP3    H150113   2.195   6.531   5.708  0.2720 -2.0561  1.2412
 9566TIP3    H250114   2.247   6.428   5.611  0.8601 -3.1070  2.6458
 9567TIP3   OH250115   4.550   3.108   5.022  0.2796  0.0809  0.2690
 9567TIP3    H150116   4.554   3.112   4.927  0.9028 -0.4393  0.2607
 9567TIP3    H250117   4.457   3.098   5.043  0.1262  0.3865 -0.2738
 9568TIP3   OH250118   1.471   4.628   5.484  0.1032 -0.1469 -0.0783
 9568TIP3    H150119   1.456   4.712   5.528 -1.4161  0.5200 -1.7400
 9568TIP3    H250120   1.508   4.572   5.552  2.6390  2.2592  0.7419
 9569TIP3   OH250121   6.286   0.308  13.125  0.5319 -0.4318 -0.1780
 9569TIP3    H150122   6.319   0.295  13.214 -0.3660  1.5311  0.5022
 9569TIP3    H250123   6.319   0.394  13.099 -0.4427 -0.3254 -1.1603
 9570TIP3   OH250124   0.023   5.333   6.012 -0.0453 -0.1320 -0.2617
 9570TIP3    H150125   0.113   5.349   5.982 -0.1636 -0.7398 -0.9634
 9570TIP3    H250126   0.034   5.298   6.101  0.3356  1.1007  0.2067
 9571TIP3   OH250127   5.799   4.701  16.848 -0.5874  0.4052 -0.3447
 9571TIP3    H150128   5.867   4.684  16.913  1.1604  0.0678 -2.1552
 9571TIP3    H250129   5.716   4.690  16.895  0.5904  0.6224  1.8895
 9572TIP3   OH250130   0.435   0.751  12.366 -0.2346  0.0507 -0.3375
 9572TIP3    H150131   0.440   0.769  12.272 -1.3861  0.6609 -0.3118
 9572TIP3    H250132   0.483   0.823  12.407 -0.2089  0.0964 -0.4478
 9573TIP3   OH250133   4.324   3.528  16.577  0.6649 -0.4717  0.1417
 9573TIP3    H150134   4.394   3.547  16.514  0.4747  0.4154  0.1719
 9573TIP3    H250135   4.304   3.436  16.565  3.1244 -1.2601  1.4244
 9574TIP3   OH250136   4.217   0.828   6.030  0.6065 -0.5472 -0.4203
 9574TIP3    H150137   4.207   0.756   5.967  2.0834 -3.8917  2.7729
 9574TIP3    H250138   4.131   0.838   6.069  0.8692 -2.6450  0.9149
 9575TIP3   OH250139   6.483   6.667   0.688  0.2645  0.0551 -0.0143
 9575TIP3    H150140   6.443   6.745   0.726  0.1819 -0.7176  1.5895
 9575TIP3    H250141   6.569   6.696   0.659  0.2357  0.7494  0.5602
 9576TIP3   OH250142   5.513   1.741   1.672 -0.0046 -0.1619 -0.1598
 9576TIP3    H150143   5.496   1.647   1.665 -0.2067 -0.2101  0.7910
 9576TIP3    H250144   5.502   1.760   1.766  0.2525  0.7652 -0.3100
 9577TIP3   OH250145   5.863   5.665   5.409 -0.3156 -0.4749  0.0466
 9577TIP3    H150146   5.793   5.721   5.443 -0.2201 -0.0955 -0.3653
 9577TIP3    H250147   5.841   5.651   5.317  0.9882  1.0322 -0.5482
 9578TIP3   OH250148   3.977   1.361  14.166  0.0018  0.3934 -0.1737
 9578TIP3    H150149   4.026   1.341  14.086 -1.5434 -2.4571 -0.5297
 9578TIP3    H250150   3.926   1.439  14.144 -0.1205 -0.1261 -1.8800
 9579TIP3   OH250151   1.779   5.872   4.296  0.1653 -0.2020 -0.0411
 9579TIP3    H150152   1.841   5.861   4.223 -0.2361 -0.3823 -0.3597
 9579TIP3    H250153   1.720   5.797   4.289 -1.5210  1.1258 -1.1718
 9580TIP3   OH250154   0.602   4.774   2.819  0.1343 -0.3240  0.4934
 9580TIP3    H150155   0.527   4.716   2.832 -0.5811  0.6345  0.7695
 9580TIP3    H250156   0.594   4.804   2.729 -0.9048  1.2221  1.0555
 9581TIP3   OH250157   1.226   2.208  15.235 -0.1716 -0.2634 -0.2623
 9581TIP3    H150158   1.225   2.258  15.317 -3.0766  0.3072 -0.5306
 9581TIP3    H250159   1.252   2.272  15.169 -2.9591  0.7974 -0.4642
 9582TIP3   OH250160   1.264   4.291  12.625  0.2108  0.3566 -0.2693
 9582TIP3    H150161   1.304   4.216  12.669  0.8890  1.5731  1.3248
 9582TIP3    H250162   1.337   4.335  12.581 -0.0974  0.3523 -0.7914
 9583TIP3   OH250163   6.399   2.125  13.177 -0.0913  0.5603 -0.7404
 9583TIP3    H150164   6.333   2.108  13.110  1.2619 -0.2362 -1.9161
 9583TIP3    H250165   6.447   2.201  13.144  0.0146  0.7189 -0.2241
 9584TIP3   OH250166   5.460   5.431   2.208  0.5690  0.2997  0.5546
 9584TIP3    H150167   5.449   5.479   2.290 -1.6038 -1.2810  1.2607
 9584TIP3    H250168   5.531   5.369   2.226 -1.3834 -1.5995  2.0789
 9585TIP3   OH250169   5.237   0.391  13.400 -0.0930  0.2278  0.3077
 9585TIP3    H150170   5.327   0.421  13.388 -0.6599  2.0312  0.2693
 9585TIP3    H250171   5.217   0.343  13.320  0.7746 -0.0666  0.2521
 9586TIP3   OH250172   0.763   1.840  10.253 -0.4390 -0.6186 -0.8186
 9586TIP3    H150173   0.669   1.848  10.237 -0.6896 -3.0367 -0.8670
 9586TIP3    H250174   0.770   1.826  10.347  0.1115  1.6912 -0.4419
 9587TIP3   OH250175   3.929   4.402  14.821  0.1725  0.6475 -0.0921
 9587TIP3    H150176   3.945   4.486  14.865 -0.5510  1.0238 -0.5281
 9587TIP3    H250177   3.839   4.408  14.790  0.1800 -0.2160 -0.3111
 9588TIP3   OH250178   3.956   4.030   2.062  0.0251 -0.0337 -0.1853
 9588TIP3    H150179   3.875   3.980   2.057 -1.1222  1.7273  0.0579
 9588TIP3    H250180   4.017   3.972   2.109 -1.1821 -1.2514 -0.0727
 9589TIP3   OH250181   3.051   3.109   4.441  0.1545 -0.2236 -0.1248
 9589TIP3    H150182   3.059   3.019   4.472  1.3384 -0.5025 -1.1543
 9589TIP3    H250183   3.108   3.113   4.364  1.7540  1.9285  1.0629
 9590TIP3   OH250184   5.822   3.455  16.197 -0.0316 -0.2958  0.7868
 9590TIP3    H150185   5.904   3.487  16.233  0.4655 -0.0889 -0.4994
 9590TIP3    H250186   5.843   3.428  16.108 -1.1746 -1.0489  0.7192
 9591TIP3   OH250187   3.135   6.354  14.193 -0.3658 -0.2024 -0.5393
 9591TIP3    H150188   3.207   6.298  14.224 -2.2435 -2.5933 -0.2045
 9591TIP3    H250189   3.103   6.397  14.272  0.4654  0.6716 -0.6511
 9592TIP3   OH250190   2.368   3.687  10.427 -0.2652  0.4374 -0.8299
 9592TIP3    H150191   2.357   3.750  10.498  0.6880 -0.2260 -0.0775
 9592TIP3    H250192   2.459   3.695  10.401  0.0696 -1.1279 -0.2385
 9593TIP3   OH250193   3.146   3.333   2.914 -0.8688  0.5767  0.0938
 9593TIP3    H150194   3.052   3.346   2.904 -1.0183  0.1642  0.9073
 9593TIP3    H250195   3.155   3.244   2.949 -0.1265  0.2526 -0.8756
 9594TIP3   OH250196   5.080   6.374  16.902 -0.2917  0.1987 -0.3699
 9594TIP3    H150197   5.074   6.281  16.921 -1.5225  0.0536 -1.3741
 9594TIP3    H250198   5.175   6.392  16.898 -0.0352 -0.7155  1.0621
 9595TIP3   OH250199   6.632   4.659   0.994 -0.0918 -0.1294 -0.1770
 9595TIP3    H150200   6.721   4.649   1.026 -0.2220 -1.0025 -0.0478
 9595TIP3    H250201   6.633   4.741   0.945  0.3651  0.7076  1.1708
 9596TIP3   OH250202   4.684   6.450   5.484 -0.3537  0.0330  0.3283
 9596TIP3    H150203   4.728   6.446   5.400 -0.6042 -0.4663  0.2160
 9596TIP3    H250204   4.680   6.360   5.514 -1.9510 -0.0512 -0.0157
 9597TIP3   OH250205   3.502   3.735  15.888  0.3830 -0.0839 -0.4216
 9597TIP3    H150206   3.533   3.819  15.923 -1.2891  0.2465  0.3526
 9597TIP3    H250207   3.549   3.669  15.941  1.9781  0.3092 -1.2758
 9598TIP3   OH250208   1.273   1.221   1.685 -0.1379  0.0023  0.2805
 9598TIP3    H150209   1.216   1.163   1.736  0.0946  0.4461  1.0746
 9598TIP3    H250210   1.294   1.292   1.746  0.7012  0.1992 -0.2272
 9599TIP3   OH250211   4.755   5.076   3.806 -0.3844 -0.2799 -0.1100
 9599TIP3    H150212   4.816   5.101   3.737  0.2840  1.2296  0.9537
 9599TIP3    H250213   4.675   5.050   3.761  1.0295 -2.4596 -1.5659
 9600TIP3   OH250214   1.027   1.042   6.088 -0.3319 -0.2338 -0.5040
 9600TIP3    H150215   1.105   1.008   6.042 -0.7149 -1.4981 -0.2544
 9600TIP3    H250216   1.063   1.094   6.160  0.2903 -0.4885 -0.6202
 9601TIP3   OH250217   0.087   6.305  15.462 -0.0436  0.0563 -0.3673
 9601TIP3    H150218   0.026   6.259  15.405  0.1724  0.2909 -0.7974
 9601TIP3    H250219   0.051   6.393  15.470  0.5402  0.3815 -1.1241
 9602TIP3   OH250220   3.005   4.559  16.515 -0.1181 -0.3561  0.0056
 9602TIP3    H150221   3.076   4.616  16.485  0.3922 -1.6911 -1.4374
 9602TIP3    H250222   3.028   4.537  16.606 -0.3258  1.6753  0.5956
 9603TIP3   OH250223   0.105   2.763   4.270  0.5304  0.0088  0.1617
 9603TIP3    H150224   0.174   2.702   4.297  1.7352  0.1419 -2.2725
 9603TIP3    H250225   0.152   2.840   4.239 -0.7360  0.4705 -0.7209
 9604TIP3   OH250226   3.340   5.051  13.734  0.6347  0.0857 -0.0103
 9604TIP3    H150227   3.295   4.991  13.674 -0.6914 -0.3367  1.3480
 9604TIP3    H250228   3.369   4.995  13.806  0.1167  0.9305  0.8796
 9605TIP3   OH250229   2.429   3.704   0.537 -0.2209  0.1927  0.1502
 9605TIP3    H150230   2.424   3.670   0.448  0.5579  0.7053 -0.1001
 9605TIP3    H250231   2.518   3.738   0.545  0.0417 -0.7057  1.4386
 9606TIP3   OH250232   1.906   4.728   1.849  0.0990  0.7248  0.6965
 9606TIP3    H150233   1.959   4.684   1.916  1.1455  0.5400 -0.2095
 9606TIP3    H250234   1.826   4.754   1.894 -0.5893 -2.0815  1.3075
 9607TIP3   OH250235   5.220   1.708   4.090 -0.1289 -0.3177  0.1043
 9607TIP3    H150236   5.295   1.711   4.031 -1.6846 -0.5624 -2.0286
 9607TIP3    H250237   5.171   1.630   4.063 -0.0797 -1.4595  2.9216
 9608TIP3   OH250238   4.825   5.081  16.982 -0.3049  0.2643 -0.1667
 9608TIP3    H150239   4.814   5.107  16.890 -0.1037 -0.5070 -0.4154
 9608TIP3    H250240   4.874   5.152  17.022 -0.2033  0.5012 -0.7128
 9609TIP3   OH250241   0.715   5.752   4.663  0.3665 -0.4801 -0.2292
 9609TIP3    H150242   0.650   5.730   4.596  0.8038 -0.6306 -0.6083
 9609TIP3    H250243   0.673   5.820   4.715  0.3305  0.2322 -1.1545
 9610TIP3   OH250244   3.117   6.216   2.181 -0.1558 -0.4487  0.1446
 9610TIP3    H150245   3.095   6.307   2.197  0.0488 -0.1004 -1.3755
 9610TIP3    H250246   3.192   6.219   2.122 -0.6341 -1.5902 -0.5680
 9611TIP3   OH250247   3.993   2.294   5.929  0.0048  0.2249 -0.4327
 9611TIP3    H150248   3.926   2.334   5.985 -1.4621 -1.2716 -1.0557
 9611TIP3    H250249   4.034   2.228   5.985  2.2602  2.2308  0.5126
 9612TIP3   OH250250   5.752   5.866  16.176  0.2080 -0.0567  0.3712
 9612TIP3    H150251   5.737   5.876  16.270 -1.0808  1.0665  0.0872
 9612TIP3    H250252   5.685   5.806  16.146 -0.8126  1.2898 -0.1560
 9613TIP3   OH250253   3.834   1.754   2.097  0.3463 -0.2507  0.1087
 9613TIP3    H150254   3.923   1.788   2.105  0.5397 -0.7890  0.3059
 9613TIP3    H250255   3.781   1.814   2.149  0.5486  0.2391 -0.2459
 9614TIP3   OH250256   6.702   6.214   6.369 -0.0835 -0.3825 -0.2284
 9614TIP3    H150257   6.722   6.254   6.284 -3.3503 -2.5103 -2.1967
 9614TIP3    H250258   6.650   6.280   6.415 -0.5574 -0.2262 -0.9888
 9615TIP3   OH250259   2.445   0.560  11.815  0.1053  0.1945  0.0222
 9615TIP3    H150260   2.446   0.500  11.889  0.0792 -0.4378 -0.4798
 9615TIP3    H250261   2.520   0.533  11.761 -0.5615 -0.1266 -0.7694
 9616TIP3   OH250262   2.510   1.417  11.814 -0.3711 -0.0822  0.1446
 9616TIP3    H150263   2.516   1.504  11.775  1.7648 -0.7762 -1.2392
 9616TIP3    H250264   2.434   1.377  11.773 -1.3075  1.0550  0.7104
 9617TIP3   OH250265   0.338   4.141  11.040  0.1118  0.1436  0.4483
 9617TIP3    H150266   0.300   4.215  11.087 -0.1749 -1.1364  2.3481
 9617TIP3    H250267   0.332   4.166  10.947 -1.9284  1.5741  0.8847
 9618TIP3   OH250268   4.574   5.811   1.292  0.0930 -0.2620  0.4375
 9618TIP3    H150269   4.604   5.751   1.224  2.4311  0.6362  0.5892
 9618TIP3    H250270   4.590   5.763   1.374  0.8398  0.0952  0.5054
 9619TIP3   OH250271   3.361   5.050   0.373 -0.7037 -0.0921  0.0583
 9619TIP3    H150272   3.402   5.043   0.459  1.8613  0.8801 -0.9909
 9619TIP3    H250273   3.400   4.979   0.322  1.1753  1.8769 -1.4586
 9620TIP3   OH250274   1.955   2.376  11.861  0.7044  0.0800  0.0869
 9620TIP3    H150275   1.882   2.330  11.821  1.8180 -0.6378 -1.1859
 9620TIP3    H250276   2.000   2.310  11.913  1.1793  0.2009 -0.1632
 9621TIP3   OH250277   3.181   6.741  15.951  0.4807 -0.7722  0.0662
 9621TIP3    H150278   3.166   6.777  16.038  0.1190  0.0989 -0.3424
 9621TIP3    H250279   3.254   6.681  15.962  0.6682 -0.4022  0.9077
 9622TIP3   OH250280   0.407   4.171  14.001 -0.2845  0.7464  0.0334
 9622TIP3    H150281   0.460   4.191  14.078  1.8182 -2.3985 -0.3752
 9622TIP3    H250282   0.399   4.254  13.954  3.5861  1.6424  0.6234
 9623TIP3   OH250283   3.282   6.166  11.407 -0.0951  0.4668 -0.2948
 9623TIP3    H150284   3.228   6.213  11.470  2.0644  1.2815  1.0403
 9623TIP3    H250285   3.315   6.233  11.348  0.7459  0.2285 -0.1034
 9624TIP3   OH250286   6.206   5.635  11.455  0.6765 -0.4993 -0.7632
 9624TIP3    H150287   6.203   5.540  11.443  1.6395 -0.8280  1.1582
 9624TIP3    H250288   6.119   5.665  11.430 -0.2349 -2.1315  0.2263
 9625TIP3   OH250289   1.901   2.320  10.968  0.3217 -0.4123  0.4401
 9625TIP3    H150290   1.905   2.400  10.915 -2.1325 -0.5610 -0.0836
 9625TIP3    H250291   1.969   2.263  10.931 -1.2147 -0.4765 -2.6151
 9626TIP3   OH250292   2.305   0.775   0.200  0.0666  0.3230  0.4567
 9626TIP3    H150293   2.238   0.837   0.230  0.5053  0.7240  0.6119
 9626TIP3    H250294   2.335   0.732   0.281  0.3021  0.4538  0.4404
 9627TIP3   OH250295   0.024   4.517   0.127  0.2880  0.4238  0.0763
 9627TIP3    H150296   0.050   4.434   0.088 -1.1404 -0.4541  0.8881
 9627TIP3    H250297   0.090   4.579   0.097 -0.2672 -0.3292 -3.0196
 9628TIP3   OH250298   5.018   4.971  12.772 -0.3102  0.2556 -0.3294
 9628TIP3    H150299   4.979   4.900  12.720 -2.5284 -0.1761  1.7556
 9628TIP3    H250300   5.104   4.938  12.797 -0.7585 -1.1217 -0.5255
 9629TIP3   OH250301   1.401   6.124   0.032  0.2005  0.1702  0.7720
 9629TIP3    H150302   1.347   6.176   0.091 -0.5050  0.3910 -0.0408
 9629TIP3    H250303   1.388   6.165  -0.054 -0.9391 -1.7617 -0.0230
 9630TIP3   OH250304   1.712   1.768   4.979 -0.2373 -0.6198 -0.4891
 9630TIP3    H150305   1.619   1.756   4.995 -1.1739  5.7126  1.7149
 9630TIP3    H250306   1.751   1.773   5.066  1.3643  0.6126 -1.2221
 9631TIP3   OH250307   3.462   4.508  11.657 -0.0447  0.0206 -0.2671
 9631TIP3    H150308   3.379   4.525  11.611 -0.4874 -1.2324  0.0234
 9631TIP3    H250309   3.440   4.517  11.749 -0.0687 -1.1077 -0.1518
 9632TIP3   OH250310   2.146   2.551   5.102 -0.3675 -0.2257  0.4158
 9632TIP3    H150311   2.080   2.494   5.141  1.1829 -1.8240  0.8532
 9632TIP3    H250312   2.198   2.581   5.177 -1.9942  3.0530  0.3943
 9633TIP3   OH250313   4.716   1.102  14.950  0.1243 -0.3869  0.0197
 9633TIP3    H150314   4.798   1.131  14.990  0.1775  0.0651 -0.4017
 9633TIP3    H250315   4.741   1.079  14.860 -0.4513  1.1475 -0.5698
 9634TIP3   OH250316   4.796   1.343   5.656  0.6456  0.1917 -0.0141
 9634TIP3    H150317   4.739   1.283   5.705 -1.2910  4.3092  3.3913
 9634TIP3    H250318   4.875   1.350   5.709  1.8676 -0.8492 -1.5756
 9635TIP3   OH250319   1.478   3.632   4.653 -0.0106  0.4703 -0.9098
 9635TIP3    H150320   1.446   3.542   4.644 -0.0953  0.3785  0.1582
 9635TIP3    H250321   1.514   3.636   4.742  0.8338  1.2338 -1.2610
 9636TIP3   OH250322   6.212   1.144   2.685  0.2670  0.4703  0.4697
 9636TIP3    H150323   6.129   1.170   2.644  1.2981  0.4252 -1.7990
 9636TIP3    H250324   6.192   1.060   2.727 -0.7972  0.3471 -0.2375
 9637TIP3   OH250325   5.226   5.589   0.673 -0.2326  0.2510  0.2323
 9637TIP3    H150326   5.135   5.620   0.680 -0.2213  0.6541 -1.1498
 9637TIP3    H250327   5.221   5.495   0.691 -0.8808  0.3259  0.4584
 9638TIP3   OH250328   3.067   3.148   2.646  0.0381  0.0700 -0.1579
 9638TIP3    H150329   3.086   3.203   2.722 -0.6978 -1.2018  0.9893
 9638TIP3    H250330   3.151   3.108   2.624  0.1014 -0.1905  0.5232
 9639TIP3   OH250331   2.054   2.823  13.182  0.4848 -0.7628 -0.1937
 9639TIP3    H150332   2.060   2.905  13.231  2.0009 -0.6114 -0.5741
 9639TIP3    H250333   2.089   2.757  13.242  0.9187 -0.8219 -0.5017
 9640TIP3   OH250334   1.887   6.670  15.263  0.2340  0.6742 -0.0772
 9640TIP3    H150335   1.904   6.614  15.187  0.4621  1.2975 -0.4920
 9640TIP3    H250336   1.819   6.731  15.233 -0.2001  0.4617  0.4520
 9641TIP3   OH250337   2.281   2.371  12.145  0.2272  0.0837 -0.2204
 9641TIP3    H150338   2.341   2.431  12.101  2.0862 -1.1849  0.4521
 9641TIP3    H250339   2.230   2.427  12.204  0.3971  1.2603 -1.1618
 9642TIP3   OH250340   5.331   5.512  12.320  0.7292  0.0657  0.2950
 9642TIP3    H150341   5.371   5.451  12.382 -0.7191 -1.2081  0.0364
 9642TIP3    H250342   5.237   5.499  12.331  0.4176 -0.5086 -2.4438
 9643TIP3   OH250343   5.639   4.532   4.064 -0.0335  0.5255  0.0900
 9643TIP3    H150344   5.599   4.529   4.152 -0.2424 -0.6659 -0.0330
 9643TIP3    H250345   5.729   4.502   4.078 -0.2731 -0.3350 -0.2094
 9644TIP3   OH250346   0.609   4.415   0.783  0.5766 -0.1481 -0.1331
 9644TIP3    H150347   0.536   4.473   0.805  0.2947 -0.6729  0.3438
 9644TIP3    H250348   0.597   4.339   0.841  1.6509 -0.1201  0.1385
 9645TIP3   OH250349   1.193   2.169  12.425  0.3763  0.7881  0.0144
 9645TIP3    H150350   1.252   2.218  12.369 -0.8301  1.5297 -0.6451
 9645TIP3    H250351   1.248   2.102  12.465  2.0531  2.5903  0.8754
 9646TIP3   OH250352   6.644   1.154  17.055  0.1979  0.2636  0.3599
 9646TIP3    H150353   6.575   1.213  17.023  1.6354  1.1467 -1.2744
 9646TIP3    H250354   6.626   1.071  17.010  0.7686  0.8006 -0.9313
 9647TIP3   OH250355   6.263   1.816   5.481 -0.0125 -0.2703  0.9644
 9647TIP3    H150356   6.296   1.737   5.522  0.6404  0.3227  1.6088
 9647TIP3    H250357   6.295   1.887   5.536  0.2602  0.5027 -0.1569
 9648TIP3   OH250358   5.415   0.709  11.694 -0.3304  0.2452 -0.5658
 9648TIP3    H150359   5.375   0.629  11.730  3.1925 -1.5824 -0.3278
 9648TIP3    H250360   5.451   0.754  11.770  1.3298 -0.1683 -1.0697
 9649TIP3   OH250361   3.250   0.160  12.475 -0.2210  0.3404 -0.0446
 9649TIP3    H150362   3.194   0.228  12.511 -0.6838 -0.5933  1.0493
 9649TIP3    H250363   3.219   0.150  12.384 -2.4495 -0.7167  0.7406
 9650TIP3   OH250364   3.918   3.145   5.056  0.3339 -0.2064  0.1561
 9650TIP3    H150365   3.823   3.135   5.049  0.4872 -1.2808 -0.5581
 9650TIP3    H250366   3.931   3.189   5.141 -0.8613  1.2652 -0.3736
 9651TIP3   OH250367   1.681   5.604  14.761 -0.0195 -0.3313  0.1998
 9651TIP3    H150368   1.648   5.515  14.749 -1.4067  0.1777 -0.0157
 9651TIP3    H250369   1.630   5.657  14.700  0.3526  0.7021  0.7488
 9652TIP3   OH250370   5.034   3.864  11.435  0.0244 -0.1906 -0.2075
 9652TIP3    H150371   4.990   3.835  11.355 -0.8172  1.8145 -0.5331
 9652TIP3    H250372   5.115   3.905  11.405 -0.0439  0.1034  0.0010
 9653TIP3   OH250373   1.889   3.021   6.046  0.2825 -0.3953 -0.3075
 9653TIP3    H150374   1.929   2.934   6.043 -1.4760 -1.2462 -0.3708
 9653TIP3    H250375   1.924   3.061   6.126 -0.3708 -1.9436  0.7883
 9654TIP3   OH250376   0.066   3.910   5.208  0.5044  0.1754  0.2917
 9654TIP3    H150377   0.116   3.976   5.256  0.8434  1.2282 -1.4195
 9654TIP3    H250378  -0.025   3.930   5.228  0.6631 -0.3500  1.6522
 9655TIP3   OH250379   1.624   1.065  16.179 -0.1498 -0.4542 -0.0412
 9655TIP3    H150380   1.604   0.973  16.196 -1.3118 -0.6326 -2.0487
 9655TIP3    H250381   1.695   1.062  16.116  0.5263  0.0645  0.6840
 9656TIP3   OH250382   6.079   4.226  12.939  0.4485  0.8139  0.7948
 9656TIP3    H150383   6.086   4.311  12.982  0.0373  0.8540  0.7787
 9656TIP3    H250384   6.170   4.204  12.915  0.6957  0.7707  1.7223
 9657TIP3   OH250385   6.035   1.588  10.944 -0.5676 -0.3485  0.3757
 9657TIP3    H150386   6.053   1.586  11.038  0.4440 -0.1884  0.1903
 9657TIP3    H250387   5.955   1.641  10.936  0.2529  1.0356  1.0140
 9658TIP3   OH250388   4.033   3.835   2.424  0.0548  0.5378 -0.2576
 9658TIP3    H150389   4.092   3.862   2.353 -0.1864  0.8110 -0.3547
 9658TIP3    H250390   4.072   3.873   2.503  0.0958  0.5835 -0.2996
 9659TIP3   OH250391   6.604   1.338  12.947 -0.2057 -0.2574  0.5419
 9659TIP3    H150392   6.603   1.253  12.905  1.9512  0.3250 -0.8465
 9659TIP3    H250393   6.637   1.321  13.036  2.8863 -0.6643 -0.5621
 9660TIP3   OH250394   4.477   0.872   0.688  0.1921 -0.1032  0.4634
 9660TIP3    H150395   4.412   0.897   0.623 -0.5297 -1.9924  0.3782
 9660TIP3    H250396   4.558   0.912   0.658  0.1157 -1.7073 -2.2019
 9661TIP3   OH250397   5.804   6.138  15.278 -0.2209 -0.6980 -0.5747
 9661TIP3    H150398   5.830   6.047  15.264  2.0247  0.0224 -1.6177
 9661TIP3    H250399   5.774   6.169  15.192  1.6220  0.2401 -0.9433
 9662TIP3   OH250400   1.606   1.224  12.615 -0.0628 -0.1210  0.7196
 9662TIP3    H150401   1.557   1.306  12.603  0.6991  0.3962  1.1212
 9662TIP3    H250402   1.629   1.198  12.526  2.2518  1.6813  0.6972
 9663TIP3   OH250403   4.515   1.834  12.246 -0.1634 -0.7373 -0.2004
 9663TIP3    H150404   4.586   1.791  12.198 -0.3956  1.2596 -2.4745
 9663TIP3    H250405   4.536   1.927  12.243 -1.0453 -0.3754  2.2868
 9664TIP3   OH250406   4.043   5.951   1.126 -0.0808  0.4717 -0.4904
 9664TIP3    H150407   4.105   5.888   1.089  0.2299  0.2640  0.3549
 9664TIP3    H250408   4.092   5.996   1.194 -1.5178 -1.4559  1.9905
 9665TIP3   OH250409   0.197   4.030   0.614 -0.4687  0.0409 -0.1837
 9665TIP3    H150410   0.122   4.080   0.646  1.2049  0.8420  2.9457
 9665TIP3    H250411   0.160   3.950   0.578 -2.8520  0.6848  0.6954
 9666TIP3   OH250412   3.387   6.191  16.620 -0.6161  0.0103  0.3001
 9666TIP3    H150413   3.303   6.218  16.658 -0.2148  3.5615 -0.9920
 9666TIP3    H250414   3.377   6.097  16.606 -2.9760 -0.3875  3.4910
 9667TIP3   OH250415   0.293   0.710   3.764 -0.1380  0.1285 -0.3268
 9667TIP3    H150416   0.359   0.642   3.778 -0.6290 -0.0481  1.3825
 9667TIP3    H250417   0.338   0.777   3.713  1.2260 -0.2128  0.3765
 9668TIP3   OH250418   3.610   3.619  11.946 -0.2704  0.1775 -0.1298
 9668TIP3    H150419   3.677   3.675  11.985  0.1369 -0.6128  0.3092
 9668TIP3    H250420   3.592   3.659  11.861 -0.1977  1.1404  0.2985
 9669TIP3   OH250421   5.747   5.665  15.276  0.9532 -0.3473  0.0881
 9669TIP3    H150422   5.716   5.613  15.201  1.2894  0.6255 -0.7546
 9669TIP3    H250423   5.733   5.608  15.352 -1.2665 -0.6118 -0.4518
 9670TIP3   OH250424   3.989   5.362  12.982  0.2379 -0.1594 -0.2910
 9670TIP3    H150425   3.900   5.329  12.972 -0.2647  0.6320  1.2119
 9670TIP3    H250426   3.987   5.413  13.063  1.8542  0.5708 -0.6566
 9671TIP3   OH250427   0.145   0.590   0.586 -0.3967 -0.0031 -0.0483
 9671TIP3    H150428   0.206   0.536   0.637  0.0402  0.9634  0.4714
 9671TIP3    H250429   0.088   0.630   0.651  0.4239  1.5649 -0.2647
 9672TIP3   OH250430   4.512   4.996   3.709 -0.1100  0.6329  0.5928
 9672TIP3    H150431   4.448   4.931   3.681  0.5509  0.1934  0.0572
 9672TIP3    H250432   4.529   5.048   3.631  0.6139  0.3729  0.5663
 9673TIP3   OH250433   2.042   2.598  11.108 -0.0357 -0.1041  0.3442
 9673TIP3    H150434   2.073   2.629  11.023  0.3316  0.1631  0.5696
 9673TIP3    H250435   1.947   2.609  11.105 -0.0147 -0.0093  0.0016
 9674TIP3   OH250436   5.173   5.161   4.781  0.8728  0.3289  0.3660
 9674TIP3    H150437   5.092   5.211   4.768  0.7358  0.4715  1.6044
 9674TIP3    H250438   5.236   5.202   4.722 -0.0932 -0.1474 -1.0402
 9675TIP3   OH250439   5.643   2.860   2.341  0.1422 -0.5072 -0.0046
 9675TIP3    H150440   5.704   2.928   2.367  0.3259 -0.1681 -1.2586
 9675TIP3    H250441   5.638   2.801   2.417  0.2539  0.6928  0.9592
 9676TIP3   OH250442   3.901   1.492  13.484  0.6643 -0.7154  0.0481
 9676TIP3    H150443   3.907   1.585  13.504 -0.2270 -0.4546 -0.8250
 9676TIP3    H250444   3.985   1.456  13.514  0.4232  0.0779  1.8061
 9677TIP3   OH250445   1.802   4.169   4.072  0.1420 -0.4115 -0.0614
 9677TIP3    H150446   1.709   4.172   4.048 -0.4049 -0.3216  1.8867
 9677TIP3    H250447   1.802   4.137   4.162  1.8208  2.0293  0.8908
 9678TIP3   OH250448   2.547   3.463  10.705  0.1017 -0.0766 -0.3139
 9678TIP3    H150449   2.611   3.392  10.714 -1.5870 -1.5165  0.8742
 9678TIP3    H250450   2.496   3.440  10.627 -1.0187 -0.6579  0.5768
 9679TIP3   OH250451   3.199   3.974   2.617  0.1632 -0.0536  0.5996
 9679TIP3    H150452   3.113   4.014   2.609  0.9567  1.4950 -0.8689
 9679TIP3    H250453   3.182   3.882   2.635 -1.7842  0.1548 -0.0193
 9680TIP3   OH250454   1.245   5.498   3.159 -0.2947  0.9059  0.5592
 9680TIP3    H150455   1.335   5.516   3.134 -0.4906  0.3890 -0.5900
 9680TIP3    H250456   1.251   5.434   3.229  0.2237 -0.0422 -0.3240
 9681TIP3   OH250457   0.273   1.320   5.712  0.4103  0.2223  0.1324
 9681TIP3    H150458   0.351   1.376   5.704  1.4737 -1.2811 -0.5109
 9681TIP3    H250459   0.288   1.249   5.649 -0.6849 -1.0264  1.2200
 9682TIP3   OH250460   2.206   6.597  12.341 -0.6521 -0.0514 -0.1040
 9682TIP3    H150461   2.276   6.560  12.395 -1.0763  1.1884  1.3727
 9682TIP3    H250462   2.231   6.575  12.251  1.4054 -0.0102  0.4059
 9683TIP3   OH250463   1.679   2.282  12.676 -0.4726  0.1137  0.3683
 9683TIP3    H150464   1.711   2.210  12.730  0.6484  0.2800 -0.0469
 9683TIP3    H250465   1.656   2.241  12.592  0.6015  0.2902 -0.0266
 9684TIP3   OH250466   2.663   4.988   3.560  0.0489  0.3114 -0.2490
 9684TIP3    H150467   2.675   4.940   3.642  0.9079  2.1563  0.7624
 9684TIP3    H250468   2.579   4.956   3.525 -1.0504  0.4950  2.0785
 9685TIP3   OH250469   3.433   0.704  11.682 -0.0137  0.2509 -0.1065
 9685TIP3    H150470   3.450   0.688  11.590  0.2653 -3.6727  0.4581
 9685TIP3    H250471   3.518   0.693  11.725 -0.8376 -2.5605  0.9962
 9686TIP3   OH250472   1.873   4.393   2.927 -0.5052 -0.5797  0.7823
 9686TIP3    H150473   1.836   4.306   2.914 -0.4346 -0.5352  0.2588
 9686TIP3    H250474   1.945   4.380   2.988  1.9359 -1.5430 -2.0353
 9687TIP3   OH250475   6.082   0.468   2.938  0.6716 -0.1126  0.2413
 9687TIP3    H150476   6.007   0.501   2.887  0.7927 -1.4930 -0.8856
 9687TIP3    H250477   6.158   0.508   2.896  0.7933 -1.4878 -0.9020
 9688TIP3   OH250478   3.923   2.084  12.878  0.0770 -0.2441 -0.1537
 9688TIP3    H150479   3.948   2.171  12.910 -0.5952 -0.5834  1.3628
 9688TIP3    H250480   4.006   2.042  12.857  0.4539  0.4949 -0.1919
 9689TIP3   OH250481   6.027   3.258   1.708  0.2680  0.0151 -0.3526
 9689TIP3    H150482   5.936   3.242   1.732  0.3680  0.9507  0.7187
 9689TIP3    H250483   6.070   3.173   1.721 -0.1803 -0.1000  0.4428
 9690TIP3   OH250484   5.047   1.815   2.558  0.1082  0.2877  0.1303
 9690TIP3    H150485   5.007   1.750   2.500 -1.2147  2.6801 -1.8664
 9690TIP3    H250486   5.141   1.807   2.542 -0.0812 -0.7184 -0.5559
 9691TIP3   OH250487   3.617   5.658   2.191 -0.3195 -0.2931 -0.3119
 9691TIP3    H150488   3.524   5.666   2.212 -0.0411  1.7683  0.3606
 9691TIP3    H250489   3.662   5.679   2.274  0.7411  1.0720 -1.1810
 9692TIP3   OH250490   4.652   3.945  16.620  0.3163  0.3224 -0.3710
 9692TIP3    H150491   4.560   3.972  16.609 -0.1895 -0.8682  0.5955
 9692TIP3    H250492   4.689   4.012  16.678 -0.0665  0.5628 -0.3947
 9693TIP3   OH250493   5.070   5.068   4.016  0.0963 -0.3574  0.3084
 9693TIP3    H150494   5.132   5.077   3.944 -0.1713 -1.7743 -0.1373
 9693TIP3    H250495   4.997   5.018   3.979 -0.7556  0.2277  1.1548
 9694TIP3   OH250496   0.038   2.592   2.217  0.1066 -0.0935 -0.4161
 9694TIP3    H150497  -0.019   2.549   2.153 -0.1513  1.5037 -1.3132
 9694TIP3    H250498   0.020   2.546   2.300 -1.8809 -0.1776 -0.8398
 9695TIP3   OH250499   1.659   3.714  15.259 -0.0878  0.0942 -0.2855
 9695TIP3    H150500   1.574   3.751  15.282 -0.3223 -1.4300  1.6127
 9695TIP3    H250501   1.640   3.622  15.240  0.4602  0.6929 -4.8256
 9696TIP3   OH250502   2.509   5.335   1.100 -0.5615  0.7355  0.6030
 9696TIP3    H150503   2.591   5.295   1.128 -1.8033  0.0787  3.6066
 9696TIP3    H250504   2.536   5.415   1.054  1.7542  0.7984  1.9487
 9697TIP3   OH250505   3.321   5.295   5.799  0.7224  0.0562  0.1255
 9697TIP3    H150506   3.288   5.206   5.789  1.5661 -0.1624 -0.9927
 9697TIP3    H250507   3.298   5.338   5.717  1.7580  0.3630 -0.0236
 9698TIP3   OH250508   4.871   1.154  13.634  0.7298  0.2998 -0.0431
 9698TIP3    H150509   4.817   1.182  13.708  1.9076  2.8398 -0.0706
 9698TIP3    H250510   4.809   1.114  13.573 -0.4254 -0.8540  1.7732
 9699TIP3   OH250511   4.756   4.895   1.757 -0.1603  0.5899  0.5002
 9699TIP3    H150512   4.771   4.924   1.666  1.1995 -1.1582  0.1266
 9699TIP3    H250513   4.702   4.816   1.748  0.7503 -0.1170  1.1436
 9700TIP3   OH250514   0.538   1.357   4.489  0.5443 -0.5122 -0.2230
 9700TIP3    H150515   0.556   1.270   4.454  1.0715 -0.1633 -0.8298
 9700TIP3    H250516   0.472   1.394   4.430  1.5826  0.1534 -0.9814
 9701TIP3   OH250517   3.528   1.470   3.078 -0.2094  0.1591 -0.1850
 9701TIP3    H150518   3.527   1.529   3.154 -1.2456  0.6105 -0.5290
 9701TIP3    H250519   3.613   1.485   3.037 -0.4220  1.3607 -0.2185
 9702TIP3   OH250520   6.754   0.657  15.030  0.0978  0.9162 -0.6563
 9702TIP3    H150521   6.845   0.644  15.055  0.2638  1.2163 -1.0783
 9702TIP3    H250522   6.742   0.752  15.032 -0.1068  0.8987 -0.9248
 9703TIP3   OH250523   4.496   1.231  14.268  0.6506 -0.9870  0.0291
 9703TIP3    H150524   4.467   1.284  14.341 -3.8581 -2.4153 -0.3874
 9703TIP3    H250525   4.536   1.154  14.308  1.8725 -0.0003  0.7705
 9704TIP3   OH250526   2.334   1.313   3.691  0.6152 -0.2507  0.2195
 9704TIP3    H150527   2.327   1.321   3.786  0.4195  0.7246  0.1241
 9704TIP3    H250528   2.250   1.344   3.658  0.8131 -0.2564 -0.2883
 9705TIP3   OH250529   5.779   3.036  15.614 -0.1521  0.6662  0.1358
 9705TIP3    H150530   5.749   3.118  15.573  0.0100  1.3112  1.2879
 9705TIP3    H250531   5.706   3.009  15.670 -0.8044 -0.7862 -1.3254
 9706TIP3   OH250532   0.914   1.513  11.516 -0.1855  0.6726  0.1668
 9706TIP3    H150533   0.973   1.568  11.568 -0.1899  0.5935  0.2562
 9706TIP3    H250534   0.879   1.572  11.449  1.0224  0.4043 -0.7293
 9707TIP3   OH250535   5.981   4.646   2.454 -0.7702 -0.4832  0.3047
 9707TIP3    H150536   6.051   4.701   2.489 -0.0016 -0.7766 -0.7026
 9707TIP3    H250537   5.925   4.626   2.529  0.4439 -0.5449  1.2137
 9708TIP3   OH250538   2.056   2.002  13.100  0.3481  0.1619 -0.1479
 9708TIP3    H150539   1.988   2.067  13.118  0.2568 -0.0311  0.2272
 9708TIP3    H250540   2.008   1.920  13.086  0.4424  0.2315 -0.9264
 9709TIP3   OH250541   4.266   4.594  15.572 -0.0162 -0.5118  0.2936
 9709TIP3    H150542   4.248   4.506  15.603  0.8436  0.5786  4.5400
 9709TIP3    H250543   4.204   4.649  15.619  2.5405  1.5414  1.4907
 9710TIP3   OH250544   0.027   4.360  14.864  0.3354 -0.2004  0.8398
 9710TIP3    H150545   0.058   4.313  14.941  2.3425  1.7603  1.3066
 9710TIP3    H250546   0.098   4.353  14.800 -0.7013 -0.5507 -0.3385
 9711TIP3   OH250547   1.919   2.961  11.598 -0.4109 -0.1601 -0.4730
 9711TIP3    H150548   1.867   3.011  11.661  0.5033  0.9393 -0.5539
 9711TIP3    H250549   1.856   2.909  11.549 -1.4226  1.1565 -0.5932
 9712TIP3   OH250550   6.715   4.579  14.889 -0.0153 -1.0789 -0.3626
 9712TIP3    H150551   6.653   4.561  14.818  0.2626 -1.0951 -0.6031
 9712TIP3    H250552   6.774   4.504  14.888  0.6704 -0.5430 -0.8475
 9713TIP3   OH250553   2.473   0.241  15.275 -0.4669  0.3575 -0.0234
 9713TIP3    H150554   2.479   0.192  15.193 -0.4306 -2.5968  1.6057
 9713TIP3    H250555   2.413   0.313  15.256 -1.3511 -0.9113 -2.3448
 9714TIP3   OH250556   4.034   2.510   5.281  0.1101  0.8668 -0.1836
 9714TIP3    H150557   4.083   2.432   5.256  0.3441  0.6482  0.8902
 9714TIP3    H250558   3.947   2.477   5.304  0.2483  0.8957  0.3965
 9715TIP3   OH250559   5.076   1.918  10.938  0.0455 -0.3539 -0.2124
 9715TIP3    H150560   5.114   1.944  11.022 -0.2667 -1.4578  0.2997
 9715TIP3    H250561   5.135   1.954  10.872 -0.6748  2.1305  0.3839
 9716TIP3   OH250562   6.797   3.738  16.220 -0.0592 -0.3561  0.6530
 9716TIP3    H150563   6.702   3.753  16.228  0.1311  1.2800  0.1061
 9716TIP3    H250564   6.814   3.741  16.126  0.6458  0.0578  0.7892
 9717TIP3   OH250565   2.735   4.701   2.826  0.4755  0.4502  0.0219
 9717TIP3    H150566   2.710   4.780   2.875 -0.4039  0.2287 -0.0426
 9717TIP3    H250567   2.824   4.718   2.797  1.1846  0.4368  2.0294
 9718TIP3   OH250568   6.452   2.031   5.513  0.4111  0.2347 -0.1903
 9718TIP3    H150569   6.543   2.057   5.496 -0.0666  1.4899 -0.8723
 9718TIP3    H250570   6.444   2.038   5.608  1.2169 -0.5547 -0.0475
 9719TIP3   OH250571   1.908   3.547   1.710 -0.0226  0.1847 -0.0731
 9719TIP3    H150572   1.974   3.533   1.778  0.6467 -1.3739 -0.9974
 9719TIP3    H250573   1.946   3.615   1.655  0.0840  0.4251  0.2906
 9720TIP3   OH250574   6.367   1.726  13.017 -0.1637 -0.7236  0.7928
 9720TIP3    H150575   6.307   1.786  12.972 -1.4653 -0.6481  2.5440
 9720TIP3    H250576   6.352   1.742  13.110  1.0137 -2.2665  1.2845
 9721TIP3   OH250577   2.738   2.906   5.527  0.3425  0.9265  0.4223
 9721TIP3    H150578   2.643   2.897   5.519  0.2907  1.5992  0.2204
 9721TIP3    H250579   2.771   2.816   5.525 -0.2752  0.6962  0.3471
 9722TIP3   OH250580   0.367   1.999   0.862  0.3181  0.3613 -0.3341
 9722TIP3    H150581   0.393   2.084   0.897  2.0214  0.0943 -0.8672
 9722TIP3    H250582   0.442   1.942   0.878 -0.0431 -0.5487 -1.6903
 9723TIP3   OH250583   0.031   1.053  10.774  0.3657  0.1323 -0.4397
 9723TIP3    H150584   0.097   1.069  10.841 -1.5763 -2.4075  2.3980
 9723TIP3    H250585  -0.047   1.099  10.807 -0.7702 -1.6043 -0.6001
 9724TIP3   OH250586   6.196   3.140   0.609 -0.6609  0.5513  0.3847
 9724TIP3    H150587   6.214   3.221   0.562 -0.7721  0.4010  0.0857
 9724TIP3    H250588   6.100   3.134   0.610 -0.6436  0.1599 -0.0420
 9725TIP3   OH250589   3.188   0.076   5.962 -0.0795  0.1323  0.5401
 9725TIP3    H150590   3.155   0.038   6.043  0.6780  1.6302  1.5856
 9725TIP3    H250591   3.270   0.029   5.945 -0.5260 -0.5796  0.3063
 9726TIP3   OH250592   5.866   6.815  11.868 -0.6642  0.0475  0.1972
 9726TIP3    H150593   5.857   6.894  11.814 -0.0762  0.4659  0.6993
 9726TIP3    H250594   5.922   6.842  11.940  1.5576 -1.4446 -0.8556
 9727TIP3   OH250595   2.892   5.877   3.099  0.2707 -0.2073  0.3870
 9727TIP3    H150596   2.823   5.917   3.152 -0.2004  0.0617 -0.4112
 9727TIP3    H250597   2.845   5.823   3.035  0.8175 -0.3743  0.1207
 9728TIP3   OH250598   5.107   2.563  16.366 -0.0550  0.3775  0.4275
 9728TIP3    H150599   5.110   2.553  16.461  0.8122  0.1557  0.3857
 9728TIP3    H250600   5.199   2.565  16.339 -0.2820  0.9731 -0.3533
 9729TIP3   OH250601   6.641   3.804  15.146 -0.1085  0.5553  0.1613
 9729TIP3    H150602   6.715   3.846  15.190 -0.6508  0.0745  1.5814
 9729TIP3    H250603   6.621   3.863  15.073  0.3822  1.7680  0.9605
 9730TIP3   OH250604   6.294   6.212  14.177  0.2090 -0.3318 -0.0348
 9730TIP3    H150605   6.242   6.292  14.167  1.7198  0.6887 -0.1290
 9730TIP3    H250606   6.256   6.150  14.115 -2.2410 -0.4080  1.4099
 9731TIP3   OH250607   1.885   1.817  12.999 -0.2684  0.2703  0.2473
 9731TIP3    H150608   1.919   1.728  13.005  1.2206  0.8354  0.7908
 9731TIP3    H250609   1.804   1.816  13.050 -1.0238 -1.0822 -0.9092
 9732TIP3   OH250610   5.521   1.724  17.049 -0.1671  0.1418 -0.2972
 9732TIP3    H150611   5.427   1.715  17.039 -0.0120 -0.7176 -1.0485
 9732TIP3    H250612   5.553   1.635  17.065  0.4638  0.4881  0.5178
 9733TIP3   OH250613   6.325   4.868   5.688 -0.2159 -0.0730 -0.3450
 9733TIP3    H150614   6.274   4.804   5.738  1.9402 -0.1905  1.8954
 9733TIP3    H250615   6.260   4.929   5.654 -1.8997 -0.2927  2.2060
 9734TIP3   OH250616   1.042   6.600  11.958  0.4623 -0.2328 -0.0248
 9734TIP3    H150617   1.107   6.669  11.944  1.3176 -0.7918  1.0467
 9734TIP3    H250618   0.962   6.634  11.918  0.6328  1.7380  1.1624
 9735TIP3   OH250619   1.807   2.009  11.311 -0.1728 -0.2784  0.0891
 9735TIP3    H150620   1.782   2.043  11.225 -0.0108 -0.4234 -0.0153
 9735TIP3    H250621   1.804   1.914  11.302 -0.4867 -0.2971  0.3421
 9736TIP3   OH250622   5.189   5.014   2.772  0.0656  0.7908  0.4378
 9736TIP3    H150623   5.178   5.010   2.677  3.6434 -0.3843 -0.0807
 9736TIP3    H250624   5.124   4.954   2.806 -1.0647  0.9677 -1.2837
 9737TIP3   OH250625   2.543   0.819   2.842 -0.2310 -0.3635  0.1244
 9737TIP3    H150626   2.459   0.773   2.842 -0.1699 -0.5786  2.1946
 9737TIP3    H250627   2.563   0.832   2.935  2.7763 -1.6945 -0.2180
 9738TIP3   OH250628   2.913   4.584  11.317 -0.5002 -0.6023 -0.4764
 9738TIP3    H150629   2.910   4.514  11.251  0.3613  1.4821 -2.9034
 9738TIP3    H250630   3.006   4.594  11.336 -0.6137 -0.1066 -0.1843
 9739TIP3   OH250631   6.577   1.390   3.748 -0.1274  0.3086 -0.4218
 9739TIP3    H150632   6.521   1.464   3.773 -0.9530 -0.4795  0.1173
 9739TIP3    H250633   6.545   1.317   3.801  0.5241 -0.4963 -1.1150
 9740TIP3   OH250634   3.627   1.983  11.457 -0.2328 -0.8429 -0.0934
 9740TIP3    H150635   3.561   1.921  11.488 -1.4435 -0.3490 -1.5285
 9740TIP3    H250636   3.609   2.064  11.504 -1.0236 -0.5582 -0.8577
 9741TIP3   OH250637   6.659   0.069  15.476  0.0021 -0.0579  0.4220
 9741TIP3    H150638   6.682   0.009  15.405  1.0317  1.6222 -0.7363
 9741TIP3    H250639   6.599   0.131  15.436  1.4158  1.5467  0.6733
 9742TIP3   OH250640   1.223   6.471  16.532  0.3863  0.0117 -0.2745
 9742TIP3    H150641   1.303   6.446  16.579  0.4656 -0.2298 -0.5340
 9742TIP3    H250642   1.153   6.457  16.596  0.4389 -0.8075 -0.3866
 9743TIP3   OH250643   1.451   4.473  11.175 -0.3934  0.1192 -0.2850
 9743TIP3    H150644   1.378   4.423  11.212 -1.1646 -0.0891 -1.9844
 9743TIP3    H250645   1.521   4.409  11.162  0.3574  0.4222  1.8701
 9744TIP3   OH250646   1.459   1.679  15.324 -0.0957  0.1957  0.5870
 9744TIP3    H150647   1.392   1.731  15.282 -1.2381 -0.1749  1.8634
 9744TIP3    H250648   1.475   1.722  15.408 -0.7206 -1.1855  1.4640
 9745TIP3   OH250649   0.731   4.771  11.483 -0.4381 -0.2924  0.3533
 9745TIP3    H150650   0.804   4.719  11.515  0.1892  0.3418 -0.0292
 9745TIP3    H250651   0.761   4.806  11.399 -1.1666 -0.0030  0.2066
 9746TIP3   OH250652   3.826   0.470  12.618  0.3912  0.0464  0.1692
 9746TIP3    H150653   3.857   0.404  12.680 -0.6906 -2.2955 -1.6126
 9746TIP3    H250654   3.903   0.491  12.566  0.6308 -0.2055  0.4174
 9747TIP3   OH250655   4.991   5.556  14.239  0.1143  0.2317  0.7427
 9747TIP3    H150656   4.958   5.478  14.284 -1.4045  0.6185  0.3678
 9747TIP3    H250657   5.002   5.529  14.148 -1.0708  0.5961  0.4671
 9748TIP3   OH250658   5.898   1.123  13.982  0.6173  0.3059  0.5342
 9748TIP3    H150659   5.880   1.214  13.956 -2.3510 -0.3944 -0.2990
 9748TIP3    H250660   5.870   1.119  14.073  3.0842  0.7258  1.3913
 9749TIP3   OH250661   1.677   1.156  13.004  0.2738 -0.8004  0.0277
 9749TIP3    H150662   1.710   1.118  12.922  0.0439 -0.1244 -0.3851
 9749TIP3    H250663   1.748   1.212  13.034 -0.6359  1.0605 -1.1292
 9750TIP3   OH250664   6.377   3.972   4.684  0.8015  0.3694 -0.0920
 9750TIP3    H150665   6.332   3.889   4.690  0.5177  0.5520  0.3042
 9750TIP3    H250666   6.399   3.981   4.591 -2.6952  1.6877 -0.9496
 9751TIP3   OH250667   5.932   5.215   4.122 -0.2094  0.0127  0.2072
 9751TIP3    H150668   5.952   5.200   4.214  0.4876 -1.1423 -0.1079
 9751TIP3    H250669   6.008   5.264   4.089 -1.0426  1.5760  0.5118
 9752TIP3   OH250670   1.522   5.574   3.499  0.7882  0.3273  0.2997
 9752TIP3    H150671   1.544   5.573   3.593  1.0459  0.3565  0.2390
 9752TIP3    H250672   1.493   5.484   3.481 -3.1381  1.1940  1.3167
 9753TIP3   OH250673   5.280   5.356  12.704 -0.4537 -0.4821 -0.4833
 9753TIP3    H150674   5.255   5.311  12.784 -0.5916  0.6535  0.1307
 9753TIP3    H250675   5.266   5.291  12.634  0.5738 -1.8072  0.4811
 9754TIP3   OH250676   5.966   6.138  10.952  0.1144  0.0529  0.2140
 9754TIP3    H150677   6.053   6.170  10.928 -0.7573  0.5831 -2.7127
 9754TIP3    H250678   5.982   6.049  10.985  1.9626  1.1200  2.4451
 9755TIP3   OH250679   2.073   0.493  11.978 -0.0234  0.5629 -0.2138
 9755TIP3    H150680   1.978   0.506  11.976 -0.3651 -0.5380  3.0613
 9755TIP3    H250681   2.109   0.581  11.964 -1.6144  1.3994  0.6393
 9756TIP3   OH250682   3.733   3.017   2.536  0.4014 -0.0748 -0.8395
 9756TIP3    H150683   3.784   3.098   2.529  3.2238 -1.7507 -1.1902
 9756TIP3    H250684   3.733   2.996   2.629 -0.2776  0.2402 -0.7567
 9757TIP3   OH250685   4.331   1.952  12.949  1.0386  0.0831 -0.5964
 9757TIP3    H150686   4.339   1.898  13.028  0.7715  0.2671 -0.4429
 9757TIP3    H250687   4.415   1.997  12.942  0.3019  1.8466  0.8842
 9758TIP3   OH250688   2.217   1.418   2.394  0.0623  0.5863 -0.6393
 9758TIP3    H150689   2.227   1.357   2.321 -1.1166  0.3869 -0.6404
 9758TIP3    H250690   2.160   1.373   2.456  2.4041 -0.0019  1.2658
 9759TIP3   OH250691   2.517   2.337  14.563  0.0215 -0.0800  0.6965
 9759TIP3    H150692   2.463   2.402  14.608  1.1257  0.8854  0.6459
 9759TIP3    H250693   2.538   2.273  14.632  0.5706  0.6675  1.2342
 9760TIP3   OH250694   2.443   1.056  12.270 -0.6900 -0.3546  0.2043
 9760TIP3    H150695   2.427   1.035  12.178  1.9933 -0.7529 -0.2380
 9760TIP3    H250696   2.494   0.982  12.303  0.1681  0.7478  1.4335
 9761TIP3   OH250697   4.411   3.899   2.419 -0.0713  0.0355 -0.0535
 9761TIP3    H150698   4.480   3.897   2.353 -1.9078  1.4211 -2.1859
 9761TIP3    H250699   4.406   3.809   2.451  2.0818 -0.2853 -0.4800
 9762TIP3   OH250700   3.887   1.574   2.441  0.0992  0.3651 -0.2421
 9762TIP3    H150701   3.806   1.546   2.398  0.3240 -1.5445  0.4583
 9762TIP3    H250702   3.861   1.648   2.496 -1.2795 -0.4797  0.2929
 9763TIP3   OH250703   0.363   2.623   1.528  0.3974 -0.1956  0.6066
 9763TIP3    H150704   0.301   2.584   1.590 -0.1758  0.4472  0.4607
 9763TIP3    H250705   0.448   2.613   1.569  0.1311 -0.6068  1.0712
 9764TIP3   OH250706   1.430   4.699  13.511  0.2090 -0.4569  0.0028
 9764TIP3    H150707   1.438   4.615  13.555  0.8113 -0.7433 -0.6426
 9764TIP3    H250708   1.515   4.742  13.525  0.3368 -0.4705 -0.7072
 9765TIP3   OH250709   2.440   3.587  11.101  0.3602  0.0018  0.4704
 9765TIP3    H150710   2.470   3.609  11.189  1.7032 -0.6074  0.1913
 9765TIP3    H250711   2.453   3.493  11.094 -0.5626 -0.0937 -0.0787
 9766TIP3   OH250712   0.528   6.654   5.538 -0.5867  0.2309 -0.1723
 9766TIP3    H150713   0.526   6.667   5.633 -0.9820  0.2393 -0.1792
 9766TIP3    H250714   0.619   6.633   5.519 -0.4420  0.5344  0.1681
 9767TIP3   OH250715   1.828   5.665  13.400  0.1537  0.2079 -0.3013
 9767TIP3    H150716   1.758   5.730  13.406  1.8132  2.0676  0.0126
 9767TIP3    H250717   1.814   5.608  13.476 -1.4522  0.0307 -0.6916
 9768TIP3   OH250718   0.208   5.080  12.728 -0.3266  0.2391 -0.3283
 9768TIP3    H150719   0.134   5.020  12.733  0.9089 -1.3201  0.1886
 9768TIP3    H250720   0.272   5.034  12.673  0.7193  1.0179  0.2055
 9769TIP3   OH250721   3.431   0.414   0.538 -0.4231 -0.0276  0.4581
 9769TIP3    H150722   3.344   0.412   0.497  0.7200 -0.5141 -2.1632
 9769TIP3    H250723   3.428   0.491   0.595 -1.6179  1.9387 -2.0233
 9770TIP3   OH250724   1.815   2.593  11.652  0.1231  0.1127 -0.1661
 9770TIP3    H150725   1.850   2.513  11.689  1.0572  0.7631  0.4081
 9770TIP3    H250726   1.777   2.566  11.568  1.6607 -0.7124 -0.6388
 9771TIP3   OH250727   0.498   5.100  16.841 -0.0119  0.6645 -0.6768
 9771TIP3    H150728   0.411   5.089  16.877  0.1477  1.5529  0.0270
 9771TIP3    H250729   0.530   5.011  16.824 -0.1947  0.2305  1.1411
 9772TIP3   OH250730   5.778   1.382  11.537 -0.0420  0.0105 -0.7885
 9772TIP3    H150731   5.695   1.384  11.489 -0.8459  0.2600  0.5843
 9772TIP3    H250732   5.811   1.471  11.531 -0.6664  0.3022  0.0048
 9773TIP3   OH250733   3.434   3.609  16.930  0.7804 -0.1859 -0.5666
 9773TIP3    H150734   3.430   3.704  16.942  1.5724 -0.3616  1.5580
 9773TIP3    H250735   3.520   3.593  16.891  0.7231 -0.0471 -0.7487
 9774TIP3   OH250736   2.956   1.802   4.759  0.3438  0.0486  0.4867
 9774TIP3    H150737   2.919   1.890   4.759 -2.8915 -1.1611  0.0489
 9774TIP3    H250738   2.940   1.770   4.670 -1.9169 -2.1210  1.5352
 9775TIP3   OH250739   2.384   6.117  15.862 -0.1525  0.3702 -0.5797
 9775TIP3    H150740   2.339   6.082  15.939 -0.0023 -0.9774 -1.0852
 9775TIP3    H250741   2.477   6.116  15.886 -0.0768 -0.3703 -0.8997
 9776TIP3   OH250742   0.760   1.929  13.616 -0.7454  0.2737  0.0235
 9776TIP3    H150743   0.669   1.899  13.608 -0.5965 -0.0816 -0.4045
 9776TIP3    H250744   0.774   1.986  13.541 -0.8559  0.9924  0.5362
 9777TIP3   OH250745   1.899   4.944   2.450  0.6428  0.5922  0.3872
 9777TIP3    H150746   1.939   5.031   2.457  0.7673  0.4441  1.8286
 9777TIP3    H250747   1.952   4.899   2.384 -0.1821  1.9802 -1.3114
 9778TIP3   OH250748   5.463   4.599   0.930 -0.3756  0.0218  0.3727
 9778TIP3    H150749   5.518   4.521   0.939 -0.6796 -0.2033  0.2750
 9778TIP3    H250750   5.503   4.648   0.858 -0.8318 -0.5912 -0.3136
 9779TIP3   OH250751   1.933   1.199   3.476  0.2533 -0.2119  0.2115
 9779TIP3    H150752   1.935   1.115   3.429 -0.2273 -0.2516  0.2578
 9779TIP3    H250753   1.859   1.246   3.438  2.2648  1.4280 -1.9107
 9780TIP3   OH250754   2.532   6.562  14.069 -0.2622 -0.0700  0.6345
 9780TIP3    H150755   2.567   6.548  13.981 -0.6142  1.5422  0.2125
 9780TIP3    H250756   2.568   6.490  14.120  0.2068 -0.8632 -0.7437
 9781TIP3   OH250757   4.775   5.588   0.877 -0.8050  0.3938  0.4924
 9781TIP3    H150758   4.703   5.648   0.857  0.4538  1.9622  0.3767
 9781TIP3    H250759   4.802   5.614   0.966  1.9371  2.4650 -0.7854
 9782TIP3   OH250760   5.369   3.395   5.062  0.3005 -0.1665  0.5868
 9782TIP3    H150761   5.280   3.431   5.062  0.0562 -0.7344  1.1813
 9782TIP3    H250762   5.417   3.451   5.123 -0.1619 -0.9997  1.7642
 9783TIP3   OH250763   0.648   1.671   5.924 -0.8628  0.1605 -1.1656
 9783TIP3    H150764   0.690   1.700   6.006 -0.0173 -0.1980 -1.4649
 9783TIP3    H250765   0.570   1.726   5.917 -1.1030  0.0088  0.0268
 9784TIP3   OH250766   2.452   3.136   5.428  0.6065 -0.3525 -0.6513
 9784TIP3    H150767   2.450   3.218   5.478 -0.3542 -0.0285 -1.1839
 9784TIP3    H250768   2.445   3.067   5.494  2.8462 -0.1044 -0.0680
 9785TIP3   OH250769   2.505   5.916   5.450 -0.7488 -0.7653  0.0259
 9785TIP3    H150770   2.558   5.898   5.528 -1.4050 -0.6275  0.5215
 9785TIP3    H250771   2.563   5.899   5.376  0.2418  0.1947  0.5496
 9786TIP3   OH250772   6.463   6.814   5.057 -0.1607 -0.2927  0.1733
 9786TIP3    H150773   6.411   6.878   5.008 -0.9389 -1.1255 -0.1210
 9786TIP3    H250774   6.526   6.866   5.106  1.1096  0.5669 -2.2227
 9787TIP3   OH250775   3.755   0.279   4.839 -0.1385 -0.3363 -0.6894
 9787TIP3    H150776   3.749   0.232   4.756  1.8582 -0.6772 -0.6974
 9787TIP3    H250777   3.849   0.289   4.853 -0.4650  1.6888  0.4293
 9788TIP3   OH250778   4.481   2.271  12.478 -0.1292  0.3114 -0.3807
 9788TIP3    H150779   4.421   2.304  12.411 -1.1479 -1.5655 -0.4786
 9788TIP3    H250780   4.520   2.350  12.516  0.7495  1.4336 -3.3601
 9789TIP3   OH250781   5.607   3.440  12.084  0.0653  0.5809 -0.4917
 9789TIP3    H150782   5.540   3.488  12.132  0.1782  0.3026 -0.0479
 9789TIP3    H250783   5.680   3.502  12.076 -0.3204  0.9544 -1.1617
 9790TIP3   OH250784   1.065   1.232   6.283 -0.0108  0.7753  0.1080
 9790TIP3    H150785   1.029   1.219   6.371 -0.2363 -1.5782 -0.2646
 9790TIP3    H250786   1.125   1.306   6.292  1.3920 -0.5376  2.7265
 9791TIP3   OH250787   6.299   2.331   2.039 -0.0488 -0.4059  0.1345
 9791TIP3    H150788   6.360   2.257   2.037 -0.7485 -0.9824 -1.2280
 9791TIP3    H250789   6.213   2.290   2.046 -0.3985  0.3304  0.1845
 9792TIP3   OH250790   0.125   3.364  10.843  0.1518 -0.5028  0.0474
 9792TIP3    H150791   0.200   3.363  10.783 -0.7425  2.0361 -1.2877
 9792TIP3    H250792   0.076   3.285  10.822  0.2312 -0.0299 -2.2047
 9793TIP3   OH250793   4.962   5.888   0.951  0.4173 -0.5485 -0.0042
 9793TIP3    H150794   4.941   5.795   0.956 -0.1494 -0.5060 -1.1080
 9793TIP3    H250795   5.050   5.891   0.913 -0.0685 -0.6412 -1.2074
 9794TIP3   OH250796   3.764   6.336  12.121 -0.7002 -0.0854  0.2026
 9794TIP3    H150797   3.831   6.271  12.141 -1.8952 -0.9937  1.4753
 9794TIP3    H250798   3.731   6.310  12.035  1.4676  1.2072 -1.1009
 9795TIP3   OH250799   5.720   2.544  12.890 -0.4292 -0.2983 -0.3223
 9795TIP3    H150800   5.756   2.633  12.883 -0.7122 -0.2935 -2.3085
 9795TIP3    H250801   5.781   2.498  12.947  1.2322  0.4589 -1.4121
 9796TIP3   OH250802   1.977   6.407  16.418  0.3259  0.0978 -0.0630
 9796TIP3    H150803   2.015   6.396  16.505 -0.1307  0.3353  0.1731
 9796TIP3    H250804   1.968   6.502  16.408 -1.8298  0.0254  0.6253
 9797TIP3   OH250805   5.116   4.944   1.044 -0.1259 -0.1175  0.3850
 9797TIP3    H150806   5.191   4.967   1.099 -0.1800 -2.3875  1.5371
 9797TIP3    H250807   5.151   4.880   0.982 -0.4736  1.0829 -1.1093
 9798TIP3   OH250808   1.724   3.281  15.123 -0.4293 -0.4538  0.2130
 9798TIP3    H150809   1.673   3.259  15.044 -0.6109 -1.2923  0.5493
 9798TIP3    H250810   1.664   3.333  15.176 -0.3209  0.0790 -0.1722
 9799TIP3   OH250811   0.143   4.320  12.944 -0.5773  0.7105 -0.2817
 9799TIP3    H150812   0.220   4.302  12.891 -1.3078 -0.3024 -1.0418
 9799TIP3    H250813   0.092   4.383  12.892  0.4985  2.7415  0.9837
 9800TIP3   OH250814   1.821   2.629   3.627  0.2037  0.4003 -0.2028
 9800TIP3    H150815   1.758   2.687   3.670  0.2374  1.4514 -1.5137
 9800TIP3    H250816   1.797   2.632   3.534  0.6758 -1.1232 -0.3948
 9801TIP3   OH250817   4.003   3.146   0.600 -0.4491  0.2026 -0.0593
 9801TIP3    H150818   4.065   3.185   0.539  0.5770  1.8902  1.9317
 9801TIP3    H250819   3.932   3.113   0.545  1.2688 -0.0643 -2.2677
 9802TIP3   OH250820   1.578   1.171   1.916 -0.0036 -0.2346  0.7997
 9802TIP3    H150821   1.566   1.237   1.985 -0.6336  0.9075 -0.3597
 9802TIP3    H250822   1.514   1.103   1.937 -0.3312  0.1929  1.2323
 9803TIP3   OH250823   3.132   1.148   3.627  0.5034 -0.2647  0.2381
 9803TIP3    H150824   3.214   1.135   3.675  0.6446  1.8485  0.6477
 9803TIP3    H250825   3.153   1.215   3.562  0.2601 -2.8111 -2.7692
 9804TIP3   OH250826   1.078   6.168   5.030  0.1936 -0.4954  0.1956
 9804TIP3    H150827   1.109   6.227   5.099 -0.9485  0.4561 -0.0702
 9804TIP3    H250828   0.993   6.137   5.061  0.0146 -0.6594 -0.4397
 9805TIP3   OH250829   0.791   4.921  11.252  0.2052  0.3163  0.8259
 9805TIP3    H150830   0.863   4.911  11.189 -0.4929  0.5018 -0.0192
 9805TIP3    H250831   0.764   5.012  11.242 -1.8304 -0.3920 -0.7571
 9806TIP3   OH250832   3.359   5.658  10.648  0.3041 -0.2588  0.4165
 9806TIP3    H150833   3.343   5.618  10.562 -0.5063  0.3378  0.2786
 9806TIP3    H250834   3.394   5.745  10.628 -2.2725  0.9037  0.6009
 9807TIP3   OH250835   4.505   0.328  10.817 -0.4435  0.3342 -0.2541
 9807TIP3    H150836   4.473   0.383  10.746 -1.0785  1.0864  0.5912
 9807TIP3    H250837   4.519   0.389  10.890 -0.4926 -0.5201  0.4860
 9808TIP3   OH250838   5.818   1.136  11.818  0.1892  0.0517  0.7600
 9808TIP3    H150839   5.733   1.097  11.840  0.1823 -0.1736  0.3483
 9808TIP3    H250840   5.882   1.071  11.847  0.2318  0.2778  1.1879
 9809TIP3   OH250841   0.555   1.097   3.887  0.7822  0.2190 -0.5313
 9809TIP3    H150842   0.525   1.083   3.977  1.0076  0.6874 -0.3797
 9809TIP3    H250843   0.522   1.184   3.864  0.4273 -0.0389 -1.0283
 9810TIP3   OH250844   5.883   0.369  13.888  0.3653  0.5921 -0.6324
 9810TIP3    H150845   5.856   0.307  13.820  1.3804 -1.9134  1.0660
 9810TIP3    H250846   5.951   0.422  13.848  1.1531 -1.0273 -1.5180
 9811TIP3   OH250847   2.947   3.877   0.023 -0.1832  0.0608  0.1209
 9811TIP3    H150848   3.014   3.811   0.001  1.6386  1.9936 -0.4593
 9811TIP3    H250849   2.947   3.880   0.118  2.6421  1.8891  0.1849
 9812TIP3   OH250850   5.572   4.170  15.827 -0.3584  0.1313  0.3630
 9812TIP3    H150851   5.572   4.177  15.922 -1.1438  2.0286  0.2579
 9812TIP3    H250852   5.483   4.145  15.804 -0.2609  0.0097  0.1071
 9813TIP3   OH250853   2.019   5.787   6.167 -0.5183  0.7460  0.1998
 9813TIP3    H150854   1.945   5.798   6.225  0.1785  0.4984  1.1603
 9813TIP3    H250855   2.053   5.700   6.187  0.2705  1.0129  0.0743
 9814TIP3   OH250856   6.153   4.082  11.015 -0.1231  0.0688 -0.0689
 9814TIP3    H150857   6.192   4.119  11.094  1.1838 -1.6307  0.1307
 9814TIP3    H250858   6.228   4.061  10.959 -0.9077 -0.7630 -0.8356
 9815TIP3   OH250859   6.573   5.476   4.760 -0.3967  0.4771  0.2354
 9815TIP3    H150860   6.577   5.569   4.739 -1.0110  1.0301  2.3529
 9815TIP3    H250861   6.658   5.442   4.731  0.1069  1.8297  0.0372
 9816TIP3   OH250862   4.804   3.877  11.707  0.3901 -0.1397 -0.4656
 9816TIP3    H150863   4.865   3.882  11.635  2.5302  1.2808  1.3057
 9816TIP3    H250864   4.784   3.969  11.727 -1.2302 -0.5440 -0.0891
 9817TIP3   OH250865   1.558   4.274   4.172  0.3978 -0.2658 -0.4023
 9817TIP3    H150866   1.468   4.265   4.139  0.6473 -2.5938 -0.6522
 9817TIP3    H250867   1.572   4.368   4.179 -3.6882  0.3794  4.1109
 9818TIP3   OH250868   5.167   0.742   3.732  0.4720 -0.0386  0.0646
 9818TIP3    H150869   5.115   0.809   3.687  0.2187  0.0736  0.5223
 9818TIP3    H250870   5.198   0.785   3.812  0.8988 -0.2469  0.0131
 9819TIP3   OH250871   6.116   3.621   9.914  0.1949 -0.0195  0.2070
 9819TIP3    H150872   6.059   3.549   9.890  0.7522 -0.2711 -0.3864
 9819TIP3    H250873   6.205   3.590   9.895  0.4443  0.8135 -0.0689
 9820TIP3   OH250874   0.319   0.099   3.164 -0.1492 -0.0872 -0.1114
 9820TIP3    H150875   0.360   0.185   3.160  1.3810 -0.7255  0.9328
 9820TIP3    H250876   0.354   0.052   3.088 -0.1203 -0.1387 -0.0667
 9821TIP3   OH250877   1.172   0.622   0.213  0.1105 -0.2218  0.5212
 9821TIP3    H150878   1.184   0.575   0.130  2.2458  1.0149  0.0755
 9821TIP3    H250879   1.078   0.612   0.232  0.2812 -4.0374  0.1311
 9822TIP3   OH250880   3.007   4.561  12.927 -0.6731 -0.7925 -0.1764
 9822TIP3    H150881   3.039   4.471  12.930 -0.1036 -0.5900  0.1795
 9822TIP3    H250882   3.018   4.588  12.836 -0.8821 -1.0985 -0.2908
 9823TIP3   OH250883   3.026   1.789   0.410  0.1493  1.0901 -0.4268
 9823TIP3    H150884   2.996   1.740   0.334 -1.1972  1.4573 -0.1622
 9823TIP3    H250885   3.108   1.747   0.435 -0.3376 -0.2210 -0.9526
 9824TIP3   OH250886   2.780   3.866   0.864 -0.3014 -0.2462  0.0416
 9824TIP3    H150887   2.830   3.812   0.926  0.5741 -2.9406 -2.7769
 9824TIP3    H250888   2.847   3.907   0.809 -1.0589 -0.7426 -1.2940
 9825TIP3   OH250889   1.162   3.214  13.652 -0.9294 -0.1198  0.1881
 9825TIP3    H150890   1.095   3.277  13.626 -0.8302 -0.8875 -2.1388
 9825TIP3    H250891   1.244   3.262  13.647 -1.0245  0.0364  0.1356
 9826TIP3   OH250892   2.718   1.698  15.635 -0.1467  0.0393 -0.0553
 9826TIP3    H150893   2.674   1.622  15.672 -1.0267  0.3761 -0.3549
 9826TIP3    H250894   2.652   1.768  15.640  0.3523  0.5564 -0.5430
 9827TIP3   OH250895   3.660   5.463  10.685 -0.3612 -0.0583  0.3502
 9827TIP3    H150896   3.634   5.555  10.690  1.0674  0.3775  0.2385
 9827TIP3    H250897   3.754   5.464  10.702 -0.0939 -1.3695 -0.8548
 9828TIP3   OH250898   0.827   6.119   2.037 -0.1712 -0.2519 -0.8172
 9828TIP3    H150899   0.915   6.091   2.014 -0.8296 -2.1681 -1.1764
 9828TIP3    H250900   0.769   6.066   1.982 -1.5960 -0.7214  1.0142
 9829TIP3   OH250901   5.560   3.402  16.166  0.7187  0.0314 -0.0965
 9829TIP3    H150902   5.649   3.438  16.163  1.6722 -2.0820  0.3993
 9829TIP3    H250903   5.562   3.341  16.240 -1.9011  1.6767  1.4877
 9830TIP3   OH250904   1.870   5.881  11.389  0.0170 -0.5436  0.4325
 9830TIP3    H150905   1.853   5.952  11.452 -1.0385  0.6137 -1.0644
 9830TIP3    H250906   1.784   5.863  11.351  0.8060 -0.3367 -1.5379
 9831TIP3   OH250907   2.331   4.699  13.108  0.0428  0.2177 -0.7452
 9831TIP3    H150908   2.396   4.762  13.139 -0.1324  0.2729 -0.4859
 9831TIP3    H250909   2.250   4.750  13.102  0.1046  0.2444 -1.4400
 9832TIP3   OH250910   5.315   2.779   1.472  0.0482 -0.1011  0.0777
 9832TIP3    H150911   5.302   2.720   1.397 -0.4888 -0.6121  0.5600
 9832TIP3    H250912   5.402   2.757   1.504  1.3856  1.8925 -1.9124
 9833TIP3   OH250913   5.955   1.848   0.182  0.6748  0.2986 -0.7016
 9833TIP3    H150914   5.866   1.817   0.199  1.0169 -0.2187  0.2232
 9833TIP3    H250915   5.961   1.932   0.227  1.3031 -0.6619  1.1009
 9834TIP3   OH250916   6.524   1.260  11.453  0.2610  0.1481 -0.3152
 9834TIP3    H150917   6.436   1.288  11.428 -0.6454  0.1839  2.5671
 9834TIP3    H250918   6.517   1.240  11.546  3.2231 -0.2759 -0.0990
 9835TIP3   OH250919   5.812   2.394  12.017 -0.2593 -0.3753  0.2317
 9835TIP3    H150920   5.885   2.445  11.981 -1.1953  0.4306 -0.5614
 9835TIP3    H250921   5.793   2.435  12.101  1.5236 -1.8747  1.4449
 9836TIP3   OH250922   0.516   2.637  11.538 -0.0098 -1.0388  0.2756
 9836TIP3    H150923   0.426   2.671  11.539  0.2071  0.0399 -2.8717
 9836TIP3    H250924   0.567   2.703  11.586 -0.7365 -1.1206  1.1854
 9837TIP3   OH250925   6.743   6.777   4.225  0.3236 -0.4304  0.6787
 9837TIP3    H150926   6.762   6.822   4.143  0.3720  0.2858  1.0738
 9837TIP3    H250927   6.658   6.812   4.252 -0.2894 -1.5737  0.3235
 9838TIP3   OH250928   5.843   3.470  14.868 -0.3621 -0.3156  0.3869
 9838TIP3    H150929   5.874   3.560  14.876  0.6842 -0.7224  1.0624
 9838TIP3    H250930   5.859   3.447  14.777 -0.0636 -0.0115  0.3593
 9839TIP3   OH250931   0.060   6.560   5.274 -0.2926  0.2670 -0.0233
 9839TIP3    H150932   0.076   6.646   5.311  1.4285  0.0244 -0.1239
 9839TIP3    H250933   0.146   6.517   5.274 -1.0603 -1.3683 -0.1689
 9840TIP3   OH250934   5.030   2.908   6.077 -0.0103  0.5358 -0.0487
 9840TIP3    H150935   5.029   2.891   5.983  1.9925  1.0652 -0.2053
 9840TIP3    H250936   5.068   2.829   6.115 -2.8404 -0.6544  0.6429
 9841TIP3   OH250937   1.658   4.394   1.912 -0.2602 -0.4375 -0.1852
 9841TIP3    H150938   1.707   4.468   1.876  0.5530 -0.6156  0.5323
 9841TIP3    H250939   1.724   4.326   1.926 -0.3191 -0.0494  2.5587
 9842TIP3   OH250940   3.205   2.247   5.396  0.1833  0.6301  0.4164
 9842TIP3    H150941   3.270   2.237   5.466 -0.2314  1.1160  0.8789
 9842TIP3    H250942   3.256   2.242   5.315  0.3702 -2.5167  0.6217
 9843TIP3   OH250943   0.582   0.270   5.062  0.2213  0.0046  0.6050
 9843TIP3    H150944   0.489   0.274   5.084  0.2968 -0.0846  0.9577
 9843TIP3    H250945   0.625   0.307   5.139  0.4633  0.3051  0.3282
 9844TIP3   OH250946   1.608   1.489   1.366 -0.1540 -0.0287 -0.0195
 9844TIP3    H150947   1.566   1.567   1.402  1.6657 -1.0420  5.1848
 9844TIP3    H250948   1.702   1.511   1.365  0.4548 -2.1050  2.0499
 9845TIP3   OH250949   4.295   6.234  11.832 -0.0304 -0.0520 -0.0086
 9845TIP3    H150950   4.302   6.220  11.738 -0.1548 -0.1622 -0.0016
 9845TIP3    H250951   4.279   6.147  11.869 -0.0473 -0.0007  0.1082
 9846TIP3   OH250952   3.741   5.059   1.218  0.3398  0.6317 -0.1735
 9846TIP3    H150953   3.700   5.118   1.281  1.0500 -0.2404  1.1659
 9846TIP3    H250954   3.755   4.978   1.268  0.4857 -0.2590 -1.6089
 9847TIP3   OH250955   4.641   4.490  16.248  0.0697  0.2068  0.2015
 9847TIP3    H150956   4.597   4.471  16.331  0.5411  0.2869  0.4761
 9847TIP3    H250957   4.570   4.513  16.188 -0.3297 -0.4386  0.4134
 9848TIP3   OH250958   3.407   3.858   0.657 -0.2153 -0.1838  0.6014
 9848TIP3    H150959   3.478   3.794   0.665 -0.4647 -0.6972 -0.9370
 9848TIP3    H250960   3.348   3.820   0.592 -2.8656 -0.6326  3.0700
 9849TIP3   OH250961   6.142   0.471   0.143  0.2199  0.0943 -0.8949
 9849TIP3    H150962   6.059   0.448   0.100  0.7100 -0.9344 -1.3294
 9849TIP3    H250963   6.171   0.550   0.098 -0.3328  0.2289 -1.0200
 9850TIP3   OH250964   0.893   1.516   6.041  0.1304  0.3009  0.2069
 9850TIP3    H150965   0.978   1.544   6.074  1.0724 -3.2831  1.2791
 9850TIP3    H250966   0.912   1.446   5.980 -2.0322  1.3037 -1.7911
 9851TIP3   OH250967   3.859   5.800  11.167 -0.4996 -0.1863  0.2827
 9851TIP3    H150968   3.939   5.795  11.220 -0.3013  1.9704  0.2808
 9851TIP3    H250969   3.790   5.824  11.228 -1.0075 -1.1761  0.1277
 9852TIP3   OH250970   3.524   5.187  12.299  0.5045 -0.2646 -0.3021
 9852TIP3    H150971   3.518   5.242  12.377  1.7415  0.6155 -0.7967
 9852TIP3    H250972   3.481   5.237  12.230  0.5214 -0.4837 -0.4735
 9853TIP3   OH250973   3.253   6.605   3.001 -0.1912  0.6521 -0.1873
 9853TIP3    H150974   3.183   6.667   3.019  0.0459  0.5876  1.0774
 9853TIP3    H250975   3.331   6.660   2.987 -0.4088  0.7094 -1.2534
 9854TIP3   OH250976   5.004   2.132   3.355  0.2975 -0.6528 -0.4283
 9854TIP3    H150977   5.065   2.072   3.399 -1.0282 -2.1239 -0.5208
 9854TIP3    H250978   5.003   2.103   3.264  0.0352 -0.1528 -0.5887
 9855TIP3   OH250979   5.518   2.369   4.120  0.2983  0.0528  0.1534
 9855TIP3    H150980   5.576   2.294   4.137  2.5474  1.6055 -0.1575
 9855TIP3    H250981   5.478   2.387   4.205  1.8873  0.1741  0.9143
 9856TIP3   OH250982   4.203   6.725  17.016  0.1773  0.8973 -0.2559
 9856TIP3    H150983   4.108   6.722  17.028  0.1546  1.6400 -0.1872
 9856TIP3    H250984   4.222   6.655  16.954 -0.2409 -0.1628  0.7854
 9857TIP3   OH250985   0.969   4.900   0.122  0.1361  0.0717  0.2771
 9857TIP3    H150986   0.906   4.969   0.104  1.2292  1.1718  0.4903
 9857TIP3    H250987   0.917   4.819   0.127 -1.0037  0.6666 -1.3167
 9858TIP3   OH250988   0.856   1.864  11.236 -0.2609 -0.3059  0.0215
 9858TIP3    H150989   0.886   1.776  11.214 -1.6727 -0.4115 -1.7870
 9858TIP3    H250990   0.774   1.850  11.284 -0.6732 -0.0022 -0.5785
 9859TIP3   OH250991   1.362   1.854   0.768  0.4174 -0.0470  0.0589
 9859TIP3    H150992   1.383   1.945   0.749  1.1482 -0.4089 -0.9730
 9859TIP3    H250993   1.283   1.858   0.821 -1.6491  1.0923 -2.8556
 9860TIP3   OH250994   6.709   1.360   2.972 -0.3376  0.1445 -0.2599
 9860TIP3    H150995   6.756   1.327   2.895  1.3156  1.3838  0.1566
 9860TIP3    H250996   6.617   1.363   2.944  0.4505  2.9814 -3.1779
 9861TIP3   OH250997   4.237   3.663   6.334  0.0521  0.3718 -0.4360
 9861TIP3    H150998   4.295   3.590   6.356  0.9135  0.3512 -2.5948
 9861TIP3    H250999   4.155   3.620   6.307  0.1085  0.2733 -0.4528
 9862TIP3   OH251000   1.478   0.376  13.503  0.3762 -0.3304 -0.0935
 9862TIP3    H151001   1.512   0.399  13.589 -0.8015  1.0574  0.0273
 9862TIP3    H251002   1.506   0.447  13.445  0.2720 -0.7239 -0.6411
 9863TIP3   OH251003   5.215   1.511   5.093 -0.7688 -0.2180  0.1165
 9863TIP3    H151004   5.250   1.575   5.154  0.1587 -1.4307  0.9080
 9863TIP3    H251005   5.287   1.450   5.078 -1.0842 -0.1531 -1.9469
 9864TIP3   OH251006   3.465   6.765   2.951  0.8201 -0.4826  0.0144
 9864TIP3    H151007   3.411   6.843   2.935 -0.8103 -1.3940  0.8237
 9864TIP3    H251008   3.540   6.775   2.892  0.7345  1.7585  0.2242
 9865TIP3   OH251009   4.363   6.692   1.097 -0.7798  0.1070 -0.1976
 9865TIP3    H151010   4.363   6.747   1.175  0.0094 -1.2765  0.8260
 9865TIP3    H251011   4.437   6.722   1.046 -0.2720 -0.0684  0.4197
 9866TIP3   OH251012   4.392   6.378  10.438  0.5151 -0.7279  0.4139
 9866TIP3    H151013   4.480   6.358  10.471  0.1134 -1.1163  1.3084
 9866TIP3    H251014   4.365   6.455  10.487  0.4086 -0.5293  0.0445
 9867TIP3   OH251015   2.711   2.960  12.221 -0.0694 -0.1199 -0.2264
 9867TIP3    H151016   2.671   2.949  12.135 -0.2697 -1.0529 -0.0280
 9867TIP3    H251017   2.797   2.920  12.213 -0.6732 -1.5997  0.4214
 9868TIP3   OH251018   5.559   2.687  13.669 -0.4247  0.2946  0.3981
 9868TIP3    H151019   5.465   2.706  13.667 -0.8403 -1.6057 -0.5810
 9868TIP3    H251020   5.582   2.695  13.762 -1.5339  0.8385  0.6529
 9869TIP3   OH251021   4.669   6.452   5.131  0.5309  0.2921 -0.3131
 9869TIP3    H151022   4.751   6.406   5.154  1.5419  0.9853 -2.2892
 9869TIP3    H251023   4.602   6.410   5.185  2.0002 -1.1002  0.5130
 9870TIP3   OH251024   4.551   1.623  11.251 -0.2881 -0.2059 -0.6342
 9870TIP3    H151025   4.575   1.537  11.287 -0.4448 -0.4362 -1.0819
 9870TIP3    H251026   4.493   1.603  11.178 -1.5011  0.3411  0.1630
 9871TIP3   OH251027   2.480   6.084  16.664 -0.1238  0.1398  0.9765
 9871TIP3    H151028   2.411   6.024  16.634 -0.0759  0.6624 -0.2247
 9871TIP3    H251029   2.450   6.170  16.635  1.5409  0.2532 -0.5478
 9872TIP3   OH251030   0.297   1.567  14.870 -0.3566 -0.4793  0.4507
 9872TIP3    H151031   0.249   1.646  14.843  1.3726  0.4655 -0.0242
 9872TIP3    H251032   0.389   1.587  14.850  0.3040 -2.0390  1.7229
 9873TIP3   OH251033   6.634   3.956   5.194 -0.2115  0.1112 -0.3145
 9873TIP3    H151034   6.561   4.014   5.218 -2.0569 -2.2821  0.2150
 9873TIP3    H251035   6.592   3.880   5.153  2.1549 -0.5799 -1.6904
 9874TIP3   OH251036   4.140   5.137  12.140  0.3571  0.7758  0.2270
 9874TIP3    H151037   4.110   5.135  12.050  0.6524  1.6256  0.1026
 9874TIP3    H251038   4.074   5.189  12.187  0.3663  0.6020  0.4354
 9875TIP3   OH251039   0.201   0.902   0.599  0.1223  0.2869 -0.5471
 9875TIP3    H151040   0.195   0.847   0.522  1.9529 -0.6053 -0.1098
 9875TIP3    H251041   0.110   0.922   0.622 -0.5897 -2.1724 -0.9789
 9876TIP3   OH251042   4.105   5.945   3.337  0.0302 -0.3274  0.1892
 9876TIP3    H151043   4.199   5.926   3.330  0.1598 -0.6084  2.1251
 9876TIP3    H251044   4.101   6.024   3.390 -0.8584 -1.1917  1.4518
 9877TIP3   OH251045   6.591   1.913   3.323 -0.4717  0.2027 -0.2012
 9877TIP3    H151046   6.531   1.967   3.272 -1.4515 -1.6018 -1.0422
 9877TIP3    H251047   6.542   1.833   3.340  0.8922 -0.3918  1.1050
 9878TIP3   OH251048   4.032   0.140  11.227 -0.7306  0.0304  0.5430
 9878TIP3    H151049   3.939   0.160  11.219 -0.6017  0.6595  0.6104
 9878TIP3    H251050   4.075   0.198  11.164 -0.2643  0.7094  1.4703
 9879TIP3   OH251051   2.279   0.039  13.896 -0.3343 -0.1959  0.2399
 9879TIP3    H151052   2.366   0.061  13.863 -0.2953  1.7897  1.5100
 9879TIP3    H251053   2.230   0.012  13.818  0.6880  1.1376 -0.9179
 9880TIP3   OH251054   3.896   3.924  16.374  0.1785 -0.3048 -0.2421
 9880TIP3    H151055   3.801   3.937  16.376  0.3759  1.3528  0.2370
 9880TIP3    H251056   3.915   3.877  16.455 -0.2575 -0.9138 -0.4868
 9881TIP3   OH251057   6.695   3.509  15.040 -0.4346 -0.4891  0.2605
 9881TIP3    H151058   6.698   3.482  14.948  0.5059 -0.2313  0.1996
 9881TIP3    H251059   6.710   3.603  15.038 -1.6401 -0.2876  0.6077
 9882TIP3   OH251060   3.974   1.824   0.691  0.3280 -0.0361 -0.0790
 9882TIP3    H151061   4.010   1.788   0.610 -1.6505 -0.3750 -0.8747
 9882TIP3    H251062   4.029   1.788   0.760 -0.1678 -2.8663 -1.0123
 9883TIP3   OH251063   1.847   0.366   3.626  0.1977  0.6667  0.1829
 9883TIP3    H151064   1.862   0.396   3.536  3.9873 -0.1204  0.4009
 9883TIP3    H251065   1.800   0.283   3.617  0.4817  0.6312 -1.0535
 9884TIP3   OH251066   3.823   3.426   5.912 -0.0168  0.1164 -0.3690
 9884TIP3    H151067   3.733   3.458   5.916 -0.1736 -0.2529 -0.8383
 9884TIP3    H251068   3.851   3.421   6.004 -0.3136  0.6671 -0.2436
 9885TIP3   OH251069   4.530   0.995   3.530 -0.1323  0.1638 -0.0278
 9885TIP3    H151070   4.583   0.939   3.587 -0.2488  0.3817  0.2949
 9885TIP3    H251071   4.462   0.938   3.496 -0.2777  0.1228  0.3351
 9886TIP3   OH251072   3.654   3.158  15.243  0.2821 -0.3816 -0.2593
 9886TIP3    H151073   3.723   3.169  15.309 -0.2116 -1.0734  0.3862
 9886TIP3    H251074   3.697   3.180  15.160  0.4847  2.1326  0.4322
 9887TIP3   OH251075   0.023   0.814  11.818  0.6508 -0.2599  0.0426
 9887TIP3    H151076  -0.033   0.860  11.755  1.3939  0.3928 -0.1610
 9887TIP3    H251077   0.112   0.839  11.794  1.0532 -1.3987  0.2634
 9888TIP3   OH251078   6.493   2.132   0.566  0.0654  0.2352 -0.2170
 9888TIP3    H151079   6.463   2.053   0.610  0.0014 -0.5092 -1.5469
 9888TIP3    H251080   6.547   2.177   0.631 -0.2110 -0.6954  0.6808
 9889TIP3   OH251081   0.329   0.181  16.235 -0.5809  0.2301 -0.2946
 9889TIP3    H151082   0.302   0.272  16.220 -0.1388  0.6280  1.1608
 9889TIP3    H251083   0.384   0.185  16.313 -0.8490 -1.3550  0.0038
 9890TIP3   OH251084   1.447   5.191  12.545  0.8709  0.5638 -0.1547
 9890TIP3    H151085   1.542   5.183  12.533  0.9190  0.1210  0.5064
 9890TIP3    H251086   1.434   5.189  12.639  0.1094 -0.5612 -0.2656
 9891TIP3   OH251087   1.011   5.640  12.024  0.0469 -0.3717  0.1978
 9891TIP3    H151088   1.054   5.725  12.032  1.6562 -1.1618  0.3439
 9891TIP3    H251089   1.059   5.582  12.083 -0.8630 -1.4514 -0.0719
 9892TIP3   OH251090   5.190   6.182   3.366  0.3167  0.5938  0.2092
 9892TIP3    H151091   5.203   6.090   3.343 -1.6481 -0.2413  2.1087
 9892TIP3    H251092   5.174   6.226   3.282  1.5440 -0.7252 -0.7510
 9893TIP3   OH251093   1.722   4.319   0.064  0.1944  0.4879 -0.4061
 9893TIP3    H151094   1.807   4.312   0.107 -0.2967  0.0583  0.5079
 9893TIP3    H251095   1.668   4.369   0.126 -0.9422 -1.3476  0.1557
 9894TIP3   OH251096   3.272   1.148  15.428  0.3040  0.6290 -0.1257
 9894TIP3    H151097   3.354   1.101  15.416  1.1122  1.8915  0.3450
 9894TIP3    H251098   3.207   1.079  15.441  1.2551 -0.3860 -0.6311
 9895TIP3   OH251099   4.663   2.707  16.424  0.5667 -0.4075  0.0295
 9895TIP3    H151100   4.712   2.651  16.364  1.9773  1.0937 -0.2875
 9895TIP3    H251101   4.571   2.686  16.406  0.9936 -1.0450 -1.6160
 9896TIP3   OH251102   1.694   6.484   2.096  0.0816  0.5157  0.3211
 9896TIP3    H151103   1.624   6.505   2.035 -1.1765 -1.1993  1.1020
 9896TIP3    H251104   1.724   6.569   2.129 -3.6969  1.3165  2.2235
 9897TIP3   OH251105   2.362   3.089   5.915  0.5461  0.1785  0.3016
 9897TIP3    H151106   2.421   3.153   5.876  0.5386 -0.3198 -0.5591
 9897TIP3    H251107   2.290   3.141   5.951  0.0961  0.6159 -1.1586
 9898TIP3   OH251108   3.626   1.779   4.361 -0.3960  0.4809 -0.3985
 9898TIP3    H151109   3.539   1.769   4.400 -0.6589 -2.1599 -1.4143
 9898TIP3    H251110   3.687   1.758   4.432 -0.4662  2.9269  0.4859
 9899TIP3   OH251111   0.180   1.809  14.286  0.2040  0.9169 -0.0272
 9899TIP3    H151112   0.196   1.812  14.192 -0.7283  0.1257 -0.2194
 9899TIP3    H251113   0.087   1.830  14.296 -0.1088 -0.5878  0.5668
 9900TIP3   OH251114   0.881   6.101   3.819 -0.6644 -0.5202 -0.0134
 9900TIP3    H151115   0.793   6.121   3.788 -0.6700  0.9907  0.8906
 9900TIP3    H251116   0.884   6.138   3.907  2.2484  3.4679 -1.5313
 9901TIP3   OH251117   5.651   5.709   0.510 -0.3572  0.5110  0.1368
 9901TIP3    H151118   5.648   5.805   0.516 -1.4293  0.9766 -4.2945
 9901TIP3    H251119   5.561   5.683   0.493  0.2458 -1.0079 -0.9324
 9902TIP3   OH251120   2.931   2.861  13.317  0.3201 -0.2391  0.0709
 9902TIP3    H151121   2.875   2.848  13.394  1.2091 -0.4630  0.7005
 9902TIP3    H251122   2.873   2.846  13.243 -0.8461  1.1164  0.6651
 9903TIP3   OH251123   1.375   4.012  13.432 -0.2301  0.1211  0.5659
 9903TIP3    H151124   1.451   3.954  13.441  0.0669  0.3221 -0.4580
 9903TIP3    H251125   1.339   3.990  13.346  0.0793  1.6690  0.0209
 9904TIP3   OH251126   5.876   6.053  16.796  0.2713  0.4690 -0.3256
 9904TIP3    H151127   5.822   6.072  16.873  1.8428 -0.3139  1.0114
 9904TIP3    H251128   5.887   6.139  16.754  1.3793  1.3946  1.6868
 9905TIP3   OH251129   1.892   2.247  12.298 -0.1920 -0.6612  0.0525
 9905TIP3    H151130   1.809   2.249  12.346 -0.2576 -1.0091 -0.0403
 9905TIP3    H251131   1.912   2.339  12.280 -0.8577 -0.5986 -0.4262
 9906TIP3   OH251132   1.230   3.364   3.851 -0.8489 -0.4115  0.0889
 9906TIP3    H151133   1.249   3.417   3.773 -1.3931  0.0590  0.2668
 9906TIP3    H251134   1.160   3.305   3.824 -0.9793 -0.3061  0.1993
 9907TIP3   OH251135   1.318   6.062  14.160 -0.1089 -0.1877  0.0519
 9907TIP3    H151136   1.258   6.107  14.099 -1.5983 -0.7676  1.0251
 9907TIP3    H251137   1.390   6.032  14.105 -0.7787  0.4225 -1.2046
 9908TIP3   OH251138   5.274   2.246  11.394  0.5897 -0.1548 -0.1444
 9908TIP3    H151139   5.318   2.314  11.445  0.2970  0.0778 -0.2009
 9908TIP3    H251140   5.250   2.288  11.312 -0.9584  0.1307  0.4163
 9909TIP3   OH251141   0.646   1.082   5.535 -0.1579 -0.0298  0.7946
 9909TIP3    H151142   0.682   1.141   5.602 -0.5595 -0.2031  1.1723
 9909TIP3    H251143   0.639   0.998   5.580  0.8339 -0.4868  0.1240
 9910TIP3   OH251144   0.261   2.871  14.254 -0.8485 -0.2305 -0.3451
 9910TIP3    H151145   0.349   2.860  14.219 -0.0107  2.1982  0.7502
 9910TIP3    H251146   0.211   2.908  14.182 -0.4157  0.2944 -0.3809
 9911TIP3   OH251147   0.778   5.394  15.955 -0.2708  0.2658 -0.3450
 9911TIP3    H151148   0.790   5.300  15.956 -0.4188  0.2316  2.0233
 9911TIP3    H251149   0.683   5.406  15.949 -0.2436  0.2819 -0.7899
 9912TIP3   OH251150   6.192   2.376   1.100  0.2627  0.1103  0.3432
 9912TIP3    H151151   6.168   2.310   1.035  0.6607  1.5927 -1.4099
 9912TIP3    H251152   6.131   2.448   1.084  1.0396  0.9187  0.9248
 9913TIP3   OH251153   0.626   6.212  12.964 -0.3195 -0.0067 -0.4021
 9913TIP3    H151154   0.572   6.247  13.035  0.0103  0.6777 -0.4814
 9913TIP3    H251155   0.572   6.224  12.886  0.0090  0.8570 -0.5093
 9914TIP3   OH251156   1.911   3.339  14.650  0.2910  0.0560  0.2574
 9914TIP3    H151157   1.965   3.366  14.724  0.9401 -1.3719  0.3304
 9914TIP3    H251158   1.825   3.319  14.688  1.0414 -2.1443  0.9189
 9915TIP3   OH251159   4.407   2.036   1.746 -0.2652 -0.0474 -0.0414
 9915TIP3    H151160   4.359   2.019   1.827 -0.7787  0.1722 -0.2964
 9915TIP3    H251161   4.351   1.999   1.678  1.3821 -2.7407 -0.1161
 9916TIP3   OH251162   5.993   6.758  11.568 -0.9251  0.6889  0.4273
 9916TIP3    H151163   5.998   6.832  11.507 -0.6491  0.8716  0.6675
 9916TIP3    H251164   5.968   6.797  11.651 -2.1775  0.3244  0.2372
 9917TIP3   OH251165   6.079   2.912   0.331  0.5422  0.3034  0.3550
 9917TIP3    H151166   6.094   2.818   0.335  0.3973  0.3219  1.4308
 9917TIP3    H251167   6.097   2.944   0.419  1.6159  1.4434 -0.2331
 9918TIP3   OH251168   6.686   4.958  14.960 -0.0662  0.4419  0.0776
 9918TIP3    H151169   6.759   5.010  14.928 -0.9373  0.8554 -1.3125
 9918TIP3    H251170   6.665   4.995  15.046  1.9182 -0.2878  0.9431
 9919TIP3   OH251171   4.009   5.114  14.946 -0.1158 -0.0678 -0.6021
 9919TIP3    H151172   3.955   5.158  14.881 -1.8514 -1.8684 -0.4880
 9919TIP3    H251173   3.946   5.079  15.009  1.4208  0.3989  1.2868
 9920TIP3   OH251174   3.413   3.679  15.471 -0.2689 -1.1359 -0.0432
 9920TIP3    H151175   3.389   3.698  15.562 -1.2732  1.0176 -0.6772
 9920TIP3    H251176   3.373   3.594  15.453  0.1304 -1.7097  1.5626
 9921TIP3   OH251177   3.434   2.654  15.234 -0.5649 -0.7572  0.6118
 9921TIP3    H151178   3.376   2.578  15.233 -0.2985 -0.9908 -1.3920
 9921TIP3    H251179   3.375   2.729  15.236 -0.8487 -0.9923  1.6727
 9922TIP3   OH251180   2.914   2.699   2.223 -0.1531  0.0484  0.3485
 9922TIP3    H151181   2.883   2.608   2.222 -0.3946  0.1120 -1.0327
 9922TIP3    H251182   2.908   2.726   2.314 -1.4051 -0.8952  0.5789
 9923TIP3   OH251183   6.714   6.021   0.103  0.1257 -0.0254 -0.2626
 9923TIP3    H151184   6.660   5.954   0.060 -1.6145  1.4965 -0.6081
 9923TIP3    H251185   6.654   6.095   0.117  1.5609  0.8879  1.5440
 9924TIP3   OH251186   1.772   5.942  10.852  0.1651  0.4413  0.1619
 9924TIP3    H151187   1.823   5.878  10.902  0.0141  0.3857  0.2451
 9924TIP3    H251188   1.702   5.891  10.812  0.3222  0.4750 -0.1591
 9925TIP3   OH251189   5.291   6.037  13.264 -0.2946  0.0376  0.3610
 9925TIP3    H151190   5.281   5.942  13.265  1.5438 -0.2020  0.9546
 9925TIP3    H251191   5.216   6.069  13.215 -0.6325 -1.7651 -0.3732
 9926TIP3   OH251192   1.630   5.161  14.518 -0.0481  0.2851  0.0731
 9926TIP3    H151193   1.675   5.087  14.558  3.3594  2.0557 -0.1225
 9926TIP3    H251194   1.605   5.218  14.591 -0.0902  0.2715  0.0692
 9927TIP3   OH251195   0.058   1.837  15.534 -0.8080 -0.0600  0.6605
 9927TIP3    H151196   0.046   1.881  15.618  0.5452 -0.3184  1.0107
 9927TIP3    H251197   0.000   1.760  15.538 -2.2169  0.9474  0.5526
 9928TIP3   OH251198   5.816   5.944  14.234  0.1232  0.4382 -0.2370
 9928TIP3    H151199   5.858   5.948  14.320  0.9315 -0.3188 -0.5866
 9928TIP3    H251200   5.879   5.899  14.178 -1.2584 -1.0096 -0.7107
 9929TIP3   OH251201   3.626   6.213   3.349 -0.6529  0.7882 -0.4741
 9929TIP3    H151202   3.701   6.156   3.335 -1.9509 -0.6753 -1.9060
 9929TIP3    H251203   3.571   6.166   3.411 -0.4154  1.8756  0.6149
 9930TIP3   OH251204   1.939   1.203   5.869  0.2082 -0.0874 -0.0602
 9930TIP3    H151205   1.965   1.264   5.937  0.6016 -0.0834 -0.2127
 9930TIP3    H251206   1.855   1.236   5.837  0.6594  0.6597 -0.4890
 9931TIP3   OH251207   6.580   5.188   4.859 -0.4877  0.0987 -0.8350
 9931TIP3    H151208   6.548   5.270   4.821 -1.4561 -0.2316 -0.7586
 9931TIP3    H251209   6.515   5.165   4.926  1.2616  0.7702  1.2339
 9932TIP3   OH251210   5.195   6.652  11.613 -0.0966 -0.1439 -0.5090
 9932TIP3    H151211   5.268   6.668  11.673 -0.9900  2.3877  0.0626
 9932TIP3    H251212   5.195   6.558  11.600  1.5141 -0.5541  1.7198
 9933TIP3   OH251213   1.840   5.658   3.176  0.2678 -0.1393  0.3027
 9933TIP3    H151214   1.931   5.637   3.157 -0.0924 -0.5551 -1.1744
 9933TIP3    H251215   1.811   5.710   3.100 -0.8856 -0.5559  0.4293
 9934TIP3   OH251216   0.936   1.769   5.067 -0.1503  0.1262  0.7457
 9934TIP3    H151217   0.893   1.853   5.052  1.1074  0.5818 -0.4883
 9934TIP3    H251218   0.912   1.715   4.992 -0.5503 -0.4666  1.2862
 9935TIP3   OH251219   2.998   5.811   5.396  0.2702  0.3036 -0.2612
 9935TIP3    H151220   2.943   5.773   5.328  1.9460 -0.9341 -0.9946
 9935TIP3    H251221   2.954   5.788   5.478 -0.7209  0.0545 -0.8496
 9936TIP3   OH251222   6.115   3.790   4.428  0.8260 -0.1540  0.4342
 9936TIP3    H151223   6.029   3.833   4.431  0.0392 -1.7004  1.0530
 9936TIP3    H251224   6.176   3.861   4.410 -0.6177  0.9352 -0.3920
 9937TIP3   OH251225   0.516   4.915   0.052  0.1206 -0.3132  0.2160
 9937TIP3    H151226   0.485   4.884  -0.033 -3.9217  1.0112  0.9810
 9937TIP3    H251227   0.540   4.835   0.100  0.9332 -1.1853 -1.5414
 9938TIP3   OH251228   6.318   1.711  10.826 -0.0183 -0.6238 -0.4056
 9938TIP3    H151229   6.291   1.635  10.877  1.1458 -0.7577  0.0403
 9938TIP3    H251230   6.266   1.706  10.746 -1.1025 -0.9958  0.3102
 9939TIP3   OH251231   1.729   4.547   6.235 -0.2242  0.3030 -0.0407
 9939TIP3    H151232   1.816   4.581   6.214 -0.0137 -0.6621 -0.8704
 9939TIP3    H251233   1.673   4.624   6.242  0.4905  0.8824 -0.5582
 9940TIP3   OH251234   5.662   5.227   2.323 -0.7768  0.0835 -0.1347
 9940TIP3    H151235   5.713   5.209   2.402  0.3695  0.5804 -0.7468
 9940TIP3    H251236   5.706   5.178   2.254 -0.8609  0.8578 -0.7561
 9941TIP3   OH251237   3.888   4.668  12.807 -0.6786 -0.0599 -1.1150
 9941TIP3    H151238   3.891   4.713  12.892  0.4521 -0.5586 -0.8771
 9941TIP3    H251239   3.805   4.697  12.768 -0.9087  0.6826 -0.1256
 9942TIP3   OH251240   2.439   2.731   0.356  0.1961  0.3214  0.1742
 9942TIP3    H151241   2.490   2.727   0.275 -0.2632  1.1470 -0.1713
 9942TIP3    H251242   2.351   2.704   0.330  0.1833  0.0327  0.5172
 9943TIP3   OH251243   5.245   2.365  12.465 -0.5467 -0.4952 -0.1117
 9943TIP3    H151244   5.177   2.375  12.532  1.1364  0.8592  1.5033
 9943TIP3    H251245   5.321   2.333  12.512  1.2187  2.1282 -0.9413
 9944TIP3   OH251246   1.791   3.345  16.161 -0.2953 -0.5065 -0.3405
 9944TIP3    H151247   1.748   3.393  16.231  1.0448 -0.3466  0.4076
 9944TIP3    H251248   1.799   3.408  16.089 -1.5232 -0.6245 -0.6110
 9945TIP3   OH251249   2.669   0.872  10.998  0.8693 -0.2115 -0.2155
 9945TIP3    H151250   2.688   0.950  10.946 -1.8838  1.4036  0.9416
 9945TIP3    H251251   2.595   0.830  10.953  0.2280 -0.3108  0.8829
 9946TIP3   OH251252   5.639   4.337   5.064 -0.1704  0.2303  0.0289
 9946TIP3    H151253   5.727   4.311   5.037 -0.3869 -1.7422  1.0018
 9946TIP3    H251254   5.586   4.327   4.985  0.0649 -0.8718 -0.0036
 9947TIP3   OH251255   4.345   3.385  15.740 -0.2783 -0.5169  0.0920
 9947TIP3    H151256   4.367   3.348  15.826 -0.3078 -0.4998  0.1064
 9947TIP3    H251257   4.315   3.473  15.759 -0.0545 -0.4280  0.0425
 9948TIP3   OH251258   6.821   1.620  15.805  0.0226 -0.1418  0.1763
 9948TIP3    H151259   6.817   1.614  15.710 -0.1550  0.5308  0.1338
 9948TIP3    H251260   6.770   1.698  15.826  0.1055 -0.2530  0.8202
 9949TIP3   OH251261   1.144   1.779  11.463  0.3970  0.5502  0.5067
 9949TIP3    H151262   1.186   1.756  11.380 -0.8128  0.8899 -0.2232
 9949TIP3    H251263   1.217   1.790  11.524  1.2540 -1.2393 -0.0967
 9950TIP3   OH251264   3.146   2.115  11.265 -0.3498 -0.5417  0.0025
 9950TIP3    H151265   3.189   2.103  11.350  0.9360  0.6310 -0.4507
 9950TIP3    H251266   3.056   2.139  11.288 -1.2109 -4.0690  0.9597
 9951TIP3   OH251267   0.838   5.566   3.536 -0.2658 -0.5954  0.7096
 9951TIP3    H151268   0.773   5.522   3.590 -0.0871  0.3008  1.6856
 9951TIP3    H251269   0.791   5.592   3.457 -0.7360 -1.2001  0.7885
 9952TIP3   OH251270   6.239   4.396   0.094  0.2739  0.6936  0.4756
 9952TIP3    H151271   6.300   4.323   0.082 -0.9550 -0.1037 -1.1846
 9952TIP3    H251272   6.289   4.473   0.064  0.7933  0.1958  0.0286
 9953TIP3   OH251273   4.525   4.870   4.950 -0.1053  0.5452 -0.4215
 9953TIP3    H151274   4.610   4.847   4.912 -0.7601 -2.0401 -0.5371
 9953TIP3    H251275   4.545   4.905   5.036  1.0706 -1.0313 -0.0192
 9954TIP3   OH251276   4.847   6.346   0.248 -0.4187  0.2050  0.1092
 9954TIP3    H151277   4.816   6.328   0.337 -1.2512 -0.3948 -0.2895
 9954TIP3    H251278   4.772   6.326   0.192  0.1755  0.3347 -0.7459
 9955TIP3   OH251279   3.013   1.716  13.499  0.4998 -0.0230  0.5000
 9955TIP3    H151280   2.987   1.642  13.443  0.0686  0.5286 -0.0501
 9955TIP3    H251281   3.062   1.676  13.571 -1.2249 -1.0463  1.1631
 9956TIP3   OH251282   5.461   6.558   2.379 -0.0730  0.8624 -0.1611
 9956TIP3    H151283   5.509   6.574   2.460  0.4082  0.0486 -0.2806
 9956TIP3    H251284   5.486   6.631   2.322  0.8975  0.5402 -0.1597
 9957TIP3   OH251285   1.368   3.848  16.569  0.3612  0.3824  0.3051
 9957TIP3    H151286   1.433   3.919  16.574 -0.3649  1.0926 -0.0603
 9957TIP3    H251287   1.417   3.774  16.534  1.4241  0.3223  1.8216
 9958TIP3   OH251288   3.209   1.293   1.869  0.5123 -0.4095 -0.2406
 9958TIP3    H151289   3.149   1.231   1.828 -0.2117  0.3905 -0.4150
 9958TIP3    H251290   3.284   1.298   1.809 -0.3700  0.4708 -1.3062
 9959TIP3   OH251291   4.859   6.322   5.288 -0.8431 -0.1960 -0.2983
 9959TIP3    H151292   4.828   6.232   5.277 -0.0695 -0.5582  0.3892
 9959TIP3    H251293   4.941   6.325   5.238 -1.1194  0.2641 -0.7213
 9960TIP3   OH251294   0.556   1.078  17.035 -0.0361 -0.0318 -0.1529
 9960TIP3    H151295   0.585   0.993  17.003  0.6108 -0.7544  2.2007
 9960TIP3    H251296   0.487   1.059  17.098 -2.3961  1.4296 -2.0954
 9961TIP3   OH251297   1.698   3.768  16.193  0.0840 -0.2542 -0.0678
 9961TIP3    H151298   1.693   3.841  16.255  0.6970 -0.5518  0.3403
 9961TIP3    H251299   1.761   3.796  16.127  2.1520 -1.2999  1.3433
 9962TIP3   OH251300   4.502   3.285   2.361  0.2504  0.2629  0.0890
 9962TIP3    H151301   4.442   3.257   2.430 -0.8328  0.2741 -0.8075
 9962TIP3    H251302   4.559   3.349   2.403 -0.7603  0.7083  0.8368
 9963TIP3   OH251303   6.687   1.669   3.628 -0.5030 -0.2260 -0.6582
 9963TIP3    H151304   6.607   1.645   3.675  0.5434 -2.2867  0.2035
 9963TIP3    H251305   6.758   1.635   3.682  1.0457  2.1984 -1.0254
 9964TIP3   OH251306   0.573   3.195  12.113 -1.1700 -0.2065 -0.0664
 9964TIP3    H151307   0.622   3.113  12.122 -1.5191 -0.3896  0.1820
 9964TIP3    H251308   0.628   3.249  12.056 -0.8077 -0.5099 -0.0122
 9965TIP3   OH251309   5.005   0.206  12.534 -0.6099  0.2470  0.6290
 9965TIP3    H151310   4.965   0.214  12.621 -0.2096 -0.4551  0.8898
 9965TIP3    H251311   5.047   0.120  12.535 -0.6193  0.2223 -0.2747
 9966TIP3   OH251312   0.379   2.435  16.374  0.3812  0.0291 -0.1059
 9966TIP3    H151313   0.358   2.344  16.356  0.2084  0.1711 -0.6482
 9966TIP3    H251314   0.297   2.471  16.409  0.6094 -0.1561  0.6290
 9967TIP3   OH251315   4.972   6.112   1.103 -0.1002  0.1228 -0.2456
 9967TIP3    H151316   5.062   6.127   1.073  0.4819 -2.9379 -0.3049
 9967TIP3    H251317   4.946   6.030   1.063 -2.6514  0.4901  0.4734
 9968TIP3   OH251318   2.694   2.099   2.282 -0.0325 -0.4812 -0.4943
 9968TIP3    H151319   2.763   2.159   2.254  0.0932 -1.4876 -2.5776
 9968TIP3    H251320   2.739   2.016   2.299 -0.6962 -1.2820 -2.3373
 9969TIP3   OH251321   2.511   0.700   1.911 -0.1493  0.2435 -0.4699
 9969TIP3    H151322   2.507   0.604   1.914  0.4821  0.1296 -2.1073
 9969TIP3    H251323   2.573   0.724   1.980  0.0917 -0.5590 -0.3997
 9970TIP3   OH251324   6.777   5.333   0.345 -0.1342 -0.0073  0.1688
 9970TIP3    H151325   6.813   5.336   0.433 -2.2971 -1.9250  1.2261
 9970TIP3    H251326   6.694   5.285   0.354 -1.1927  1.0358 -2.6547
 9971TIP3   OH251327   1.232   2.889  13.270  0.0292  0.2452 -0.0293
 9971TIP3    H151328   1.152   2.843  13.242 -0.3181  0.6562  0.2752
 9971TIP3    H251329   1.229   2.973  13.224  0.4272  0.1538 -0.2249
 9972TIP3   OH251330   3.374   1.510  16.725 -0.5394 -0.1785  0.4580
 9972TIP3    H151331   3.287   1.478  16.702 -0.1547 -0.6643 -0.3516
 9972TIP3    H251332   3.396   1.571  16.655  0.7473 -1.8550 -0.6874
 9973TIP3   OH251333   3.833   4.853   0.154  0.0234 -0.2927  0.6552
 9973TIP3    H151334   3.793   4.827   0.237 -0.5970 -0.3441  0.3463
 9973TIP3    H251335   3.827   4.949   0.153  0.6356 -0.2466  0.9643
 9974TIP3   OH251336   3.220   4.838   2.321  0.0772 -0.1444 -0.0640
 9974TIP3    H151337   3.236   4.813   2.230 -0.8412 -2.0870  0.2575
 9974TIP3    H251338   3.305   4.827   2.364  0.8247  1.9445 -0.8644
 9975TIP3   OH251339   6.312   1.043  11.504  0.1399  0.0802  0.1491
 9975TIP3    H151340   6.242   0.978  11.498 -1.4611  1.8315 -2.1714
 9975TIP3    H251341   6.275   1.113  11.558  1.3513 -0.3164  1.5472
 9976TIP3   OH251342   5.073   2.370  12.689  0.2303  0.0670 -0.0769
 9976TIP3    H151343   5.001   2.428  12.714  0.9767  0.4476  1.2886
 9976TIP3    H251344   5.086   2.313  12.765  1.4566  0.1099 -0.2256
 9977TIP3   OH251345   4.860   3.787  14.804  0.6021 -0.3902  0.5381
 9977TIP3    H151346   4.924   3.849  14.769 -0.2281 -0.2844 -0.8385
 9977TIP3    H251347   4.857   3.807  14.898  0.2365  1.7877  0.1308
 9978TIP3   OH251348   4.267   3.667   6.664 -0.0900 -0.9719 -0.2877
 9978TIP3    H151349   4.325   3.591   6.673  3.2840  1.3470 -0.5631
 9978TIP3    H251350   4.241   3.667   6.572  0.2590 -1.5356 -0.3928
 9979TIP3   OH251351   1.797   5.807   4.600 -0.5516  0.3249 -0.1715
 9979TIP3    H151352   1.778   5.901   4.603 -0.9094  0.2468  0.1978
 9979TIP3    H251353   1.875   5.800   4.545  0.1956  0.9493  0.7658
 9980TIP3   OH251354   6.474   0.505  16.751 -0.5451 -0.5305  0.1694
 9980TIP3    H151355   6.430   0.421  16.764  2.5649 -2.6103 -1.5257
 9980TIP3    H251356   6.553   0.499  16.804  0.2043  0.9370 -0.7260
 9981TIP3   OH251357   5.168   5.322  13.322 -0.1101 -0.3681  0.0251
 9981TIP3    H151358   5.168   5.338  13.227  0.3796  0.6694  0.1935
 9981TIP3    H251359   5.079   5.290  13.340 -0.1752 -0.6837 -0.7964
 9982TIP3   OH251360   4.891   2.233   1.947  0.2672 -0.4874  0.2657
 9982TIP3    H151361   4.802   2.212   1.919  0.9991 -1.4300 -1.5376
 9982TIP3    H251362   4.942   2.233   1.866  1.8041  0.6667  1.1748
 9983TIP3   OH251363   1.976   2.481  15.576 -0.0378 -0.5270  0.1478
 9983TIP3    H151364   1.949   2.393  15.601  0.1915 -0.7059 -0.2338
 9983TIP3    H251365   1.989   2.527  15.659 -0.0849 -0.8715  0.3440
 9984TIP3   OH251366   3.792   4.919   4.107  0.5786 -0.1927  0.6573
 9984TIP3    H151367   3.726   4.973   4.064  0.4128 -1.9935 -1.5581
 9984TIP3    H251368   3.758   4.904   4.195 -1.3084  0.0350  0.0077
 9985TIP3   OH251369   1.261   4.374   5.124 -0.2650  0.2166  0.2094
 9985TIP3    H151370   1.254   4.378   5.220 -0.6013  1.5133  0.1599
 9985TIP3    H251371   1.310   4.453   5.101 -1.9611  1.0235 -0.8242
 9986TIP3   OH251372   1.146   6.401   5.148 -0.0899  0.3927 -0.7995
 9986TIP3    H151373   1.147   6.429   5.056  0.1726  3.3882  0.0204
 9986TIP3    H251374   1.110   6.476   5.196  2.5551  0.1438  1.8674
 9987TIP3   OH251375   3.305   2.115  16.398 -0.0343 -0.1436  0.0027
 9987TIP3    H151376   3.333   2.134  16.488  0.2778 -0.5537 -0.0062
 9987TIP3    H251377   3.209   2.117  16.402 -0.0153  0.2713  0.2505
 9988TIP3   OH251378   2.137   5.662   1.901 -0.0375 -0.8666 -0.3869
 9988TIP3    H151379   2.147   5.704   1.987  2.8629 -1.8954 -0.1183
 9988TIP3    H251380   2.043   5.667   1.883 -0.4485  1.3845  1.7905
 9989TIP3   OH251381   3.535   1.728  16.007 -0.1293 -0.3554 -0.5132
 9989TIP3    H151382   3.526   1.679  15.925  0.5007  0.8602 -1.3440
 9989TIP3    H251383   3.457   1.705  16.057 -0.6647 -0.9284 -1.5674
 9990TIP3   OH251384   4.339   3.907  16.138 -0.3906 -0.0198  0.2571
 9990TIP3    H151385   4.253   3.945  16.156  0.3672  1.7379  0.3930
 9990TIP3    H251386   4.396   3.983  16.123  0.5875 -1.1745 -2.4705
 9991TIP3   OH251387   3.681   4.691   1.092 -0.4366 -0.3497  0.0953
 9991TIP3    H151388   3.633   4.736   1.162 -0.7062 -1.5655  0.7161
 9991TIP3    H251389   3.733   4.625   1.137  1.1300  0.3263 -0.6623
 9992TIP3   OH251390   2.394   1.690   1.173  0.4440 -0.1366 -0.4038
 9992TIP3    H151391   2.458   1.727   1.233  0.0987 -0.9413  0.4699
 9992TIP3    H251392   2.310   1.704   1.215  0.0998  0.1973 -1.1751
 9993TIP3   OH251393   2.690   5.039  16.810 -0.1228 -0.2265 -0.1751
 9993TIP3    H151394   2.707   5.109  16.872 -0.0653 -0.7267  0.3843
 9993TIP3    H251395   2.716   4.959  16.856  2.4792 -0.4097 -1.7763
 9994TIP3   OH251396   5.123   1.849   6.313 -0.0124 -0.7685 -0.0474
 9994TIP3    H151397   5.101   1.802   6.394 -0.9308  1.1022  0.8429
 9994TIP3    H251398   5.043   1.896   6.290  1.1177  1.0604 -0.3848
 9995TIP3   OH251399   2.194   4.447   6.153 -0.0782 -0.1535  0.2466
 9995TIP3    H151400   2.157   4.509   6.215 -0.3916 -0.5105  0.4201
 9995TIP3    H251401   2.288   4.449   6.170 -0.1368 -0.0575  0.5530
 9996TIP3   OH251402   6.756   2.006   0.303 -0.6527 -0.1414 -0.0150
 9996TIP3    H151403   6.808   1.996   0.224  1.3044  0.7880  1.0934
 9996TIP3    H251404   6.731   1.917   0.328 -2.9622 -0.3744 -2.6349
 9997TIP3   OH251405   4.007   0.461   2.268  0.2737  0.3840  0.2856
 9997TIP3    H151406   4.051   0.516   2.333 -1.9519  2.3696  0.2171
 9997TIP3    H251407   4.067   0.460   2.193  2.0277 -0.4144  1.6334
 9998TIP3   OH251408   2.761   0.815   1.996 -0.0159  0.1566  0.7215
 9998TIP3    H151409   2.778   0.861   2.079 -2.0198 -0.1086  1.3495
 9998TIP3    H251410   2.743   0.885   1.933 -1.6899  0.3395  1.3425
 9999TIP3   OH251411   4.331   4.256  14.940  0.7002 -0.5633 -0.3809
 9999TIP3    H151412   4.344   4.206  14.860 -0.5165 -0.4037 -0.7011
 9999TIP3    H251413   4.313   4.345  14.910  0.3443 -0.4810  0.0611
10000TIP3   OH251414   4.665   6.435  11.462 -0.5061  0.4103 -0.3540
10000TIP3    H151415   4.576   6.417  11.432 -1.3783 -1.2802  2.8235
10000TIP3    H251416   4.700   6.349  11.485  1.0478  1.3104  0.7606
10001TIP3   OH251417   0.482   1.007   3.649  0.2289 -0.7211  0.0613
10001TIP3    H151418   0.450   1.087   3.608  2.5957 -0.8274 -2.3270
10001TIP3    H251419   0.499   1.031   3.740 -0.7377  0.9849 -0.1713
10002TIP3   OH251420   3.636   4.209   2.052 -0.0759  0.1209 -0.0014
10002TIP3    H151421   3.695   4.267   2.004  0.3392  0.1537  0.5347
10002TIP3    H251422   3.679   4.196   2.136 -0.0969 -1.0727 -0.1596
10003TIP3   OH251423   5.276   1.434  13.943  0.0377  0.3057  0.1811
10003TIP3    H151424   5.304   1.367  14.005 -0.5853  0.7600  0.9743
10003TIP3    H251425   5.207   1.392  13.892  1.9081 -0.7545 -1.6533
10004TIP3   OH251426   1.348   6.077  10.919  0.9207 -0.3478  0.0980
10004TIP3    H151427   1.289   6.148  10.895  0.5660 -0.1288  1.5153
10004TIP3    H251428   1.372   6.036  10.836  0.8474  1.1908 -0.7165
10005TIP3   OH251429   1.041   5.719  13.619  0.4962  0.1006 -0.6102
10005TIP3    H151430   1.083   5.633  13.619  1.0508  0.3633  0.2431
10005TIP3    H251431   0.955   5.704  13.658  0.5331 -0.0960 -0.6021
10006TIP3   OH251432   6.314   2.195   2.942  0.4491  0.1841 -0.3101
10006TIP3    H151433   6.228   2.160   2.967  0.8950 -1.7237 -1.2572
10006TIP3    H251434   6.358   2.213   3.025 -1.1759  2.1388  0.2081
10007TIP3   OH251435   4.594   6.806   2.873 -0.4480 -0.1806  0.4512
10007TIP3    H151436   4.673   6.759   2.898 -1.1771 -1.5982  0.1580
10007TIP3    H251437   4.536   6.797   2.949 -0.5529  0.3812  0.4466
10008TIP3   OH251438   3.662   2.249  16.666 -0.2309 -0.1717  0.1026
10008TIP3    H151439   3.643   2.156  16.650 -2.5051  0.2122  0.2499
10008TIP3    H251440   3.665   2.256  16.762 -1.4670  0.1321  0.1313
10009TIP3   OH251441   4.682   2.257  12.069 -0.0900 -0.1833  0.1948
10009TIP3    H151442   4.663   2.242  11.976  1.3399  0.4986 -0.2315
10009TIP3    H251443   4.613   2.316  12.098 -0.3228 -0.0796 -0.5412
10010TIP3   OH251444   0.054   6.815   0.408  0.7306 -0.0909  0.0749
10010TIP3    H151445   0.034   6.776   0.493 -0.0115 -0.9263 -0.4718
10010TIP3    H251446   0.077   6.906   0.428 -0.5468  0.0433  1.0620
10011TIP3   OH251447   5.337   6.333   4.325 -0.1315  0.0223 -0.8369
10011TIP3    H151448   5.250   6.372   4.315  0.0316  0.6669  0.0909
10011TIP3    H251449   5.397   6.399   4.290  0.0572  0.0665 -0.4361
10012TIP3   OH251450   3.762   6.665  10.534 -0.2164  0.0399 -0.0373
10012TIP3    H151451   3.809   6.645  10.453 -2.0724  0.0371 -1.1648
10012TIP3    H251452   3.695   6.597  10.541  0.2289 -0.2576  1.8055
10013TIP3   OH251453   2.715   0.264  15.369 -0.0467 -0.1478  0.3583
10013TIP3    H151454   2.629   0.244  15.334 -0.1130 -0.5952  0.7694
10013TIP3    H251455   2.750   0.179  15.397  0.0684  0.1737  1.2192
10014TIP3   OH251456   4.062   4.531   1.530  0.2553 -0.1668 -0.2763
10014TIP3    H151457   4.133   4.515   1.468  0.1858  0.0971 -0.4242
10014TIP3    H251458   3.990   4.476   1.499  0.2062 -0.0019 -0.4544
10015TIP3   OH251459   0.614   4.139   4.631 -0.4848 -0.1926  0.2489
10015TIP3    H151460   0.524   4.134   4.600 -0.3784 -0.0518 -0.0809
10015TIP3    H251461   0.642   4.228   4.610  0.4764 -0.9154 -1.7332
10016TIP3   OH251462   6.084   2.038   0.995  0.2394  0.3968  0.0067
10016TIP3    H151463   6.042   1.952   0.985  0.4866  0.3435 -0.5556
10016TIP3    H251464   6.048   2.072   1.077  1.9793 -1.2924  1.5728
10017TIP3   OH251465   4.285   1.047  11.550  0.5532  0.0747 -0.0161
10017TIP3    H151466   4.282   1.143  11.551  1.2138  0.0950  0.4778
10017TIP3    H251467   4.286   1.023  11.643  1.2758 -0.3777 -0.1390
10018TIP3   OH251468   6.701   1.831   4.289 -0.5650  0.7757 -0.5677
10018TIP3    H151469   6.696   1.745   4.246  0.9531  0.3071  0.1321
10018TIP3    H251470   6.765   1.879   4.238  0.3193  0.6560  0.4097
10019TIP3   OH251471   0.524   3.313   5.415  0.1202 -0.2952  0.2610
10019TIP3    H151472   0.582   3.354   5.351 -0.9476  3.4739  1.3835
10019TIP3    H251473   0.454   3.275   5.363  1.7482 -1.8511 -0.9294
10020TIP3   OH251474   1.518   1.036   2.533  0.1653 -0.6120  0.4133
10020TIP3    H151475   1.430   1.050   2.566  0.3112 -0.7867  0.8771
10020TIP3    H251476   1.575   1.082   2.594  0.3107  0.5472 -0.5704
10021TIP3   OH251477   2.023   4.416   3.531 -0.6330  0.2894 -0.2269
10021TIP3    H151478   1.980   4.466   3.600  1.3329  1.6328  0.1180
10021TIP3    H251479   2.022   4.475   3.455  2.4392  1.3847  0.4117
10022TIP3   OH251480   3.236   5.405   3.365  0.0888  0.0057  0.0774
10022TIP3    H151481   3.283   5.398   3.282  0.2216  0.7731  0.0807
10022TIP3    H251482   3.144   5.401   3.340  0.1168  0.6188 -0.1632
10023TIP3   OH251483   2.100   0.351   3.982  0.1486  0.0821 -0.3269
10023TIP3    H151484   2.176   0.397   3.946 -0.2457  0.9338 -0.0869
10023TIP3    H251485   2.112   0.260   3.955 -0.4602  0.7611 -3.1849
10024TIP3   OH251486   1.912   1.417   3.729  0.6749 -0.2007 -0.4585
10024TIP3    H151487   1.922   1.512   3.725 -0.1982 -0.1230 -1.2480
10024TIP3    H251488   1.840   1.398   3.668  0.8238 -1.3633 -0.2960
10025TIP3   OH251489   6.477   0.711   4.588  0.5860  0.1957 -0.6272
10025TIP3    H151490   6.409   0.696   4.522  2.3082  2.6252 -3.1543
10025TIP3    H251491   6.432   0.757   4.659 -0.6767  0.4399 -1.5552
10026TIP3   OH251492   1.148   4.153   1.777 -0.1128 -0.2430  0.3119
10026TIP3    H151493   1.068   4.182   1.734  0.9025  0.5632 -1.1595
10026TIP3    H251494   1.213   4.151   1.706  0.9159 -1.9231  1.2413
10027TIP3   OH251495   6.296   6.538  15.551 -0.4121 -0.4093  0.3223
10027TIP3    H151496   6.357   6.583  15.493 -0.4348 -2.2309 -1.2105
10027TIP3    H251497   6.242   6.485  15.493 -2.2248 -0.2874  1.8152
10028TIP3   OH251498   4.583   1.435  14.794 -0.1103  0.4014 -0.3681
10028TIP3    H151499   4.497   1.393  14.794  0.2415 -0.3417  0.0524
10028TIP3    H251500   4.595   1.464  14.884  0.1324  0.3884 -0.3957
10029TIP3   OH251501   2.342   3.955  15.541 -0.0379 -0.2645  0.4166
10029TIP3    H151502   2.272   3.936  15.603  0.4599 -1.5285  0.6123
10029TIP3    H251503   2.332   3.889  15.472  1.4569 -1.0179  0.8729
10030TIP3   OH251504   0.359   6.182  12.263 -0.3443 -0.1725  0.3967
10030TIP3    H151505   0.290   6.239  12.295  0.7132  0.5223  1.5021
10030TIP3    H251506   0.407   6.235  12.199 -0.3307 -0.3651  0.2460
10031TIP3   OH251507   0.938   3.969  14.927  0.2992 -0.1401  0.3578
10031TIP3    H151508   1.026   4.003  14.941 -0.1585  0.5723  1.7143
10031TIP3    H251509   0.908   3.943  15.014 -1.0235  0.1305  0.0117
10032TIP3   OH251510   3.979   2.980  14.163  0.4738 -0.4094 -0.2713
10032TIP3    H151511   3.960   2.963  14.070 -1.1441  2.3341 -0.5474
10032TIP3    H251512   3.895   2.967  14.207  0.9555 -0.4741  0.6389
10033TIP3   OH251513   0.845   3.724  14.063  0.1736  0.0886 -0.5870
10033TIP3    H151514   0.854   3.636  14.097 -0.6545  0.4588  0.6525
10033TIP3    H251515   0.824   3.778  14.139 -2.0145  0.9139 -1.6773
10034TIP3   OH251516   4.604   2.980   2.234 -0.0165 -0.4046  0.4785
10034TIP3    H151517   4.512   3.002   2.251  0.0941 -0.8911  1.8232
10034TIP3    H251518   4.608   2.886   2.246  0.4435 -0.5439 -0.7107
10035TIP3   OH251519   2.165   0.420  14.034 -0.2904  0.1879  0.2835
10035TIP3    H151520   2.239   0.470  13.999 -0.0371  0.2303  0.8584
10035TIP3    H251521   2.190   0.402  14.125  0.6522 -2.9664 -0.5054
10036TIP3   OH251522   5.953   1.792   3.665 -0.8729 -0.1969  0.2708
10036TIP3    H151523   5.976   1.841   3.743  0.8917 -0.9128  0.2517
10036TIP3    H251524   5.988   1.843   3.593 -1.0924 -0.3354  0.0628
10037TIP3   OH251525   2.963   2.936   3.930  0.6282 -0.0218  0.0934
10037TIP3    H151526   3.034   2.969   3.875  0.0538  0.4990 -0.3468
10037TIP3    H251527   2.894   2.914   3.868 -0.0407  0.6003  0.6051
10038TIP3   OH251528   5.478   2.180  10.667 -0.3889  0.2116 -0.7465
10038TIP3    H151529   5.571   2.202  10.658  0.2549 -1.1430  1.6840
10038TIP3    H251530   5.452   2.152  10.580  2.3859 -2.3459 -0.9297
10039TIP3   OH251531   0.429   1.040  10.754  0.3654 -0.3230 -0.0440
10039TIP3    H151532   0.390   1.117  10.796  1.0663 -0.8122  1.5745
10039TIP3    H251533   0.522   1.062  10.745  0.3791 -0.5726 -0.5699
10040TIP3   OH251534   3.232   5.301   4.183 -0.1268  0.5893 -0.8839
10040TIP3    H151535   3.171   5.273   4.114 -1.4399  0.1895  0.3752
10040TIP3    H251536   3.199   5.259   4.262  1.0603  1.4095  0.0844
10041TIP3   OH251537   5.251   4.779   5.842  0.4977  0.3621 -0.4143
10041TIP3    H151538   5.271   4.715   5.774  1.4183 -0.6956  0.8071
10041TIP3    H251539   5.239   4.862   5.795 -0.0137 -0.5491 -1.9550
10042TIP3   OH251540   1.946   0.421  11.132  0.0860  0.1192 -0.1665
10042TIP3    H151541   2.014   0.458  11.188  0.7002  0.7518 -1.2753
10042TIP3    H251542   1.949   0.327  11.149  1.2182  0.1446 -0.1385
10043TIP3   OH251543   4.664   1.902   1.971 -0.2194  0.2259  0.2019
10043TIP3    H151544   4.700   1.942   2.051 -0.0302 -0.2386  0.3563
10043TIP3    H251545   4.732   1.840   1.943 -0.2992  0.3661 -0.3056
10044TIP3   OH251546   2.495   5.002   1.622  0.1052 -0.1050  0.2905
10044TIP3    H151547   2.524   4.937   1.558 -0.4118  1.0612 -1.1774
10044TIP3    H251548   2.480   4.951   1.702 -1.9749 -2.1516 -1.2599
10045TIP3   OH251549   1.978   0.198  15.867 -0.0971 -0.7333 -0.7898
10045TIP3    H151550   2.024   0.114  15.856  0.7125 -0.3207 -0.6039
10045TIP3    H251551   1.950   0.221  15.778  2.6001  0.4235 -1.4266
10046TIP3   OH251552   4.662   3.804  13.954  1.0068 -0.6078 -0.1571
10046TIP3    H151553   4.621   3.815  14.040  0.6579 -0.3300 -0.3616
10046TIP3    H251554   4.596   3.761  13.901  1.4074 -1.2653 -0.1406
10047TIP3   OH251555   4.142   1.070   1.466  0.1524  0.0179  0.0789
10047TIP3    H151556   4.110   1.067   1.377  1.6988 -0.9414 -0.4892
10047TIP3    H251557   4.089   1.138   1.509 -0.1488  0.9877 -1.7412
10048TIP3   OH251558   5.544   2.902  13.459 -0.1158 -0.1836  0.3564
10048TIP3    H151559   5.611   2.965  13.486 -0.3550 -0.4207  1.5383
10048TIP3    H251560   5.535   2.843  13.534 -0.4595 -1.1580 -0.4298
10049TIP3   OH251561   4.282   4.480  13.116 -0.1668  0.7735 -0.1802
10049TIP3    H151562   4.339   4.406  13.139  0.0164  0.5276 -1.4028
10049TIP3    H251563   4.310   4.551  13.174  1.1867  0.5641 -0.5545
10050TIP3   OH251564   3.769   4.083  14.889  0.4395 -0.1842 -0.0246
10050TIP3    H151565   3.744   4.158  14.943 -0.0575 -1.7828  2.1439
10050TIP3    H251566   3.861   4.096  14.870  1.0711 -0.2385  2.5891
10051TIP3   OH251567   2.030   3.071  13.275 -0.7708  0.0011 -0.6621
10051TIP3    H151568   2.071   3.129  13.339  1.5928 -1.7863 -0.4077
10051TIP3    H251569   2.035   3.119  13.192 -0.4152  0.8409 -0.1647
10052TIP3   OH251570   4.701   1.091  10.291  0.4128 -0.4607  0.2213
10052TIP3    H151571   4.656   1.175  10.294 -0.7993 -1.0886  0.5058
10052TIP3    H251572   4.748   1.086  10.374  1.8062  0.6016 -0.4679
10053TIP3   OH251573   2.547   0.657  13.588  0.2025  0.1282 -0.0493
10053TIP3    H151574   2.525   0.565  13.602  1.9355 -0.1353  1.0832
10053TIP3    H251575   2.494   0.704  13.652 -1.3036  0.0378 -1.1683
10054TIP3   OH251576   2.348   1.535   2.943  0.0744  0.7253  0.2475
10054TIP3    H151577   2.339   1.567   3.033  0.9639  1.0310  0.2386
10054TIP3    H251578   2.413   1.464   2.949 -1.2118 -0.5105  0.1225
10055TIP3   OH251579   0.536   1.487  15.577  0.0373 -0.1673 -0.0949
10055TIP3    H151580   0.502   1.562  15.527 -0.0080  0.1844  0.4603
10055TIP3    H251581   0.608   1.523  15.629  0.5384 -0.6807 -0.4265
10056TIP3   OH251582   6.001   0.275  13.634  0.0365 -0.0773  0.0277
10056TIP3    H151583   5.913   0.239  13.624  0.9938 -2.3548 -0.9813
10056TIP3    H251584   5.992   0.368  13.613 -1.9056 -0.5071 -1.2955
10057TIP3   OH251585   1.967   6.409   1.554  0.1797  0.2179  0.5702
10057TIP3    H151586   2.057   6.379   1.565  0.7000  0.8703 -1.3793
10057TIP3    H251587   1.943   6.446   1.639  2.1913  1.1168  0.8030
10058TIP3   OH251588   5.681   6.745  16.595  0.3950  0.2807 -0.1498
10058TIP3    H151589   5.607   6.684  16.594  2.1506 -1.9955 -0.7621
10058TIP3    H251590   5.689   6.772  16.686 -0.0316 -0.9593  0.2724
10059TIP3   OH251591   3.765   3.850   3.007  0.5406 -0.1049  0.3816
10059TIP3    H151592   3.683   3.869   2.963  0.5077  1.0633  0.9181
10059TIP3    H251593   3.800   3.935   3.031  1.4686 -0.6314  0.9640
10060TIP3   OH251594   5.005   2.670   4.110 -0.0434 -0.5973 -0.1653
10060TIP3    H151595   4.967   2.588   4.143 -0.8892  0.6625  2.2019
10060TIP3    H251596   5.087   2.679   4.159 -0.7384  0.7224  0.8259
10061TIP3   OH251597   5.656   5.979   0.564 -0.0583 -0.4960  0.4418
10061TIP3    H151598   5.676   6.064   0.603 -0.7605 -0.2684  0.3403
10061TIP3    H251599   5.738   5.949   0.526 -0.0832  0.7933 -0.7242
10062TIP3   OH251600   1.985   3.764  12.138  0.3182 -0.1818 -0.0405
10062TIP3    H151601   2.055   3.706  12.166  0.0765 -0.7278 -0.5622
10062TIP3    H251602   1.909   3.736  12.188  0.2187 -0.2735 -0.2406
10063TIP3   OH251603   2.079   3.852  10.765  0.7898  0.1996  0.7400
10063TIP3    H151604   2.006   3.863  10.703 -0.6136 -1.8930  1.8630
10063TIP3    H251605   2.157   3.845  10.710  0.0813  1.8402 -0.5477
10064TIP3   OH251606   5.688   3.525  12.831  0.5549 -0.6679  0.2127
10064TIP3    H151607   5.634   3.464  12.881  0.3252  0.0378  0.8298
10064TIP3    H251608   5.746   3.565  12.895  0.8665 -0.3998 -0.2279
10065TIP3   OH251609   6.189   4.143  16.521  0.2172 -0.2704  0.1541
10065TIP3    H151610   6.135   4.086  16.575 -0.2365  0.3983  0.4291
10065TIP3    H251611   6.258   4.174  16.580  1.9510 -2.4376 -0.6210
10066TIP3   OH251612   4.178   2.177   4.924  0.3271  0.0982  0.5792
10066TIP3    H151613   4.120   2.152   4.997 -1.4688 -0.3757 -0.9113
10066TIP3    H251614   4.186   2.272   4.930  0.0806  0.0757  1.3082
10067TIP3   OH251615   1.957   6.493  13.381  0.3879 -0.2347  0.2627
10067TIP3    H151616   2.053   6.493  13.375  0.4412  0.2170  1.0358
10067TIP3    H251617   1.938   6.491  13.475 -0.3524  0.4212  0.1412
10068TIP3   OH251618   6.285   5.798  12.215 -0.6844  0.1331 -0.0112
10068TIP3    H151619   6.303   5.883  12.176  0.9543 -0.7103 -1.2612
10068TIP3    H251620   6.371   5.765  12.241 -1.3313 -0.9530  0.8609
10069TIP3   OH251621   1.198   1.797   5.180  0.3716  0.1986 -0.2286
10069TIP3    H151622   1.114   1.776   5.138  0.1736 -0.4158  0.4413
10069TIP3    H251623   1.228   1.714   5.217  1.8072  0.1857 -1.3468
10070TIP3   OH251624   6.628   5.093   1.120 -0.1424 -0.0116 -0.2276
10070TIP3    H151625   6.699   5.073   1.059 -0.9629  1.3346 -1.6688
10070TIP3    H251626   6.644   5.183   1.148 -0.5764 -0.1353  0.4513
10071TIP3   OH251627   4.371   2.025  16.533 -0.2190  0.3435  0.2673
10071TIP3    H151628   4.307   2.088  16.500  0.0192  0.5803  0.2521
10071TIP3    H251629   4.424   2.003  16.456 -0.9003 -0.6146  0.0470
10072TIP3   OH251630   0.067   2.571  11.407  0.0330 -0.6084 -0.6261
10072TIP3    H151631   0.077   2.481  11.438 -1.2362 -0.6458 -0.2761
10072TIP3    H251632  -0.026   2.588  11.413  0.2054  0.5917 -1.1158
10073TIP3   OH251633   6.540   0.858   2.978  0.4842 -0.3896  0.0717
10073TIP3    H151634   6.622   0.878   3.022 -0.1947 -1.6219  2.0271
10073TIP3    H251635   6.559   0.782   2.923  0.4390 -1.4149  1.4156
10074TIP3   OH251636   0.083   5.073  10.236  0.3824 -0.3576  0.4412
10074TIP3    H151637   0.137   5.013  10.185  0.3300 -1.3227  1.4818
10074TIP3    H251638   0.007   5.021  10.261 -0.6082  0.7220 -0.2489
10075TIP3   OH251639   6.266   5.665  13.168  0.0143  0.2169  0.0513
10075TIP3    H151640   6.199   5.601  13.193  1.1220 -1.1910 -0.4348
10075TIP3    H251641   6.275   5.721  13.245 -1.0102 -0.1752  0.4836
10076TIP3   OH251642   6.209   2.746   1.154  0.0310 -0.1766  0.7234
10076TIP3    H151643   6.134   2.698   1.119  0.4513 -0.9743  0.8742
10076TIP3    H251644   6.205   2.730   1.248 -1.1761  2.0650  1.1300
10077TIP3   OH251645   3.268   1.127  17.005 -0.3223  0.4837  0.4763
10077TIP3    H151646   3.329   1.055  17.021 -0.3415  0.0750 -1.1572
10077TIP3    H251647   3.187   1.101  17.050 -1.0668 -1.6284 -1.8979
10078TIP3   OH251648   4.582   4.535  15.173 -0.0050  0.3472 -0.4531
10078TIP3    H151649   4.536   4.616  15.154  1.1427  1.1542  0.1219
10078TIP3    H251650   4.595   4.536  15.267  0.2150 -0.4050 -0.4673
10079TIP3   OH251651   3.303   5.741   2.080 -0.0305 -0.2029 -0.1586
10079TIP3    H151652   3.250   5.818   2.100  0.3352  0.3718 -1.2927
10079TIP3    H251653   3.295   5.685   2.156 -2.8477 -0.4595 -0.5652
10080TIP3   OH251654   2.365   5.490  11.933 -0.4510 -0.1997  0.4935
10080TIP3    H151655   2.357   5.400  11.902 -1.5536 -0.1094  0.4668
10080TIP3    H251656   2.409   5.536  11.862 -0.5811 -0.5557  0.1812
10081TIP3   OH251657   0.956   1.652   1.055 -0.1545  0.0068  0.5547
10081TIP3    H151658   0.990   1.567   1.084 -2.1347 -0.8270  0.5480
10081TIP3    H251659   0.874   1.631   1.011  0.1717  1.7829 -1.0128
10082TIP3   OH251660   2.488   0.424  14.806 -0.1472  0.2170 -0.5495
10082TIP3    H151661   2.439   0.394  14.730 -0.0161  1.0355 -0.9766
10082TIP3    H251662   2.480   0.520  14.803  2.4261  0.4834 -1.3023
10083TIP3   OH251663   1.525   0.222  11.246  0.0850  0.8194 -0.0582
10083TIP3    H151664   1.507   0.242  11.338  1.7706 -0.4076  0.5889
10083TIP3    H251665   1.545   0.307  11.207 -0.5998  1.3493  0.6983
10084TIP3   OH251666   4.158   4.310   5.076  0.5242 -0.5729  0.2365
10084TIP3    H151667   4.231   4.321   5.137  0.0454  1.6545  0.4893
10084TIP3    H251668   4.199   4.285   4.994  1.6899  1.2013  0.2190
10085TIP3   OH251669   4.675   5.585  13.138 -0.0869 -0.3058 -0.2494
10085TIP3    H151670   4.621   5.580  13.059 -3.5565  2.5607  1.6418
10085TIP3    H251671   4.738   5.654  13.120 -0.9038  0.3834 -0.4987
10086TIP3   OH251672   4.433   2.772   5.640  0.3807 -0.3989  0.2148
10086TIP3    H151673   4.500   2.718   5.598  0.9166  0.9368 -0.7349
10086TIP3    H251674   4.400   2.718   5.711  1.4160 -1.6729 -0.2236
10087TIP3   OH251675   1.036   0.177   1.482  0.5813 -0.3774 -0.2869
10087TIP3    H151676   1.107   0.151   1.423  0.7150 -0.7784  0.0472
10087TIP3    H251677   1.071   0.253   1.529  0.4766 -0.0604 -0.7152
10088TIP3   OH251678   2.749   3.099  11.056  0.1128  0.1417 -0.0909
10088TIP3    H151679   2.812   3.135  10.993 -2.6916  2.3179 -1.8887
10088TIP3    H251680   2.737   3.008  11.029 -1.2733  1.0990 -3.1304
10089TIP3   OH251681   6.076   3.142   5.543  0.1588 -0.1971  0.1287
10089TIP3    H151682   6.114   3.226   5.518  2.1355 -1.2505 -0.5663
10089TIP3    H251683   6.017   3.163   5.616  1.3022  1.6608  0.5673
10090TIP3   OH251684   0.033   4.778   5.813  0.5234 -0.4744 -0.1138
10090TIP3    H151685  -0.053   4.818   5.826  0.7029  0.1046 -0.6605
10090TIP3    H251686   0.087   4.815   5.883  0.6334  0.0878 -0.4891
10091TIP3   OH251687   5.883   2.255   2.564 -0.2319  0.0869  0.0295
10091TIP3    H151688   5.844   2.233   2.648 -1.0867 -1.0559 -0.6430
10091TIP3    H251689   5.897   2.349   2.568 -0.9762  0.1660  1.1449
10092TIP3   OH251690   0.253   0.209  13.426 -0.6866  0.1216 -0.2962
10092TIP3    H151691   0.188   0.272  13.459 -0.5084  0.8122 -1.2164
10092TIP3    H251692   0.265   0.147  13.498  0.5321  2.1976  1.4051
10093TIP3   OH251693   2.242   5.597   4.208  0.3620  0.3224  0.2412
10093TIP3    H151694   2.287   5.587   4.292  0.6696  0.6236  0.1162
10093TIP3    H251695   2.286   5.672   4.166  0.4635 -0.0612 -0.3467
10094TIP3   OH251696   1.198   6.361   0.663  0.2110 -0.0118 -0.0993
10094TIP3    H151697   1.150   6.278   0.660 -0.7066  0.5055 -3.1556
10094TIP3    H251698   1.288   6.337   0.640  0.5175 -0.4292  1.4392
10095TIP3   OH251699   5.132   4.115  15.023  0.1752 -0.0533  0.8502
10095TIP3    H151700   5.068   4.172  15.066  0.1275  0.5184  0.0613
10095TIP3    H251701   5.113   4.125  14.930 -0.3115 -1.9604  0.7061
10096TIP3   OH251702   3.902   3.023   3.602  0.3535 -0.4924  0.9502
10096TIP3    H151703   3.826   2.964   3.602  1.4505 -1.9774  2.0725
10096TIP3    H251704   3.922   3.036   3.510 -1.6293  0.4669  0.5956
10097TIP3   OH251705   6.130   2.801   1.540 -0.3095  0.7410  0.0418
10097TIP3    H151706   6.049   2.776   1.494 -0.1761 -0.0866  0.2448
10097TIP3    H251707   6.156   2.722   1.587  0.2720  1.1966  0.4956
10098TIP3   OH251708   0.741   1.430  14.863 -0.4898 -0.1963 -0.5450
10098TIP3    H151709   0.737   1.341  14.898 -0.8288  0.8490  2.3456
10098TIP3    H251710   0.817   1.429  14.805  0.8344 -1.8619  1.0791
10099TIP3   OH251711   4.259   6.333  16.606 -0.1807 -0.5958 -0.1292
10099TIP3    H151712   4.220   6.257  16.650 -0.0014  0.1370  1.3510
10099TIP3    H251713   4.349   6.308  16.589  0.1284 -0.4163  1.1622
10100TIP3   OH251714   2.967   0.726  10.873 -0.1564  0.1873 -0.2606
10100TIP3    H151715   2.915   0.658  10.829  1.8430  0.3342 -3.1284
10100TIP3    H251716   2.964   0.800  10.813 -0.8805  2.1220  2.0144
10101TIP3   OH251717   0.154   4.709   3.011  0.3280 -0.1881  0.1635
10101TIP3    H151718   0.203   4.790   3.020  0.4856  0.2863 -3.4088
10101TIP3    H251719   0.065   4.731   3.039  0.8264  0.5799  1.2063
10102TIP3   OH251720   2.396   5.483   3.106  0.0463  0.3754  0.1843
10102TIP3    H151721   2.464   5.452   3.166 -0.2632  0.4008  0.5459
10102TIP3    H251722   2.347   5.404   3.083  0.0592  0.3937  0.0928
10103TIP3   OH251723   1.383   0.248   4.723 -0.1613  0.6020 -0.6640
10103TIP3    H151724   1.344   0.236   4.637 -0.9038  0.7192 -0.3575
10103TIP3    H251725   1.369   0.164   4.767 -0.6413  0.8510 -0.3333
10104TIP3   OH251726   3.030   2.167  16.446  0.0082 -0.3188 -0.6694
10104TIP3    H151727   2.967   2.095  16.452 -2.0766  1.4566  0.1998
10104TIP3    H251728   2.975   2.245  16.435  1.9069  1.5411  1.8051
10105TIP3   OH251729   2.438   1.694  13.003 -0.0390  0.2781  0.2991
10105TIP3    H151730   2.468   1.607  12.979 -1.4442 -0.2699  0.4476
10105TIP3    H251731   2.343   1.685  13.016 -0.4663  2.0928 -1.0071
10106TIP3   OH251732   2.624   0.432  13.762  0.2564  0.2594 -0.3804
10106TIP3    H151733   2.649   0.505  13.818  0.4116 -1.2624  1.6416
10106TIP3    H251734   2.684   0.436  13.688  1.9373  0.7302  0.9537
10107TIP3   OH251735   2.920   0.761  14.565 -0.8180 -0.2198 -0.3062
10107TIP3    H151736   2.978   0.829  14.598  0.3633 -0.8857 -0.9641
10107TIP3    H251737   2.910   0.700  14.639  0.5376 -0.8801 -0.6514
10108TIP3   OH251738   5.469   1.324   3.315 -0.3304 -0.3240  0.3700
10108TIP3    H151739   5.390   1.367   3.284 -0.7363 -1.4733 -0.2282
10108TIP3    H251740   5.512   1.390   3.369 -0.3414  1.2538 -1.4333
10109TIP3   OH251741   2.425   6.084   2.773  0.3109  0.4790  0.1445
10109TIP3    H151742   2.502   6.138   2.792 -0.2934  1.5597 -0.3266
10109TIP3    H251743   2.421   6.082   2.678 -1.6337  2.6224  0.0772
10110TIP3   OH251744   5.198   4.409  11.423  0.1115 -0.0627  0.1328
10110TIP3    H151745   5.161   4.479  11.369  1.4357  1.0875  0.6468
10110TIP3    H251746   5.139   4.335  11.411  0.1904  0.2378 -2.6302
10111TIP3   OH251747   5.703   0.541  16.267  0.0654  0.4887 -0.1515
10111TIP3    H151748   5.617   0.503  16.250  0.2985  0.2643 -0.8615
10111TIP3    H251749   5.763   0.488  16.215  0.5821  0.9061  0.0124
10112TIP3   OH251750   3.557   3.613  14.749 -0.2882 -0.1625  0.0387
10112TIP3    H151751   3.581   3.698  14.712 -1.5855  0.0407 -0.4034
10112TIP3    H251752   3.639   3.564  14.752  0.8616  1.7024  2.0176
10113TIP3   OH251753   2.795   3.329   3.491 -0.0921  0.0980 -0.2198
10113TIP3    H151754   2.718   3.274   3.480  0.5165 -0.7968 -0.0946
10113TIP3    H251755   2.843   3.321   3.409 -1.1997  2.4323 -1.2096
10114TIP3   OH251756   5.176   4.397  13.301 -0.1140  0.0747  0.6515
10114TIP3    H151757   5.170   4.493  13.306 -0.8015  0.2010 -1.5516
10114TIP3    H251758   5.164   4.368  13.391  2.6590  2.1217  1.8256
10115TIP3   OH251759   1.783   5.236  13.446  0.3445  0.3221  0.3226
10115TIP3    H151760   1.862   5.258  13.496  0.1775 -1.8723  1.6904
10115TIP3    H251761   1.723   5.200  13.511 -1.9699  2.1842 -0.6391
10116TIP3   OH251762   0.682   3.823   2.214  0.5974  0.0680 -0.1190
10116TIP3    H151763   0.681   3.918   2.226 -0.6013 -0.1640  2.4124
10116TIP3    H251764   0.759   3.807   2.160  1.5963  2.3929  0.4550
10117TIP3   OH251765   4.760   6.019   1.371 -0.4346 -0.1083 -0.3732
10117TIP3    H151766   4.743   6.082   1.441 -0.5077  0.1893 -0.6565
10117TIP3    H251767   4.689   5.955   1.378 -0.2531 -0.2702  0.0356
10118TIP3   OH251768   3.221   6.712   5.676  0.1741  0.5189  0.5675
10118TIP3    H151769   3.181   6.724   5.762 -0.2265  0.7656  0.3475
10118TIP3    H251770   3.211   6.797   5.633 -1.8442 -0.2790 -0.6543
10119TIP3   OH251771   5.983   0.826   6.009  0.5273 -0.8112  0.2660
10119TIP3    H151772   6.059   0.778   5.976  1.8718  1.1569  0.3685
10119TIP3    H251773   6.000   0.837   6.102  0.9300  0.9800  0.0196
10120TIP3   OH251774   1.261   4.894  13.434  0.2205 -0.8308  0.5417
10120TIP3    H151775   1.212   4.868  13.356 -0.0310  0.7002  0.1605
10120TIP3    H251776   1.308   4.815  13.460 -2.2487 -2.3243  0.8074
10121TIP3   OH251777   3.749   5.067   5.060  0.3159  0.4868 -0.1501
10121TIP3    H151778   3.768   5.038   4.971  2.8838 -0.5980  0.6552
10121TIP3    H251779   3.680   5.008   5.090  0.7926 -0.4387 -0.8109
10122TIP3   OH251780   6.424   4.947   0.316  0.4765  0.3546 -0.2578
10122TIP3    H151781   6.457   4.906   0.397  1.5979  1.8283  0.0721
10122TIP3    H251782   6.347   4.895   0.293  1.4372 -1.5263  0.4934
10123TIP3   OH251783   6.321   5.297   2.508  0.6467 -0.0236  0.4991
10123TIP3    H151784   6.313   5.290   2.603  0.8191 -0.5258  0.4814
10123TIP3    H251785   6.308   5.207   2.477 -2.3811  0.5602 -0.1917
10124TIP3   OH251786   1.400   4.170  16.537  0.2840 -0.0085  0.2733
10124TIP3    H151787   1.443   4.254  16.528 -0.1322  0.3357  1.3132
10124TIP3    H251788   1.316   4.180  16.492  1.2455 -0.7036 -1.8168
10125TIP3   OH251789   2.029   6.624   2.336  0.4141 -0.5544  0.0502
10125TIP3    H151790   2.097   6.578   2.384 -0.6026 -2.9512 -0.6535
10125TIP3    H251791   1.947   6.586   2.367 -0.4663  0.4682 -0.9114
10126TIP3   OH251792   3.773   2.013   0.175 -0.1671 -0.5496 -0.2025
10126TIP3    H151793   3.700   2.075   0.171  0.3829  0.1010 -0.3913
10126TIP3    H251794   3.840   2.052   0.119  0.5804 -0.7971  0.5111
10127TIP3   OH251795   4.011   5.521   2.522  0.4891  0.3113 -0.5340
10127TIP3    H151796   4.072   5.580   2.566 -0.4929  1.5303 -0.7584
10127TIP3    H251797   3.948   5.496   2.590 -0.2256  1.0953 -0.8933
10128TIP3   OH251798   0.243   1.537  13.195 -0.1133 -0.3029 -0.5148
10128TIP3    H151799   0.174   1.472  13.201 -1.1525  0.3832 -3.3818
10128TIP3    H251800   0.209   1.602  13.132  2.4033  1.0081 -0.6393
10129TIP3   OH251801   0.042   4.868  11.101 -0.0032  0.0005  0.2695
10129TIP3    H151802  -0.044   4.900  11.126 -0.4496 -0.4037 -0.7192
10129TIP3    H251803   0.098   4.892  11.175 -1.0170 -0.0184  1.0714
10130TIP3   OH251804   0.551   5.680  14.457  0.0841  0.4024 -0.3208
10130TIP3    H151805   0.557   5.679  14.553 -4.1251  2.2493  0.1491
10130TIP3    H251806   0.620   5.740  14.430  1.1033  0.1630  1.5361
10131TIP3   OH251807   6.332   1.797  16.011 -0.0343 -0.1649 -0.0491
10131TIP3    H151808   6.381   1.730  16.058 -1.7396 -0.3757  1.5411
10131TIP3    H251809   6.394   1.870  16.001  1.0357 -0.9657  0.5676
10132TIP3   OH251810   0.261   6.074  16.481  0.0338  0.0418 -0.1073
10132TIP3    H151811   0.339   6.027  16.511  0.5079  0.7696 -0.1913
10132TIP3    H251812   0.224   6.016  16.413 -0.7319 -1.3374  1.4131
10133TIP3   OH251813   3.350   5.707  15.244 -0.0421 -0.0609 -0.1546
10133TIP3    H151814   3.330   5.796  15.217  2.1661  1.0929  1.7143
10133TIP3    H251815   3.264   5.666  15.256 -1.1304  2.0373 -0.3066
10134TIP3   OH251816   3.082   5.367  10.920  0.1969  0.2457  0.7891
10134TIP3    H151817   3.065   5.407  11.005  0.1197  0.5067  0.6524
10134TIP3    H251818   3.008   5.308  10.906  0.0502  0.4340  0.7646
10135TIP3   OH251819   0.461   2.523  13.016 -0.4287 -0.9011  0.3569
10135TIP3    H151820   0.459   2.618  13.013 -0.7720 -0.9164 -1.9822
10135TIP3    H251821   0.369   2.497  13.025 -0.6056 -0.9682 -1.2342
10136TIP3   OH251822   1.262   2.898   6.312 -0.1657 -0.4488 -0.5021
10136TIP3    H151823   1.279   2.904   6.406  3.2372 -1.0945 -0.9499
10136TIP3    H251824   1.224   2.811   6.300 -1.5920  0.0305  0.3284
10137TIP3   OH251825   3.054   5.081  13.757 -0.0621  0.4226 -0.3927
10137TIP3    H151826   3.149   5.081  13.768 -0.0716  0.7867 -0.2947
10137TIP3    H251827   3.036   5.004  13.703  0.0428 -1.0574  1.5813
10138TIP3   OH251828   6.274   2.156  14.499 -0.1086  0.0366 -0.1703
10138TIP3    H151829   6.231   2.158  14.584  0.6863 -0.4082  0.2429
10138TIP3    H251830   6.205   2.124  14.439 -0.8987  1.0914  0.1438
10139TIP3   OH251831   1.717   6.294  12.324 -0.1176  0.5727 -0.6265
10139TIP3    H151832   1.726   6.253  12.410  1.8809  0.3455 -0.8978
10139TIP3    H251833   1.736   6.224  12.262  0.8337  1.2774 -1.1618
10140TIP3   OH251834   1.296   5.130  11.075  0.1904 -0.5856 -0.9033
10140TIP3    H151835   1.211   5.162  11.046  0.0910 -0.5748 -0.6084
10140TIP3    H251836   1.349   5.124  10.995  0.8529  2.1880 -0.7772
10141TIP3   OH251837   2.876   4.454   4.728 -0.1311 -0.2461  0.1328
10141TIP3    H151838   2.890   4.359   4.732 -0.9660 -0.4690 -1.4280
10141TIP3    H251839   2.927   4.482   4.652  0.1409  0.5783  0.6098
10142TIP3   OH251840   3.324   6.282   6.648 -0.0181  0.2288  0.2778
10142TIP3    H151841   3.378   6.214   6.687  1.7454  0.7893 -1.0428
10142TIP3    H251842   3.240   6.240   6.631 -0.3528 -0.4616  3.0972
10143TIP3   OH251843   5.022   4.170  16.219 -0.3327  0.1184  0.4561
10143TIP3    H151844   4.993   4.260  16.204 -0.0553  0.2362  0.6162
10143TIP3    H251845   4.984   4.146  16.304  1.0536  0.7135  1.2771
10144TIP3   OH251846   2.262   4.201   1.792 -0.2285  0.0702 -0.1381
10144TIP3    H151847   2.213   4.251   1.727  0.7227 -0.0451 -0.9681
10144TIP3    H251848   2.212   4.211   1.873 -2.1343 -0.8464 -1.1517
10145TIP3   OH251849   2.358   5.567  11.677  0.0803  0.1471  0.4589
10145TIP3    H151850   2.380   5.507  11.606  0.8855  0.4717  0.4207
10145TIP3    H251851   2.263   5.560  11.687  0.0274 -0.2652 -0.3198
10146TIP3   OH251852   4.114   4.854  12.208 -0.0678  0.2714 -0.1445
10146TIP3    H151853   4.194   4.853  12.261  0.5857  0.8347 -1.0828
10146TIP3    H251854   4.105   4.944  12.179 -1.9213  0.5711  1.1766
10147TIP3   OH251855   0.147   5.710   1.397 -0.8349  0.1151  0.5007
10147TIP3    H151856   0.198   5.634   1.370 -1.2708 -0.0277  0.0539
10147TIP3    H251857   0.124   5.753   1.315 -2.1084 -0.2771  0.6235
10148TIP3   OH251858   1.324   6.761  13.129  0.2565  0.0955  0.3215
10148TIP3    H151859   1.253   6.756  13.192  0.1765 -0.9876  0.1643
10148TIP3    H251860   1.281   6.768  13.044  0.3316 -0.5624  0.2261
10149TIP3   OH251861   3.833   4.882  16.367  0.0139 -0.4501  0.1685
10149TIP3    H151862   3.836   4.951  16.300 -1.4441  0.3159  0.8692
10149TIP3    H251863   3.925   4.867  16.389  0.3914  0.9177 -0.3676
10150TIP3   OH251864   6.780   2.843  10.438  0.5039  0.1070  0.7464
10150TIP3    H151865   6.782   2.922  10.492  0.1386  1.9995 -1.8145
10150TIP3    H251866   6.839   2.863  10.365 -0.8990 -1.2892 -0.8401
10151TIP3   OH251867   6.422   4.628   5.510 -0.0551 -0.0298  0.2369
10151TIP3    H151868   6.425   4.713   5.554  1.2207  0.7013 -1.1782
10151TIP3    H251869   6.401   4.649   5.419 -0.2766 -1.2940 -0.0223
10152TIP3   OH251870   6.313   5.987  16.053 -0.1867 -0.3472  0.3072
10152TIP3    H151871   6.217   5.984  16.047 -0.3498  0.8446  1.7130
10152TIP3    H251872   6.338   5.898  16.077 -0.7809 -1.0402 -1.4550
10153TIP3   OH251873   3.175   2.681   1.573 -0.1465 -0.0928  0.3993
10153TIP3    H151874   3.103   2.705   1.515  0.8202 -0.1829 -0.8900
10153TIP3    H251875   3.142   2.699   1.661 -1.9807 -0.7700 -0.0995
10154TIP3   OH251876   0.163   5.953   4.036  0.0018 -0.0097  0.3501
10154TIP3    H151877   0.093   6.012   4.006 -0.9024 -0.7996  0.8454
10154TIP3    H251878   0.117   5.877   4.072  1.1422 -1.0722 -0.3475
10155TIP3   OH251879   0.260   0.117  10.584 -0.9219 -0.8871  0.2813
10155TIP3    H151880   0.263   0.154  10.672  0.0564  0.1955 -0.1848
10155TIP3    H251881   0.351   0.119  10.553 -1.2047 -1.5129 -0.6572
10156TIP3   OH251882   1.284   2.428   3.042 -0.2006 -0.2960 -0.2057
10156TIP3    H151883   1.367   2.408   3.084 -0.3575  0.8636  0.7161
10156TIP3    H251884   1.255   2.345   3.004  0.4834 -1.1336  1.0417
10157TIP3   OH251885   2.151   0.306  12.945  0.0951 -0.2358  0.0004
10157TIP3    H151886   2.174   0.377  12.885  0.8647 -1.3362 -1.0375
10157TIP3    H251887   2.068   0.273  12.911 -1.7809  1.9012  2.1070
10158TIP3   OH251888   1.653   6.801   1.092 -0.7606 -0.5489  0.1040
10158TIP3    H151889   1.691   6.846   1.168 -2.4534  1.3809 -0.0893
10158TIP3    H251890   1.724   6.747   1.058  1.0568  1.0740  1.1059
10159TIP3   OH251891   4.113   3.396  12.712 -0.2868 -0.1971 -0.0086
10159TIP3    H151892   4.131   3.466  12.649  0.4587  0.4180  0.8619
10159TIP3    H251893   4.190   3.339  12.708  0.5348  0.7353  1.4760
10160TIP3   OH251894   5.734   4.508   0.478  0.2071  0.6959 -0.6776
10160TIP3    H151895   5.721   4.602   0.465 -1.2633  0.7555  0.8087
10160TIP3    H251896   5.681   4.466   0.411  0.8539  0.8985 -1.3338
10161TIP3   OH251897   4.966   5.790  13.444 -0.1064 -0.6315 -0.0174
10161TIP3    H151898   4.932   5.713  13.489  1.4870 -1.7029 -0.5746
10161TIP3    H251899   5.036   5.822  13.501 -0.1934 -0.1025 -0.2030
10162TIP3   OH251900   1.532   0.196  14.900  0.3769  0.1998 -0.2552
10162TIP3    H151901   1.586   0.273  14.886 -0.3072  0.8919  0.7987
10162TIP3    H251902   1.454   0.211  14.847  1.3362 -0.9896 -2.1121
10163TIP3   OH251903   6.173   3.929   5.656 -0.1692 -0.2542  0.4933
10163TIP3    H151904   6.160   3.963   5.567  0.1125 -2.4149 -0.4529
10163TIP3    H251905   6.266   3.944   5.674 -0.2111  0.1339  0.3990
10164TIP3   OH251906   3.394   0.589   5.735  0.5754  0.1379 -0.8443
10164TIP3    H151907   3.435   0.591   5.648  2.4254 -2.1922 -0.1561
10164TIP3    H251908   3.317   0.533   5.723  0.6679  0.0521 -1.0584
10165TIP3   OH251909   4.223   3.119   5.556  0.8159  0.5051 -0.3984
10165TIP3    H151910   4.266   3.034   5.546 -0.9686 -0.3724 -1.2021
10165TIP3    H251911   4.279   3.179   5.507  3.6086  0.4444  2.4339
10166TIP3   OH251912   2.303   6.032   2.057  0.4588  0.2392 -0.1150
10166TIP3    H151913   2.242   6.106   2.047 -2.8793 -1.9357  2.0576
10166TIP3    H251914   2.254   5.957   2.025  2.8585 -1.4134 -0.1300
10167TIP3   OH251915   3.429   5.449   3.720  0.4672  0.1088 -0.1770
10167TIP3    H151916   3.406   5.487   3.635  0.1151  1.9216  0.6692
10167TIP3    H251917   3.352   5.465   3.775  1.8658  2.0047  1.3820
10168TIP3   OH251918   4.723   3.256  16.239  0.0309 -0.1452 -0.5910
10168TIP3    H151919   4.815   3.283  16.248 -0.2546  0.6948  0.0178
10168TIP3    H251920   4.679   3.299  16.312 -0.9113 -0.2564 -1.0797
10169TIP3   OH251921   6.458   3.159   3.715  0.1805  0.4721 -0.2657
10169TIP3    H151922   6.419   3.209   3.788 -1.8111  0.9399 -1.5685
10169TIP3    H251923   6.519   3.099   3.757 -0.5922  1.0204  1.7596
10170TIP3   OH251924   0.935   2.074  15.732  0.2771  0.4522  0.2279
10170TIP3    H151925   1.029   2.072  15.751  0.4239 -0.8982 -0.4814
10170TIP3    H251926   0.930   2.110  15.644  0.4255 -2.0030 -0.8928
10171TIP3   OH251927   6.373   4.772   3.698  0.1176  0.5100  0.5866
10171TIP3    H151928   6.446   4.797   3.755  0.5325  0.3012  0.1547
10171TIP3    H251929   6.352   4.682   3.724  0.5154  0.3002  0.2104
10172TIP3   OH251930   4.685   4.052   4.324  0.2874 -0.0866 -0.2838
10172TIP3    H151931   4.686   3.972   4.271 -1.0749  0.4951 -1.2648
10172TIP3    H251932   4.663   4.021   4.412 -1.4485 -0.7232 -0.8908
10173TIP3   OH251933   6.268   0.428   3.337 -0.0293  0.4643 -0.3367
10173TIP3    H151934   6.306   0.340   3.334  0.8740  0.6495  2.3717
10173TIP3    H251935   6.257   0.446   3.431 -3.0732  2.0664 -0.8470
10174TIP3   OH251936   6.159   3.842  16.163  0.0513 -0.0746  1.1823
10174TIP3    H151937   6.241   3.843  16.112 -0.0907  0.9550  0.9526
10174TIP3    H251938   6.091   3.825  16.097 -0.1165  1.1059  1.0244
10175TIP3   OH251939   3.440   4.995  11.308 -0.1540  0.0289 -0.5146
10175TIP3    H151940   3.460   4.984  11.215  0.0434  0.9684 -0.5946
10175TIP3    H251941   3.519   5.033  11.345 -0.0587 -0.7718  0.1448
10176TIP3   OH251942   3.412   2.202  13.989 -0.1680 -0.6400  0.2620
10176TIP3    H151943   3.385   2.111  13.979  2.2592 -1.6599  2.0402
10176TIP3    H251944   3.462   2.222  13.911  0.8781 -1.4830  0.7034
10177TIP3   OH251945   3.956   2.950   1.709  0.0372  0.3252 -0.2220
10177TIP3    H151946   3.906   2.951   1.628 -0.6023 -1.4510  0.1004
10177TIP3    H251947   3.921   3.024   1.760 -1.3825 -0.0965 -0.5350
10178TIP3   OH251948   2.722   6.360  12.185  0.1365  0.1805 -0.3218
10178TIP3    H151949   2.674   6.286  12.148 -0.9921 -0.6622  2.5068
10178TIP3    H251950   2.814   6.332  12.184 -0.1238 -0.6832 -0.5623
10179TIP3   OH251951   1.705   2.732  13.737 -0.2862  0.2445  0.1705
10179TIP3    H151952   1.658   2.670  13.682 -1.2366  3.1855 -2.6313
10179TIP3    H251953   1.790   2.691  13.752 -0.0935 -0.9194 -3.2941
10180TIP3   OH251954   6.310   2.285   5.841  0.2865  0.1364  0.2897
10180TIP3    H151955   6.272   2.314   5.759 -0.5310  0.0059  0.6135
10180TIP3    H251956   6.264   2.335   5.909 -0.1953 -0.9132  0.7655
10181TIP3   OH251957   1.817   0.108  12.126 -0.4606  0.3142  0.5510
10181TIP3    H151958   1.897   0.102  12.074 -1.3399  1.7092 -1.0407
10181TIP3    H251959   1.794   0.201  12.124 -1.6919  0.0620  1.6583
10182TIP3   OH251960   6.790   6.420   4.529 -0.5592 -0.3196  0.0868
10182TIP3    H151961   6.861   6.472   4.489 -1.6964  0.1905 -1.3736
10182TIP3    H251962   6.835   6.352   4.579  0.9630  0.7297  0.2109
10183TIP3   OH251963   6.411   6.162  11.874 -0.0322 -0.7965 -0.3118
10183TIP3    H151964   6.493   6.211  11.876 -0.3317 -0.3037  1.5369
10183TIP3    H251965   6.345   6.227  11.848 -0.1249 -0.6756  0.2022
10184TIP3   OH251966   3.024   0.338   2.974  0.4132 -0.0824  0.3026
10184TIP3    H151967   2.960   0.375   3.036  0.3543 -2.2951  1.6760
10184TIP3    H251968   2.971   0.298   2.905  0.3502 -0.6516  0.6766
10185TIP3   OH251969   3.354   4.490  11.043 -0.3017  0.2801  0.2298
10185TIP3    H151970   3.393   4.403  11.037  0.5364  0.6291  0.5509
10185TIP3    H251971   3.402   4.543  10.980 -3.5001 -0.4121 -3.0871
10186TIP3   OH251972   6.171   3.197  13.119  0.5006  0.0911  0.8329
10186TIP3    H151973   6.152   3.111  13.080  1.5702  0.1655  0.1138
10186TIP3    H251974   6.092   3.219  13.168 -0.5746 -0.3994 -0.6122
10187TIP3   OH251975   0.698   4.751   3.616  0.3875  0.5131 -0.1419
10187TIP3    H151976   0.792   4.749   3.601  0.6831  0.6351  1.5101
10187TIP3    H251977   0.684   4.689   3.687 -0.9491 -0.3369 -1.0783
10188TIP3   OH251978   3.186   1.014   4.784 -0.4422 -0.3017 -0.6796
10188TIP3    H151979   3.114   1.067   4.749 -0.8922 -0.6131 -0.2306
10188TIP3    H251980   3.151   0.975   4.864  0.8988  1.1795  0.6927
10189TIP3   OH251981   4.985   6.560   3.916 -0.2662 -0.2965  0.0714
10189TIP3    H151982   5.080   6.567   3.916 -0.1706 -1.2028 -1.8945
10189TIP3    H251983   4.967   6.467   3.911 -1.2974 -0.1746  1.0253
10190TIP3   OH251984   5.549   2.610  14.967  0.1856  0.1247  0.3515
10190TIP3    H151985   5.534   2.633  14.876 -0.4961 -0.7159  0.2487
10190TIP3    H251986   5.517   2.686  15.016 -1.7742 -0.4270  0.0005
10191TIP3   OH251987   0.294   2.844   0.313 -0.1649  0.1442  0.2210
10191TIP3    H151988   0.262   2.932   0.333  0.2726  0.1251  1.0789
10191TIP3    H251989   0.314   2.806   0.399  0.6837 -0.3992 -0.1998
10192TIP3   OH251990   4.626   2.095  12.271  0.2843 -0.2687  0.1928
10192TIP3    H151991   4.573   2.165  12.309 -1.7382 -0.9051 -1.3078
10192TIP3    H251992   4.656   2.129  12.187 -2.0050 -1.6317 -1.2815
10193TIP3   OH251993   3.905   6.549  12.893  0.1274  0.2022 -0.1622
10193TIP3    H151994   3.840   6.504  12.948  0.5758  0.7129  0.8085
10193TIP3    H251995   3.989   6.512  12.919  0.5665  1.8893  1.0150
10194TIP3   OH251996   3.564   1.021  12.059  0.0472 -0.2522  0.1255
10194TIP3    H151997   3.473   1.009  12.087  0.0882  0.0067  0.3735
10194TIP3    H251998   3.579   1.115  12.064 -0.1981 -0.1041 -1.5904
10195TIP3   OH251999   4.065   5.615   1.259  0.4243 -0.2870  0.0965
10195TIP3    H152000   4.128   5.662   1.313  0.2819 -1.4538  1.3283
10195TIP3    H252001   4.053   5.531   1.303 -1.7367 -0.2455 -0.2753
10196TIP3   OH252002   2.717   5.267   6.092 -0.1914 -0.6356  0.0743
10196TIP3    H152003   2.727   5.341   6.153  0.3591 -0.0783 -0.6795
10196TIP3    H252004   2.804   5.229   6.086 -0.2186 -0.6227 -0.4407
10197TIP3   OH252005   4.266   3.849   1.941  0.3439  0.5977  0.6990
10197TIP3    H152006   4.207   3.820   2.010 -0.4219  0.1754 -0.1089
10197TIP3    H252007   4.269   3.775   1.879  0.2723  1.3212 -0.1830
10198TIP3   OH252008   2.766   5.834  15.429  0.2569 -0.4683 -0.1035
10198TIP3    H152009   2.817   5.826  15.509 -1.4294 -2.0970  0.9053
10198TIP3    H252010   2.714   5.914  15.441  0.4827 -0.3588  0.1343
10199TIP3   OH252011   0.392   6.217  14.345 -0.0657 -0.0144  0.6878
10199TIP3    H152012   0.445   6.213  14.425 -0.1151  0.1062  0.7267
10199TIP3    H252013   0.304   6.195  14.373 -0.2579  0.8714  0.8293
10200TIP3   OH252014   0.491   6.222   0.496 -0.0025  0.0275 -0.1715
10200TIP3    H152015   0.405   6.191   0.468 -0.0982  0.9377 -0.9604
10200TIP3    H252016   0.485   6.317   0.490  0.3822  0.2133  1.8614
10201TIP3   OH252017   2.690   6.140  13.670  0.3118 -0.0803 -0.0725
10201TIP3    H152018   2.603   6.174  13.691  0.4258 -0.5473  1.3172
10201TIP3    H252019   2.697   6.146  13.575 -0.0867  2.7311  0.0028
10202TIP3   OH252020   5.982   5.339  15.776 -0.3323  0.1724  0.3700
10202TIP3    H152021   6.040   5.265  15.790 -0.6557 -0.4485 -1.3682
10202TIP3    H252022   5.893   5.303  15.785 -0.4995  0.8004  1.5144
10203TIP3   OH252023   2.330   2.645   0.858  0.3719 -0.1569 -0.0772
10203TIP3    H152024   2.332   2.634   0.763  1.0253  1.2916 -0.2563
10203TIP3    H252025   2.418   2.624   0.887  1.0990  2.3597 -0.2108
10204TIP3   OH252026   5.685   1.663  11.743  0.1634 -0.5883 -0.1640
10204TIP3    H152027   5.667   1.729  11.810 -0.2382  0.3367 -1.1525
10204TIP3    H252028   5.709   1.585  11.793 -0.6101 -0.0780  1.0691
10205TIP3   OH252029   3.914   3.695  13.117  0.2345  0.4552 -0.9371
10205TIP3    H152030   3.921   3.638  13.041 -0.5584  0.7939 -1.2755
10205TIP3    H252031   3.833   3.745  13.103 -0.1111  0.2937  0.2799
10206TIP3   OH252032   3.408   3.210  15.349  0.4982 -0.4514  0.1373
10206TIP3    H152033   3.378   3.255  15.271  2.0609 -0.4580 -0.4940
10206TIP3    H252034   3.494   3.176  15.326  1.0132 -0.4222  1.8659
10207TIP3   OH252035   5.085   0.606   1.696 -0.7911  0.0010  0.4901
10207TIP3    H152036   5.048   0.520   1.679  0.9610 -1.1622  2.2076
10207TIP3    H252037   5.049   0.632   1.781  0.9801 -0.4479  1.4316
10208TIP3   OH252038   2.747   1.323  10.613  0.1129 -0.5411  0.3741
10208TIP3    H152039   2.811   1.380  10.568 -0.0722 -1.8130 -1.6474
10208TIP3    H252040   2.681   1.305  10.546 -0.9968 -1.3561  1.6535
10209TIP3   OH252041   1.225   2.490  16.493  0.1689  0.4414 -0.1905
10209TIP3    H152042   1.289   2.451  16.434 -0.5514 -0.2613 -0.5191
10209TIP3    H252043   1.276   2.549  16.548  1.1223 -0.2192 -0.3518
10210TIP3   OH252044   2.842   1.825  13.702  0.0505 -0.0180 -0.5648
10210TIP3    H152045   2.862   1.811  13.610 -0.8791  0.6821 -0.8869
10210TIP3    H252046   2.765   1.882  13.702 -0.4582 -0.6521  0.6294
10211TIP3   OH252047   3.007   2.289  12.654 -0.1154  1.0587  0.1839
10211TIP3    H152048   3.087   2.245  12.625  0.4800  1.0656  1.6984
10211TIP3    H252049   2.939   2.257  12.595  0.9550  0.8943 -1.0093
10212TIP3   OH252050   1.675   1.854   3.609  0.0872 -0.1532  0.2989
10212TIP3    H152051   1.677   1.811   3.694 -0.6849  1.0816  0.9596
10212TIP3    H252052   1.616   1.928   3.620  0.2419  0.2358 -1.2200
10213TIP3   OH252053   3.954   6.707  11.834 -0.3821  0.0144  0.1495
10213TIP3    H152054   3.996   6.711  11.919 -0.2078 -2.4103  0.2445
10213TIP3    H252055   4.025   6.686  11.773 -0.5014  1.7363 -0.6385
10214TIP3   OH252056   3.356   0.604   6.229  0.2003 -0.2810  0.0888
10214TIP3    H152057   3.350   0.509   6.216 -0.6920 -0.2632  0.3540
10214TIP3    H252058   3.449   0.624   6.213  0.7282 -1.4093  1.5001
10215TIP3   OH252059   6.383   3.196  16.998 -0.1150 -0.3427  0.1239
10215TIP3    H152060   6.410   3.239  17.079  0.7032  1.0494 -0.8573
10215TIP3    H252061   6.369   3.267  16.936 -0.8434 -1.3757 -0.9414
10216TIP3   OH252062   3.154   4.543  11.956  0.5375 -0.1743 -0.1951
10216TIP3    H152063   3.192   4.610  11.900  2.2184  0.6823  1.8374
10216TIP3    H252064   3.223   4.522  12.019 -0.5307 -2.6151  0.2875
10217TIP3   OH252065   0.736   4.403   0.241 -0.0407  0.3887 -0.1931
10217TIP3    H152066   0.790   4.409   0.320 -2.1374  1.5299  1.2435
10217TIP3    H252067   0.760   4.319   0.203  1.6957  0.2038  1.1445
10218TIP3   OH252068   3.993   2.361  13.345  0.2796 -0.3726  0.3644
10218TIP3    H152069   4.057   2.397  13.284  0.5519 -1.2151  0.1436
10218TIP3    H252070   3.940   2.437  13.372  2.1453  0.5843  1.5478
10219TIP3   OH252071   0.269   1.940   2.242 -0.6201  0.3409  0.0294
10219TIP3    H152072   0.234   1.886   2.313 -1.0906  1.0996  0.3961
10219TIP3    H252073   0.332   1.884   2.197  0.8063  0.2823  1.9402
10220TIP3   OH252074   5.918   5.977  13.878 -0.2040  0.2384  0.7362
10220TIP3    H152075   5.948   5.910  13.940 -1.6723 -0.1032  1.1104
10220TIP3    H252076   5.823   5.980  13.890 -1.1143 -2.1266 -3.6628
10221TIP3   OH252077   1.149   3.021   1.448  0.0939  0.1416 -0.1250
10221TIP3    H152078   1.071   2.974   1.420 -0.1149 -0.3386  1.2006
10221TIP3    H252079   1.138   3.033   1.542  1.0586  1.1373 -0.1078
10222TIP3   OH252080   4.198   5.713   2.607 -0.6957 -0.7445  0.7939
10222TIP3    H152081   4.240   5.716   2.522  1.2092  1.0427  1.7028
10222TIP3    H252082   4.267   5.737   2.669 -2.4620 -0.1303  2.6495
10223TIP3   OH252083   0.622   4.254  16.433 -0.0793 -0.6688  0.2267
10223TIP3    H152084   0.587   4.251  16.344  0.7729  0.7113 -0.1704
10223TIP3    H252085   0.709   4.214  16.426  0.1877 -0.1057  0.3464
10224TIP3   OH252086   0.898   3.471   1.222  0.3298 -0.0386 -0.4337
10224TIP3    H152087   0.871   3.561   1.201  2.4145  0.4427 -1.3242
10224TIP3    H252088   0.993   3.473   1.217  0.5303 -1.9282  1.2246
10225TIP3   OH252089   3.272   4.359  12.513 -0.2635 -0.3018 -0.2319
10225TIP3    H152090   3.275   4.379  12.420  0.1561  0.5796 -0.0409
10225TIP3    H252091   3.351   4.308  12.530 -0.0137  0.0727 -0.2493
10226TIP3   OH252092   1.978   2.505  15.889  0.1931 -0.4861 -0.6405
10226TIP3    H152093   1.929   2.580  15.923  0.0929 -1.9489  2.8439
10226TIP3    H252094   2.070   2.530  15.899  0.1594 -0.7465  0.4277
10227TIP3   OH252095   1.104   0.399   3.704  0.4063  0.0120  0.2098
10227TIP3    H152096   1.197   0.416   3.721  0.5765 -0.1977 -0.4727
10227TIP3    H252097   1.068   0.376   3.789  0.9454  0.2473  0.5102
10228TIP3   OH252098   1.801   4.127  16.800 -0.0415 -0.3455 -0.1755
10228TIP3    H152099   1.869   4.065  16.828  2.9418  3.1409  1.2749
10228TIP3    H252100   1.733   4.119  16.866  2.3820  0.8476  2.7375
10229TIP3   OH252101   5.214   3.310  10.798  0.4272  0.2008  0.6061
10229TIP3    H152102   5.183   3.230  10.756  1.5927 -0.2020  0.4945
10229TIP3    H252103   5.185   3.301  10.889  0.1022 -0.0948  0.4775
10230TIP3   OH252104   5.897   5.433   3.393  0.3792  0.5086 -0.3717
10230TIP3    H152105   5.873   5.358   3.339  0.1322  1.3662 -1.4880
10230TIP3    H252106   5.929   5.499   3.331 -1.7048  2.2414  0.2719
10231TIP3   OH252107   0.168   3.195  12.236 -0.8250  0.2917 -0.8714
10231TIP3    H152108   0.174   3.210  12.331  1.3122 -0.1946 -0.8934
10231TIP3    H252109   0.075   3.177  12.221 -1.4615  1.7257  0.9098
10232TIP3   OH252110   5.520   6.154   4.677 -0.2707  0.0695 -0.6537
10232TIP3    H152111   5.524   6.220   4.747 -0.3113  0.6740 -1.2091
10232TIP3    H252112   5.457   6.089   4.709 -0.3237  0.3623 -0.1504
10233TIP3   OH252113   3.238   1.672   2.303  0.0121  0.2391 -0.6398
10233TIP3    H152114   3.191   1.748   2.267  1.5894  0.8258 -1.5414
10233TIP3    H252115   3.195   1.596   2.262 -2.1443  0.5182  0.9105
10234TIP3   OH252116   0.993   4.600  14.156 -0.6419  0.0266 -0.2659
10234TIP3    H152117   1.085   4.619  14.177 -0.5482 -0.1515 -0.5133
10234TIP3    H252118   0.974   4.518  14.201 -0.4021 -0.4245 -0.9692
10235TIP3   OH252119   3.039   1.216   2.233 -0.4943  0.5785 -0.1832
10235TIP3    H152120   3.094   1.260   2.298  0.8222  0.3902 -1.1231
10235TIP3    H252121   3.048   1.269   2.154  0.2802 -0.7655 -1.0330
10236TIP3   OH252122   1.875   3.879  10.580  0.6404  0.2554  0.1774
10236TIP3    H152123   1.859   3.912  10.491  0.7825 -1.0670 -0.3650
10236TIP3    H252124   1.796   3.904  10.628  1.4159  2.8067  0.2781
10237TIP3   OH252125   1.571   1.443  14.877 -0.2610  0.0435  0.0265
10237TIP3    H152126   1.483   1.479  14.877  0.0881  0.9869 -1.2528
10237TIP3    H252127   1.568   1.370  14.938 -1.7375  0.5021  0.5289
10238TIP3   OH252128   0.230   0.744   0.922  0.1790 -0.0935 -0.5721
10238TIP3    H152129   0.224   0.686   0.997 -0.1693  0.8330  0.1362
10238TIP3    H252130   0.148   0.730   0.874  0.0456 -0.0949 -0.3417
10239TIP3   OH252131   6.341   6.420  16.587  0.5787 -0.0229 -0.1795
10239TIP3    H152132   6.365   6.334  16.552 -0.1684 -0.1205 -0.4658
10239TIP3    H252133   6.323   6.473  16.509  0.0721  0.1054  0.0240
10240TIP3   OH252134   1.621   1.434  16.947 -0.0132  0.0203 -0.2961
10240TIP3    H152135   1.671   1.396  16.875  0.6825 -1.0855  0.7158
10240TIP3    H252136   1.595   1.358  17.000 -0.2322  0.8247  0.7800
10241TIP3   OH252137   1.648   1.978  12.552 -0.0192 -0.1386 -0.3196
10241TIP3    H152138   1.680   1.900  12.506 -0.9915 -0.5059 -0.4033
10241TIP3    H252139   1.720   2.003  12.610  0.9149 -0.1632 -1.4165
10242TIP3   OH252140   0.856   4.024  12.897  0.2758 -0.3922 -0.8286
10242TIP3    H152141   0.935   3.974  12.917 -0.4616 -0.4670  2.3780
10242TIP3    H252142   0.784   3.962  12.909 -0.4129  0.3134 -1.1680
10243TIP3   OH252143   1.024   6.141   1.527  0.5353  0.1449 -0.2287
10243TIP3    H152144   1.047   6.140   1.434  0.3735 -0.5161 -0.2642
10243TIP3    H252145   0.993   6.230   1.542  0.3518  0.1969 -0.8657
10244TIP3   OH252146   1.693   5.512  17.077 -0.6228  0.4422 -0.4674
10244TIP3    H152147   1.707   5.431  17.126 -1.0587  0.4044 -0.4078
10244TIP3    H252148   1.652   5.484  16.995  1.7760  0.2781 -1.7213
10245TIP3   OH252149   1.212   2.063   5.092 -0.2076  0.0143  0.0955
10245TIP3    H152150   1.277   2.119   5.136 -0.1460 -0.5619  0.7492
10245TIP3    H252151   1.201   1.988   5.150 -0.8233 -0.3158 -0.4303
10246TIP3   OH252152   5.075   6.481   4.712 -0.1977 -0.5863 -0.0130
10246TIP3    H152153   5.060   6.418   4.641 -2.4237  2.0288 -2.1007
10246TIP3    H252154   5.160   6.520   4.690 -0.5796 -0.2335 -0.9274
10247TIP3   OH252155   4.196   2.909   0.430 -0.0931  0.6467  0.9420
10247TIP3    H152156   4.170   2.883   0.519 -0.9722  1.6821  1.0139
10247TIP3    H252157   4.192   2.828   0.379 -0.6536  0.2313  1.6174
10248TIP3   OH252158   4.054   4.938   1.833 -0.3889  0.1857  0.3607
10248TIP3    H152159   4.033   4.882   1.757  2.6896 -1.7821  0.7636
10248TIP3    H252160   4.008   4.897   1.906 -1.0449  0.3490  0.0430
10249TIP3   OH252161   0.470   3.062   0.869  0.1715  0.3455 -0.7288
10249TIP3    H152162   0.470   3.128   0.938  0.2767  1.1598 -1.4936
10249TIP3    H252163   0.521   2.989   0.906 -1.6733 -0.1864  0.9132
10250TIP3   OH252164   0.929   1.348   3.812 -1.1972 -0.1083  0.0985
10250TIP3    H152165   0.909   1.425   3.759  0.9656 -0.0106 -0.6929
10250TIP3    H252166   0.878   1.277   3.772 -0.3550  0.1691 -1.5532
10251TIP3   OH252167   2.020   2.406   4.798 -0.3051 -0.1394  0.0751
10251TIP3    H152168   1.962   2.432   4.727 -2.2605  0.5069  1.7999
10251TIP3    H252169   1.966   2.410   4.876  1.8284 -0.5155  1.6836
10252TIP3   OH252170   6.693   3.720   4.136 -0.0508 -0.5728 -0.2934
10252TIP3    H152171   6.737   3.769   4.066  0.3458  0.2457  0.5152
10252TIP3    H252172   6.714   3.768   4.216  0.9340 -2.4304  0.6311
10253TIP3   OH252173   1.223   0.071  12.848 -0.2506  0.1479 -0.0369
10253TIP3    H152174   1.135   0.034  12.854  0.2559 -1.0857 -0.0489
10253TIP3    H252175   1.215   0.141  12.783 -0.0505 -3.7247 -4.8397
10254TIP3   OH252176   2.746   5.634   3.393 -0.5040 -0.2577 -0.0869
10254TIP3    H152177   2.796   5.661   3.470 -0.5359  0.6647 -0.3804
10254TIP3    H252178   2.655   5.634   3.422 -0.5177  0.1030 -0.1213
10255TIP3   OH252179   4.135   1.560  14.784  0.9975 -0.0120 -0.5805
10255TIP3    H152180   4.175   1.613  14.853  0.6071 -0.5310  0.0652
10255TIP3    H252181   4.044   1.591  14.779  0.8889 -0.3091 -0.5097
10256TIP3   OH252182   6.793   5.523   5.019 -0.2252  0.0246  0.2404
10256TIP3    H152183   6.708   5.567   5.012 -0.7495 -0.6088  1.9731
10256TIP3    H252184   6.796   5.464   4.944 -1.9748 -0.9798  0.8950
10257TIP3   OH252185   5.626   5.645   3.223  0.0436  0.2713  0.3593
10257TIP3    H152186   5.674   5.660   3.141 -1.9007  0.1111 -0.8818
10257TIP3    H252187   5.620   5.732   3.263 -2.8797  1.4049 -2.0363
10258TIP3   OH252188   0.626   6.639  15.584 -0.6027 -0.0423 -0.4082
10258TIP3    H152189   0.539   6.612  15.554  0.1866 -1.7738 -1.2726
10258TIP3    H252190   0.676   6.558  15.587  0.7441  0.7826  0.9979
10259TIP3   OH252191   5.090   1.488   3.697  0.5707  0.0970  0.2504
10259TIP3    H152192   5.130   1.570   3.668  0.0957  0.2113 -0.0976
10259TIP3    H252193   5.001   1.491   3.662  0.4460 -0.4220  0.5089
10260TIP3   OH252194   3.254   6.677  10.982 -0.1840  0.2294 -0.1890
10260TIP3    H152195   3.221   6.704  11.068  1.5650  2.8135 -0.2042
10260TIP3    H252196   3.281   6.586  10.994  2.0411  1.1268  2.7150
10261TIP3   OH252197   4.026   4.802   4.024 -0.3087 -0.1627  0.6648
10261TIP3    H152198   3.946   4.852   4.042 -0.2789 -0.0527  0.5026
10261TIP3    H252199   4.032   4.801   3.928  0.4347  0.7214  0.6887
10262TIP3   OH252200   4.075   3.350   2.347  0.1893  0.2273 -0.0985
10262TIP3    H152201   4.057   3.436   2.310 -0.4166  0.2261  0.1844
10262TIP3    H252202   4.128   3.306   2.281  0.3022  0.7311 -0.3483
10263TIP3   OH252203   3.755   2.407   2.333 -0.2809 -0.0710  0.5089
10263TIP3    H152204   3.779   2.376   2.245  0.1275  1.0418  0.2071
10263TIP3    H252205   3.820   2.367   2.391 -0.4245 -0.6443  0.2830
10264TIP3   OH252206   1.563   4.851   0.895 -0.1699  0.4407  0.6351
10264TIP3    H152207   1.574   4.869   0.989  2.5019  2.4721  0.0646
10264TIP3    H252208   1.639   4.797   0.872 -0.0877  1.0395 -0.5752
10265TIP3   OH252209   0.006   3.577   4.507  0.7346  0.5690 -0.4287
10265TIP3    H152210   0.020   3.531   4.590 -1.6370 -0.5610 -0.5571
10265TIP3    H252211  -0.026   3.509   4.448 -0.4169  1.9056 -1.3998
10266TIP3   OH252212   2.925   3.344   1.998 -0.2831 -0.2069 -0.2338
10266TIP3    H152213   2.881   3.378   2.076  0.3509 -1.5585  0.7450
10266TIP3    H252214   2.878   3.384   1.925 -2.9345 -1.3103  0.7472
10267TIP3   OH252215   4.464   2.940  11.543 -0.3073 -0.2136 -0.2129
10267TIP3    H152216   4.478   3.034  11.551 -2.4060  0.1519 -0.0883
10267TIP3    H252217   4.551   2.904  11.526  0.3416  1.9415 -2.1049
10268TIP3   OH252218   0.078   0.317  11.127 -0.0150  0.4918  0.4501
10268TIP3    H152219   0.118   0.238  11.165 -2.0681  0.2916  2.4182
10268TIP3    H252220   0.117   0.389  11.176  1.4355  0.7238 -0.9611
10269TIP3   OH252221   4.833   3.682   0.611 -0.1968  0.7468  0.2852
10269TIP3    H152222   4.776   3.736   0.556 -0.2866  0.5614  0.1944
10269TIP3    H252223   4.790   3.681   0.697  0.8201  2.4504  0.8609
10270TIP3   OH252224   2.484   4.034   1.815  0.0787 -0.4099 -0.4480
10270TIP3    H152225   2.418   4.101   1.798  0.1498 -0.2454 -0.0873
10270TIP3    H252226   2.566   4.083   1.819  0.2712 -0.6541 -1.2216
10271TIP3   OH252227   5.783   5.688  16.978 -0.2173  0.3649  0.2847
10271TIP3    H152228   5.850   5.756  16.983  0.7906 -0.2324 -2.7318
10271TIP3    H252229   5.706   5.726  17.019  1.1270  2.1975  1.2380
10272TIP3   OH252230   1.691   5.005  13.355  0.1476 -0.0039  0.4019
10272TIP3    H152231   1.731   5.076  13.405  0.3614  0.0573  0.1456
10272TIP3    H252232   1.731   5.011  13.268  0.0895 -0.3716  0.3495
10273TIP3   OH252233   2.560   1.220  13.269 -0.4594  0.2899 -0.0529
10273TIP3    H152234   2.631   1.199  13.209 -0.7011  0.5891 -0.4454
10273TIP3    H252235   2.530   1.307  13.241 -2.0195 -0.4820 -0.8972
10274TIP3   OH252236   1.895   6.349   2.284 -0.1553  0.1065 -0.6206
10274TIP3    H152237   1.859   6.432   2.255 -0.8453  0.4265  1.0651
10274TIP3    H252238   1.828   6.312   2.341  0.7206 -0.9539 -0.2386
10275TIP3   OH252239   6.392   6.088   1.798  0.1099 -0.2566  0.1072
10275TIP3    H152240   6.329   6.160   1.796 -0.6131 -0.8058 -3.6573
10275TIP3    H252241   6.345   6.016   1.839 -1.1815 -0.1666 -1.1397
10276TIP3   OH252242   1.201   3.269  12.288  0.1108 -0.1143 -0.4054
10276TIP3    H152243   1.177   3.202  12.352 -0.4022 -0.2715 -0.7520
10276TIP3    H252244   1.211   3.349  12.339 -0.3913 -0.2149 -0.1479
10277TIP3   OH252245   3.065   5.273   3.996 -0.9170  0.2567 -0.0709
10277TIP3    H152246   3.101   5.254   3.909 -0.3962  0.8485  0.0063
10277TIP3    H252247   2.991   5.213   4.005  0.5838 -1.6527  0.1267
10278TIP3   OH252248   6.175   5.237  12.483 -0.1194  0.4323  0.1997
10278TIP3    H152249   6.249   5.275  12.436 -0.2645 -0.3835 -0.7218
10278TIP3    H252250   6.097   5.266  12.434 -0.3608  0.6344  0.6948
10279TIP3   OH252251   6.088   6.163  12.358  0.6875  0.2425 -0.2859
10279TIP3    H152252   6.132   6.240  12.394 -0.6034  0.5356  0.7524
10279TIP3    H252253   6.144   6.089  12.382  0.8433  0.6391  0.6093
10280TIP3   OH252254   4.382   6.551  11.170 -0.6369  0.1179 -0.5443
10280TIP3    H152255   4.455   6.605  11.203 -0.2097 -1.2593  0.8843
10280TIP3    H252256   4.396   6.548  11.075 -0.8040  2.6574 -0.7122
10281TIP3   OH252257   2.195   3.378   2.127  0.1710 -0.1927  0.3633
10281TIP3    H152258   2.169   3.303   2.074  4.7806 -1.4660 -0.5476
10281TIP3    H252259   2.187   3.348   2.217 -1.0808 -0.5556  0.1428
10282TIP3   OH252260   1.010   6.790  11.619  0.1159  0.7641  0.1335
10282TIP3    H152261   0.980   6.873  11.584  0.9818  0.6240 -1.0132
10282TIP3    H252262   0.951   6.771  11.692 -1.1914  1.5140 -0.6971
10283TIP3   OH252263   2.554   3.572   2.779 -0.2298 -0.2853 -0.3838
10283TIP3    H152264   2.602   3.651   2.754  0.2866 -0.4389  0.1043
10283TIP3    H252265   2.569   3.511   2.707  1.5423 -0.8490  0.4162
10284TIP3   OH252266   0.472   5.159   1.122  0.0492  0.3489 -1.0130
10284TIP3    H152267   0.556   5.148   1.077  0.5387 -0.5664  0.0882
10284TIP3    H252268   0.469   5.253   1.143 -0.0612  0.7365 -2.6607
10285TIP3   OH252269   5.514   2.588  16.074  0.7140  0.1565 -0.3775
10285TIP3    H152270   5.451   2.524  16.041  0.4913 -0.6666  1.5430
10285TIP3    H252271   5.591   2.536  16.098  1.2899  0.8798 -0.6100
10286TIP3   OH252272   5.805   4.832   3.625  0.0161 -0.4932 -0.0915
10286TIP3    H152273   5.809   4.902   3.690  2.7528  0.3401 -1.0329
10286TIP3    H252274   5.844   4.756   3.668 -2.3798 -1.3732  0.7114
10287TIP3   OH252275   1.834   1.950   5.689  0.4741 -0.3363 -0.0516
10287TIP3    H152276   1.783   1.957   5.770  0.2960 -0.6825 -0.1332
10287TIP3    H252277   1.919   1.916   5.717  0.5385 -0.1062  0.0364
10288TIP3   OH252278   0.438   6.496   2.819  0.2613  0.7304  0.1638
10288TIP3    H152279   0.506   6.532   2.763 -0.0472  0.9225 -0.0874
10288TIP3    H252280   0.401   6.423   2.769  1.6506 -0.7039  1.1257
10289TIP3   OH252281   0.511   2.634   3.952  0.5951 -0.3548 -0.5742
10289TIP3    H152282   0.480   2.579   4.024 -0.7693  0.5996 -0.3906
10289TIP3    H252283   0.602   2.607   3.938  0.8310 -0.7009  1.3746
10290TIP3   OH252284   0.396   3.791  10.822  0.3579 -0.2425  0.4413
10290TIP3    H152285   0.332   3.859  10.801 -0.0719 -0.6549  0.3979
10290TIP3    H252286   0.447   3.781  10.741  0.3298 -0.0766  0.4023
10291TIP3   OH252287   2.695   6.264   5.597  0.1953  0.2033 -0.0904
10291TIP3    H152288   2.754   6.221   5.660  0.0593  1.0441  0.6240
10291TIP3    H252289   2.621   6.203   5.589  1.7954 -1.5977 -2.1585
10292TIP3   OH252290   3.476   4.648  13.930 -0.2038  0.1030 -0.4876
10292TIP3    H152291   3.540   4.603  13.874  0.2758 -0.7153  0.6663
10292TIP3    H252292   3.392   4.633  13.886  0.3464  1.0161 -1.9170
10293TIP3   OH252293   2.175   3.067  14.795 -0.2124  0.1613  0.1758
10293TIP3    H152294   2.261   3.026  14.789 -0.0083  0.5805  0.1835
10293TIP3    H252295   2.122   3.005  14.845  0.1189 -0.0440  0.2747
10294TIP3   OH252296   0.088   2.515  15.109 -0.1284 -0.4981 -0.3033
10294TIP3    H152297   0.011   2.523  15.166 -0.3339 -0.0327 -0.6357
10294TIP3    H252298   0.112   2.423  15.113 -0.8559 -0.7001 -0.3911
10295TIP3   OH252299   3.189   5.159   2.937  0.0980 -0.1613 -0.0694
10295TIP3    H152300   3.150   5.245   2.919  3.1084  1.4631  0.5447
10295TIP3    H252301   3.178   5.110   2.856  0.2254  1.5936 -1.1981
10296TIP3   OH252302   5.779   1.885   4.272  0.0341  0.3608  0.0829
10296TIP3    H152303   5.782   1.977   4.299  0.4960  0.6047 -0.7563
10296TIP3    H252304   5.727   1.886   4.191  2.3347  0.3181 -1.4872
10297TIP3   OH252305   6.637   4.624   5.139  0.3327 -0.2259 -0.2530
10297TIP3    H152306   6.650   4.589   5.227  0.1640 -0.0818 -0.1691
10297TIP3    H252307   6.641   4.719   5.151  2.2873 -0.2123 -0.7094
10298TIP3   OH252308   1.773   0.448   1.693 -0.2381 -0.0201  0.2990
10298TIP3    H152309   1.754   0.538   1.670 -0.6680 -0.4132 -0.9408
10298TIP3    H252310   1.714   0.429   1.766 -1.4768  0.1501 -0.6257
10299TIP3   OH252311   4.311   3.646  10.912 -0.1197 -0.0599 -0.1764
10299TIP3    H152312   4.224   3.669  10.945  0.4900  0.9996  0.7544
10299TIP3    H252313   4.372   3.694  10.969  1.0941 -1.1403 -0.5148
10300TIP3   OH252314   3.350   1.414  15.416  0.0501 -0.4113  0.2932
10300TIP3    H152315   3.314   1.329  15.388 -2.1918  1.1148 -1.8901
10300TIP3    H252316   3.442   1.410  15.390  0.1356 -2.3204  0.6963
10301TIP3   OH252317   6.732   5.805   5.747 -0.4160 -0.1351 -0.1535
10301TIP3    H152318   6.706   5.801   5.655 -2.7189  1.9966  0.3065
10301TIP3    H252319   6.704   5.720   5.783 -1.7384 -0.0701 -0.9454
10302TIP3   OH252320   4.450   1.650  16.100  0.3693 -0.4046  0.3348
10302TIP3    H152321   4.413   1.648  16.012  1.1140 -1.8265  0.0281
10302TIP3    H252322   4.448   1.743  16.125  3.7349  0.7361 -2.7077
10303TIP3   OH252323   2.961   1.021  11.183 -0.6312 -0.4094  0.1592
10303TIP3    H152324   2.933   0.934  11.155  0.9958 -1.3399  1.2738
10303TIP3    H252325   2.966   1.072  11.102 -2.5996 -1.0121 -0.3998
10304TIP3   OH252326   4.869   5.976   2.198  0.0917 -0.1910  0.2026
10304TIP3    H152327   4.860   6.040   2.127 -1.9549 -1.8330 -1.1085
10304TIP3    H252328   4.958   5.941   2.187 -0.5127 -1.1904 -2.3308
10305TIP3   OH252329   3.370   6.405   0.712 -0.0226  0.3335  0.5750
10305TIP3    H152330   3.318   6.485   0.704 -2.9145 -1.5877 -2.8946
10305TIP3    H252331   3.407   6.391   0.625 -0.1938 -2.4095  0.8550
10306TIP3   OH252332   4.894   3.723  16.508  0.7116 -0.6617  0.3562
10306TIP3    H152333   4.885   3.629  16.491 -0.4427 -0.3242 -1.1463
10306TIP3    H252334   4.876   3.733  16.601  1.1072 -1.9520  0.5885
10307TIP3   OH252335   1.405   2.293   1.256 -0.4331  0.0519  0.0591
10307TIP3    H152336   1.378   2.380   1.225  1.5235  1.1772  1.3003
10307TIP3    H252337   1.449   2.310   1.339 -0.1791 -2.1798  0.4401
10308TIP3   OH252338   0.608   2.832  11.728 -0.1899  0.0887 -0.3702
10308TIP3    H152339   0.669   2.809  11.798 -0.4615 -0.1682 -0.2109
10308TIP3    H252340   0.527   2.856  11.775 -0.6284 -0.8631 -0.6165
10309TIP3   OH252341   3.173   0.957  16.593  0.1006  0.0410 -0.2598
10309TIP3    H152342   3.162   1.037  16.644  0.5632  0.0904 -0.2357
10309TIP3    H252343   3.087   0.943  16.553  0.0795  0.6816 -0.4563
10310TIP3   OH252344   2.901   4.118   5.694  0.4324  0.5901  0.0695
10310TIP3    H152345   2.878   4.209   5.715 -1.9805  0.3179 -1.0606
10310TIP3    H252346   2.891   4.071   5.776 -3.2360  0.5470 -0.2371
10311TIP3   OH252347   3.977   1.223  12.749 -0.4041 -0.0696  0.1432
10311TIP3    H152348   3.998   1.252  12.660  1.4082  3.2171  1.4410
10311TIP3    H252349   4.038   1.152  12.767  0.0561  0.0597 -0.8551
10312TIP3   OH252350   3.010   0.059   4.686 -0.3218 -0.5582  0.1612
10312TIP3    H152351   3.031  -0.021   4.735 -1.1971 -0.5392  0.5852
10312TIP3    H252352   3.031   0.038   4.595 -0.4276 -1.2244  0.2862
10313TIP3   OH252353   6.505   1.432  12.142 -0.5374 -0.4610  0.0947
10313TIP3    H152354   6.558   1.505  12.174  0.1994 -0.0523 -1.9189
10313TIP3    H252355   6.432   1.475  12.096 -1.8868 -1.0217  1.6277
10314TIP3   OH252356   0.544   3.750   2.485  0.1430 -0.1375 -0.1500
10314TIP3    H152357   0.453   3.773   2.466  0.0573 -0.5324 -0.2366
10314TIP3    H252358   0.592   3.775   2.407 -0.2830 -2.2125 -1.1540
10315TIP3   OH252359   2.085   5.136   5.016  0.1885 -0.3126 -0.3405
10315TIP3    H152360   2.029   5.211   5.038 -0.0694 -0.5977 -0.0105
10315TIP3    H252361   2.173   5.164   5.041 -0.1133 -0.6789  1.2529
10316TIP3   OH252362   2.184   6.486  14.810  0.0633 -0.3910 -0.2858
10316TIP3    H152363   2.137   6.483  14.727 -1.5923  2.0264  0.4800
10316TIP3    H252364   2.274   6.509  14.786 -0.0748 -1.0129 -1.4680
10317TIP3   OH252365   5.635   3.126   3.399 -0.6481  0.1658 -0.5478
10317TIP3    H152366   5.680   3.061   3.345 -0.9193 -0.8113  0.3749
10317TIP3    H252367   5.550   3.088   3.417 -0.0589 -0.2190  1.7380
10318TIP3   OH252368   0.993   3.503   0.329 -0.2849 -0.5738 -0.7366
10318TIP3    H152369   0.957   3.492   0.417 -1.1844 -0.6869 -1.1138
10318TIP3    H252370   1.040   3.587   0.333  0.9808 -1.2900  0.2715
10319TIP3   OH252371   3.842   3.448   4.368 -0.2194 -0.2018 -0.1327
10319TIP3    H152372   3.773   3.440   4.301 -1.1727 -0.7144  0.8751
10319TIP3    H252373   3.921   3.465   4.318 -0.8511 -0.8468 -1.4261
10320TIP3   OH252374   6.008   5.205   0.995 -0.1748 -0.4006  0.4303
10320TIP3    H152375   5.933   5.225   0.939  0.1416 -1.3615 -0.3474
10320TIP3    H252376   5.992   5.116   1.026  1.2970 -1.1356 -0.8394
10321TIP3   OH252377   3.486   2.041   1.490  0.1190  0.2827  0.4756
10321TIP3    H152378   3.472   2.114   1.551  0.1142 -1.0204  2.0844
10321TIP3    H252379   3.581   2.028   1.490  0.0684 -0.1064  0.6895
10322TIP3   OH252380   5.104   4.334  14.462 -0.0937  0.0600 -0.4885
10322TIP3    H152381   5.128   4.427  14.473 -2.7830  0.8466 -0.5739
10322TIP3    H252382   5.149   4.307  14.382  3.2823  0.2793  1.1575
10323TIP3   OH252383   3.794   6.016   5.122 -0.2546 -0.0748  0.7410
10323TIP3    H152384   3.842   6.083   5.170  1.6535 -1.7161  1.2369
10323TIP3    H252385   3.784   6.052   5.034  0.0211  1.1833  1.2115
10324TIP3   OH252386   6.763   5.961   6.431 -0.0350  0.0677  0.0185
10324TIP3    H152387   6.726   6.038   6.386 -0.4113 -1.0377 -1.6598
10324TIP3    H252388   6.687   5.904   6.446  0.6443 -1.4837 -1.9411
10325TIP3   OH252389   6.132   1.988   0.017 -0.1834 -0.3420 -0.2060
10325TIP3    H152390   6.075   1.934   0.072 -1.0929  1.2621  0.5210
10325TIP3    H252391   6.193   1.927  -0.023 -1.6871 -1.9926 -0.0947
10326TIP3   OH252392   0.444   5.952  15.848 -0.6008 -0.2829 -0.4265
10326TIP3    H152393   0.459   6.003  15.928 -0.9681 -1.9285  0.7485
10326TIP3    H252394   0.361   5.984  15.815 -0.2286  0.7302 -0.4145
10327TIP3   OH252395   4.844   0.490   4.244  0.7300 -0.3068  0.7452
10327TIP3    H152396   4.809   0.521   4.160 -0.6349 -2.5116  0.4170
10327TIP3    H252397   4.871   0.399   4.227  1.4032 -0.4683  2.4549
10328TIP3   OH252398   3.526   3.385   2.581  0.0924  0.0106  0.0432
10328TIP3    H152399   3.543   3.351   2.668  0.6201  0.4741  0.1277
10328TIP3    H252400   3.531   3.308   2.524 -1.2271 -0.4594  0.5227
10329TIP3   OH252401   0.594   5.347  16.783  0.7564 -0.0820 -0.3416
10329TIP3    H152402   0.513   5.385  16.751  1.3003  1.8152  0.3800
10329TIP3    H252403   0.570   5.259  16.811 -1.6892  1.2037  2.1685
10330TIP3   OH252404   4.828   0.681  14.979  0.1799  0.1737 -0.2136
10330TIP3    H152405   4.854   0.589  14.977  0.6709  0.2320  1.6420
10330TIP3    H252406   4.763   0.686  15.048 -0.2517  1.1422 -0.6662
10331TIP3   OH252407   2.624   0.088  10.410 -0.2027  0.0419  0.3318
10331TIP3    H152408   2.541   0.079  10.458 -1.0909  1.1790 -0.9078
10331TIP3    H252409   2.626   0.013  10.352 -0.8166  0.4526 -0.2412
10332TIP3   OH252410   3.515   1.602   4.845 -0.5563 -0.5207  0.5817
10332TIP3    H152411   3.506   1.672   4.910  0.6868 -1.4532  1.8128
10332TIP3    H252412   3.504   1.521   4.895 -1.3849 -1.2450 -0.7157
10333TIP3   OH252413   2.775   3.666  14.978 -0.4186 -0.4235  0.0097
10333TIP3    H152414   2.774   3.739  14.915  0.1221 -0.0835  0.3768
10333TIP3    H252415   2.845   3.689  15.039 -1.9681  0.0775  1.6983
10334TIP3   OH252416   0.487   4.397  14.443  0.5496  0.5647 -0.2205
10334TIP3    H152417   0.393   4.379  14.451  0.7372 -1.0380 -1.1326
10334TIP3    H252418   0.496   4.488  14.468 -1.1991  0.6371  0.2861
10335TIP3   OH252419   6.769   5.620   3.102  0.0698 -0.2570 -0.2076
10335TIP3    H152420   6.833   5.660   3.043  0.4104 -1.0700 -0.3917
10335TIP3    H252421   6.756   5.686   3.171 -0.9060  1.0258 -1.5708
10336TIP3   OH252422   4.554   6.544  15.397 -0.4151 -0.3690 -0.2105
10336TIP3    H152423   4.631   6.599  15.384  0.2549 -0.9218  1.1869
10336TIP3    H252424   4.519   6.529  15.309  0.1899  1.1205 -0.7278
10337TIP3   OH252425   5.028   0.160   3.554  0.8299  0.1592 -0.2192
10337TIP3    H152426   5.116   0.165   3.592 -0.3937  1.6092  2.7355
10337TIP3    H252427   4.986   0.243   3.580 -2.5892 -1.9880  1.8762
10338TIP3   OH252428   0.872   0.817   1.634  0.0259 -0.3434 -0.1294
10338TIP3    H152429   0.933   0.745   1.650  2.7337  2.1881  2.1696
10338TIP3    H252430   0.795   0.796   1.687  1.7458 -0.5319  2.4575
10339TIP3   OH252431   3.639   2.871  16.621 -0.2681 -0.4031  0.4652
10339TIP3    H152432   3.686   2.952  16.641 -1.2674  0.0772  0.9275
10339TIP3    H252433   3.690   2.830  16.551 -0.7889  1.5655 -1.1417
10340TIP3   OH252434   4.995   5.679   2.393 -0.6446  0.2273 -0.0474
10340TIP3    H152435   4.943   5.599   2.385 -1.6840  0.7940  0.7621
10340TIP3    H252436   5.046   5.667   2.472 -0.2552  0.0702 -0.3205
10341TIP3   OH252437   5.263   1.984  11.119  0.6164 -0.5541  0.0546
10341TIP3    H152438   5.295   2.062  11.076  0.9977 -1.2143 -0.8906
10341TIP3    H252439   5.306   1.984  11.205 -0.0187  0.6796  0.3895
10342TIP3   OH252440   2.795   5.294  16.983  0.1520  0.1964  0.0425
10342TIP3    H152441   2.761   5.380  17.005 -2.1779 -0.6532 -0.0157
10342TIP3    H252442   2.884   5.294  17.019  0.3955  2.7588 -0.3832
10343TIP3   OH252443   2.235   5.438  15.773  0.4345  0.2487 -0.1042
10343TIP3    H152444   2.180   5.378  15.723  1.3016  0.5725 -1.4967
10343TIP3    H252445   2.321   5.395  15.777  1.4396  1.8656 -2.2286
10344TIP3   OH252446   4.978   2.561   1.447 -0.4732  0.3109  0.0056
10344TIP3    H152447   4.926   2.636   1.418 -0.4791  0.2660 -0.1028
10344TIP3    H252448   4.988   2.573   1.541 -2.3621 -0.6971  0.3816
10345TIP3   OH252449   2.149   4.632   5.434 -0.2990  0.0485 -0.5057
10345TIP3    H152450   2.215   4.693   5.401 -0.4576 -0.8332 -2.6546
10345TIP3    H252451   2.180   4.546   5.405 -2.1752 -0.4197 -1.2571
10346TIP3   OH252452   0.627   3.787  16.044  0.2698 -0.6291 -0.4767
10346TIP3    H152453   0.615   3.750  16.131  1.3927 -1.1056 -0.5118
10346TIP3    H252454   0.721   3.783  16.028  0.1662  0.1458 -1.4159
10347TIP3   OH252455   6.315   6.106   2.864 -0.0904 -0.1758 -0.4238
10347TIP3    H152456   6.348   6.092   2.953  2.4492 -2.4304 -1.5694
10347TIP3    H252457   6.224   6.076   2.867 -0.5333  1.1876  1.6964
10348TIP3   OH252458   1.720   3.888   5.621  0.0559 -0.6442 -0.1072
10348TIP3    H152459   1.754   3.809   5.578 -1.5460 -1.8922  0.7873
10348TIP3    H252460   1.704   3.949   5.549 -1.2470 -2.1629 -1.1976
10349TIP3   OH252461   5.961   2.127   4.855  0.3615 -0.3675  0.4391
10349TIP3    H152462   6.056   2.123   4.845  0.3459 -1.0119  0.4888
10349TIP3    H252463   5.928   2.073   4.783  0.0516 -0.5138  0.6929
10350TIP3   OH252464   5.227   4.067   1.340 -0.2373 -0.2559  0.2267
10350TIP3    H152465   5.161   4.133   1.359 -1.2654 -0.4179 -2.3591
10350TIP3    H252466   5.310   4.115   1.341 -0.7574  0.6702  0.2487
10351TIP3   OH252467   4.651   1.251   0.266 -0.4989  0.2509 -0.4752
10351TIP3    H152468   4.743   1.241   0.293 -0.5366  0.8948 -0.0781
10351TIP3    H252469   4.654   1.311   0.192 -0.4744 -0.8740 -1.4064
10352TIP3   OH252470   3.532   4.456   5.512  0.4297  0.2848 -0.2881
10352TIP3    H152471   3.535   4.420   5.423  1.9763 -2.0189  0.6137
10352TIP3    H252472   3.597   4.526   5.512  3.1359 -2.0447 -0.1403
10353TIP3   OH252473   2.060   3.108   3.459  0.1707  0.1369  0.3468
10353TIP3    H152474   2.060   3.193   3.504 -1.9244 -0.0514  0.8020
10353TIP3    H252475   2.057   3.131   3.366  0.7108  0.5554  0.4276
10354TIP3   OH252476   1.583   0.735  12.874  0.5352 -0.3158  0.3456
10354TIP3    H152477   1.516   0.672  12.849  0.7878 -0.2107 -0.6506
10354TIP3    H252478   1.666   0.688  12.859  0.6913 -0.5046  1.7241
10355TIP3   OH252479   2.605   2.971  14.556 -0.0700 -0.2700  0.0614
10355TIP3    H152480   2.559   3.020  14.487  1.1823 -1.4878 -1.7245
10355TIP3    H252481   2.678   3.027  14.581 -1.0599  0.5946  1.1520
10356TIP3   OH252482   3.222   2.921  12.762 -0.7745  0.1706  0.3303
10356TIP3    H152483   3.262   2.859  12.823 -1.8207 -0.9078 -0.0445
10356TIP3    H252484   3.297   2.964  12.720  0.0139  1.8352  3.1550
10357TIP3   OH252485   3.253   3.573   0.256  0.4666 -0.7104 -0.3020
10357TIP3    H152486   3.289   3.529   0.179  1.7286 -1.0502  0.4530
10357TIP3    H252487   3.330   3.599   0.307 -0.3453 -0.6263  0.9192
10358TIP3   OH252488   1.161   4.293  16.388  0.4556  0.8445 -0.0909
10358TIP3    H152489   1.130   4.267  16.302  0.3694  0.2978  0.1022
10358TIP3    H252490   1.108   4.369  16.411  0.2394  0.7774 -0.3674
10359TIP3   OH252491   5.974   4.038   5.913 -0.1469 -0.3322 -0.3014
10359TIP3    H152492   6.057   3.992   5.915  0.1746  0.2462 -0.2106
10359TIP3    H252493   5.914   3.982   5.963  0.0125 -1.0667 -0.9270
10360TIP3   OH252494   1.269   1.592  16.595  0.0781  0.2346  0.5549
10360TIP3    H152495   1.268   1.497  16.609  0.8283  0.1536  0.1269
10360TIP3    H252496   1.186   1.622  16.632 -1.3910 -0.9025 -1.5439
10361TIP3   OH252497   2.947   2.512   4.206  0.4975 -0.1195  0.2942
10361TIP3    H152498   2.957   2.604   4.230  0.5608 -0.1855  0.5299
10361TIP3    H252499   2.994   2.465   4.275 -0.5873 -0.3851  0.8769
10362TIP3   OH252500   3.023   2.183   1.185  0.1284 -0.1444  0.1303
10362TIP3    H152501   2.967   2.110   1.158 -0.3240  0.9825 -2.1881
10362TIP3    H252502   3.110   2.160   1.152 -0.0867  0.4883 -0.9193
10363TIP3   OH252503   6.250   0.007  14.878 -0.0571 -0.3335  0.0556
10363TIP3    H152504   6.275  -0.075  14.836  1.2676 -0.1652  0.4750
10363TIP3    H252505   6.249  -0.013  14.971  0.0568  0.0690  0.1446
10364TIP3   OH252506   3.220   5.753  12.931 -0.5420  0.2196 -0.1525
10364TIP3    H152507   3.217   5.691  12.858  0.9228 -1.3148  1.0125
10364TIP3    H252508   3.266   5.829  12.896 -0.4118 -0.2425 -1.0065
10365TIP3   OH252509   4.093   1.131  13.673 -0.0515  0.0718 -0.1433
10365TIP3    H152510   4.080   1.037  13.670  0.3908  0.0396 -2.2183
10365TIP3    H252511   4.075   1.155  13.764 -2.8485 -1.6042 -0.1488
10366TIP3   OH252512   1.673   4.224  12.325 -0.1127 -0.1124 -0.2635
10366TIP3    H152513   1.711   4.140  12.299 -0.5433 -1.1615  2.2706
10366TIP3    H252514   1.741   4.267  12.376  1.4456  2.7792 -4.1734
10367TIP3   OH252515   3.116   0.448   2.292 -0.2442  0.0348 -0.2593
10367TIP3    H152516   3.154   0.408   2.370  1.1718  1.1782 -0.3080
10367TIP3    H252517   3.187   0.502   2.256 -1.1207  0.1699 -1.8780
10368TIP3   OH252518   2.172   1.718   3.941 -0.1171 -0.7639  0.6519
10368TIP3    H152519   2.189   1.667   4.020 -0.6607 -1.6787  0.2003
10368TIP3    H252520   2.201   1.662   3.869 -0.5960 -0.3753  0.1460
10369TIP3   OH252521   1.242   5.674  12.993 -0.7114  0.5084 -0.1564
10369TIP3    H152522   1.325   5.718  13.010 -1.8224  2.1751  1.2782
10369TIP3    H252523   1.258   5.583  13.016  0.9094  0.6410 -0.6316
10370TIP3   OH252524   5.240   5.724  15.305  0.2187 -0.2955  0.2852
10370TIP3    H152525   5.146   5.741  15.306  0.2185 -0.0398 -1.5398
10370TIP3    H252526   5.278   5.800  15.262  1.3414 -0.1652  1.4310
10371TIP3   OH252527   1.804   5.291  15.120  0.0641  0.4233  0.0495
10371TIP3    H152528   1.875   5.348  15.091 -0.5211  0.9568 -0.3594
10371TIP3    H252529   1.725   5.342  15.106 -0.3535  0.1436  1.2636
10372TIP3   OH252530   4.063   3.979  12.812  0.0175 -0.6989  0.3376
10372TIP3    H152531   4.093   3.998  12.900 -1.0993  3.9281 -0.0160
10372TIP3    H252532   3.969   3.997  12.814  0.0083 -0.1892 -1.7973
10373TIP3   OH252533   5.196   0.596  16.514  0.0478  0.6053  0.5400
10373TIP3    H152534   5.233   0.684  16.524 -0.7184  0.9563  0.3098
10373TIP3    H252535   5.270   0.537  16.530  0.6810  1.2962  0.2015
10374TIP3   OH252536   6.100   1.483   3.204 -0.2300 -0.1598 -0.2403
10374TIP3    H152537   6.128   1.395   3.179 -2.0042 -0.7036 -0.5056
10374TIP3    H252538   6.008   1.471   3.230 -0.0982  1.3897  1.0400
10375TIP3   OH252539   0.723   2.813  16.259  0.3581  0.5259  0.1517
10375TIP3    H152540   0.643   2.843  16.301  1.1179  1.0959  1.2398
10375TIP3    H252541   0.794   2.849  16.313  1.3379 -0.7687 -0.2174
10376TIP3   OH252542   0.642   1.723   1.493 -0.2831  0.1420  0.8827
10376TIP3    H152543   0.692   1.737   1.412 -1.5875  0.2230  0.0638
10376TIP3    H252544   0.709   1.705   1.559  1.0156  2.3937  0.3198
10377TIP3   OH252545   3.053   2.031   1.551 -0.1693 -0.1178  0.4869
10377TIP3    H152546   2.979   1.976   1.523 -1.1513  0.9032  0.9564
10377TIP3    H252547   3.126   1.971   1.561 -0.9387 -1.1661 -0.0180
10378TIP3   OH252548   0.346   1.426   4.313  0.2606  0.0973 -0.1344
10378TIP3    H152549   0.353   1.471   4.229  1.4690  0.4393  0.1277
10378TIP3    H252550   0.252   1.415   4.327  0.0433 -1.2775 -2.2130
10379TIP3   OH252551   5.300   0.184   3.580  0.5052  0.2332  0.4015
10379TIP3    H152552   5.324   0.255   3.641  1.9412 -0.6941  0.9647
10379TIP3    H252553   5.358   0.197   3.505 -1.6250  1.7068 -1.1491
10380TIP3   OH252554   5.959   6.333   3.510  0.4209  0.0295 -0.0579
10380TIP3    H152555   5.995   6.251   3.542 -2.0599 -0.9468  0.4260
10380TIP3    H252556   5.934   6.381   3.589 -1.7935 -0.5515 -0.3202
10381TIP3   OH252557   1.882   5.525   2.448 -0.4515  0.1838  0.0445
10381TIP3    H152558   1.788   5.535   2.433 -1.5269 -2.9810  3.0430
10381TIP3    H252559   1.892   5.539   2.542  2.1776  0.7958 -0.2606
10382TIP3   OH252560   2.458   5.551   2.810  0.0421 -0.1001  0.1199
10382TIP3    H152561   2.507   5.570   2.889  0.7100 -0.8229 -0.1053
10382TIP3    H252562   2.412   5.632   2.789  0.8314  0.4641  0.5558
10383TIP3   OH252563   4.467   6.108   4.256 -0.3158  0.1823  0.3271
10383TIP3    H152564   4.486   6.116   4.163  0.4357 -0.0472  0.4533
10383TIP3    H252565   4.496   6.191   4.294  4.1750 -1.4400  1.0947
10384TIP3   OH252566   3.023   5.929  11.714 -0.7185  0.0975  0.2169
10384TIP3    H152567   2.952   5.871  11.743 -0.3148  0.6976  2.6981
10384TIP3    H252568   2.981   5.991  11.655 -1.9759 -0.3897  0.5623
10385TIP3   OH252569   4.970   0.987   4.545 -0.5442  0.1858 -0.5496
10385TIP3    H152570   4.929   1.033   4.617 -1.3012  0.0010 -0.8507
10385TIP3    H252571   5.010   1.056   4.492  0.4950  0.2770  0.3267
10386TIP3   OH252572   0.320   6.769  15.026  0.0962 -0.6479  0.0656
10386TIP3    H152573   0.399   6.723  15.057  0.4946  1.0194  1.6708
10386TIP3    H252574   0.345   6.805  14.942 -0.2385 -3.2791 -1.2832
10387TIP3   OH252575   4.910   0.028   2.113 -0.2307  0.2086 -0.2110
10387TIP3    H152576   4.834  -0.020   2.148  0.2840 -1.0004 -0.6971
10387TIP3    H252577   4.877   0.067   2.032 -1.0749  1.9884  0.9137
10388TIP3   OH252578   4.160   4.212   1.480  0.3335  0.4405 -0.6015
10388TIP3    H152579   4.159   4.185   1.388 -3.0490 -1.1422 -0.2375
10388TIP3    H252580   4.121   4.139   1.527 -0.2041  2.1453  1.8118
10389TIP3   OH252581   5.320   4.154  15.564 -0.0261  0.1165  0.1017
10389TIP3    H152582   5.409   4.126  15.542  0.1857 -0.8438  1.9555
10389TIP3    H252583   5.273   4.073  15.584 -1.2295  0.6379 -0.4767
10390TIP3   OH252584   6.071   4.542  16.957  0.0949  0.1752 -0.2172
10390TIP3    H152585   6.148   4.517  17.007  0.3318 -1.3464 -1.2669
10390TIP3    H252586   5.999   4.543  17.021  0.6762 -0.0970  0.4444
10391TIP3   OH252587   5.486   3.402   4.814  0.2215 -0.2799  0.0486
10391TIP3    H152588   5.425   3.401   4.740  1.2474  1.5773 -0.9003
10391TIP3    H252589   5.429   3.408   4.891 -0.8567  0.8834 -0.7868
10392TIP3   OH252590   5.832   3.774  17.011 -0.3294  0.5828  0.2820
10392TIP3    H152591   5.898   3.707  17.028 -0.9213  0.1263  0.8115
10392TIP3    H252592   5.871   3.828  16.942  0.7394  0.5307  0.8171
10393TIP3   OH252593   4.195   1.513  14.278  0.6655 -0.0166  0.1933
10393TIP3    H152594   4.217   1.571  14.351  0.7689 -0.6444  0.6670
10393TIP3    H252595   4.107   1.481  14.297  0.2062  0.7519 -0.5734
10394TIP3   OH252596   6.403   1.405  13.917  0.0924  0.6208 -0.0043
10394TIP3    H152597   6.462   1.354  13.862 -0.0498  0.9191 -0.4443
10394TIP3    H252598   6.452   1.419  13.999  0.2784  0.1153 -0.0261
10395TIP3   OH252599   1.564   4.108   4.412 -0.4806 -0.3812 -0.0420
10395TIP3    H152600   1.570   4.152   4.497  2.4911  0.1290 -0.4102
10395TIP3    H252601   1.571   4.179   4.348  0.1718 -1.0017 -0.6779
10396TIP3   OH252602   1.690   4.488   1.614 -0.5437  0.4543  0.0368
10396TIP3    H152603   1.782   4.488   1.641 -0.7491 -0.7257  0.8318
10396TIP3    H252604   1.669   4.580   1.602  0.3865  0.8505  1.1595
10397TIP3   OH252605   6.726   0.715   0.103  0.4623  0.0047  0.3698
10397TIP3    H152606   6.809   0.674   0.079  0.6114 -0.0895  1.0288
10397TIP3    H252607   6.663   0.642   0.105  0.3023  0.1092 -0.3540
10398TIP3   OH252608   6.588   2.032   0.913  0.1370 -0.1363 -0.7924
10398TIP3    H152609   6.581   2.009   0.820  0.5730 -2.0365 -0.4066
10398TIP3    H252610   6.681   2.021   0.933 -0.2534 -1.8236  0.3165
10399TIP3   OH252611   5.707   3.200   0.200  0.0601  0.5166  1.0556
10399TIP3    H152612   5.615   3.184   0.223 -0.0951  1.1320  0.8832
10399TIP3    H252613   5.756   3.146   0.261 -0.4025  0.6933  1.5973
10400TIP3   OH252614   5.080   6.094  16.942 -0.3539  0.1692 -0.0958
10400TIP3    H152615   5.036   6.071  17.024 -1.2428 -1.3788 -0.9646
10400TIP3    H252616   5.173   6.076  16.960 -0.7327 -1.8843  0.0608
10401TIP3   OH252617   6.708   3.227  16.471 -0.0935 -0.7599  0.3315
10401TIP3    H152618   6.678   3.315  16.448 -0.8359 -0.5921  1.7741
10401TIP3    H252619   6.779   3.208  16.410  0.0548  0.8275 -0.0173
10402TIP3   OH252620   6.080   2.163   3.268 -0.0148  0.3370  0.0885
10402TIP3    H152621   6.074   2.150   3.174 -1.5356 -0.1719  0.2242
10402TIP3    H252622   6.074   2.258   3.279 -2.0491  0.2935 -0.2509
10403TIP3   OH252623   1.998   2.788  15.100 -0.3740 -0.1629 -0.0838
10403TIP3    H152624   1.993   2.772  15.194  2.0715  0.1426  0.1601
10403TIP3    H252625   1.999   2.700  15.061 -1.0480 -0.2944  0.1821
10404TIP3   OH252626   1.558   1.348  15.839 -0.4969 -0.0846 -0.0599
10404TIP3    H152627   1.537   1.393  15.757 -0.4173  0.4486  0.2081
10404TIP3    H252628   1.581   1.259  15.812 -1.1938 -0.1302 -0.5449
10405TIP3   OH252629   4.435   2.052  13.282 -0.2661 -0.3282  0.5157
10405TIP3    H152630   4.421   2.057  13.377 -3.1329 -0.1935  0.1712
10405TIP3    H252631   4.391   1.972  13.256  0.8668 -0.5852 -0.6940
10406TIP3   OH252632   6.748   3.055  14.966  0.0387  0.3082 -0.2751
10406TIP3    H152633   6.802   3.051  15.045 -1.2280 -1.7542  0.5668
10406TIP3    H252634   6.811   3.053  14.894  1.1496 -0.2635  0.6749
10407TIP3   OH252635   1.484   3.915   1.613  0.0325 -0.2275  0.4094
10407TIP3    H152636   1.488   3.847   1.546 -0.9500 -0.6536  0.7721
10407TIP3    H252637   1.571   3.915   1.653 -0.2845 -2.0201  1.1432
10408TIP3   OH252638   5.954   2.518  16.755  0.1872 -0.1691  0.2481
10408TIP3    H152639   5.870   2.526  16.708  0.0685 -1.2641  0.2570
10408TIP3    H252640   5.998   2.601  16.739 -0.0438 -0.3421 -1.4562
10409TIP3   OH252641   0.585   0.282  11.126  0.0680  0.5176  0.7679
10409TIP3    H152642   0.670   0.316  11.097  0.3389 -1.4744 -0.9249
10409TIP3    H252643   0.521   0.337  11.081  0.4175  1.4877  1.4029
10410TIP3   OH252644   1.373   0.426  11.459  0.0250  0.1875  0.1362
10410TIP3    H152645   1.386   0.491  11.528 -1.5909  1.3349 -0.5567
10410TIP3    H252646   1.368   0.478  11.379  4.0076 -1.2466 -1.2714
10411TIP3   OH252647   5.099   6.000  16.460  0.2386  0.2054  0.4211
10411TIP3    H152648   5.071   6.091  16.451 -0.5983 -0.0987 -0.1430
10411TIP3    H252649   5.056   5.969  16.540 -0.6163 -0.0858 -0.1283
10412TIP3   OH252650   2.132   0.477  12.473  0.3408 -0.2285 -0.1435
10412TIP3    H152651   2.104   0.387  12.459  1.8526 -1.0310  1.5871
10412TIP3    H252652   2.132   0.516  12.385  0.3554 -2.1225 -1.0371
10413TIP3   OH252653   0.280   5.684  15.044  0.1249  0.0032  0.1915
10413TIP3    H152654   0.216   5.725  14.986  0.0867 -1.2037 -0.6600
10413TIP3    H252655   0.354   5.744  15.044 -0.3285  0.5792 -0.1888
10414TIP3   OH252656   5.486   1.100   3.149  0.0943  0.1191 -0.6336
10414TIP3    H152657   5.510   1.179   3.197 -2.0884 -0.1627  1.0752
10414TIP3    H252658   5.405   1.124   3.103  0.1698 -0.7107 -1.2087
10415TIP3   OH252659   4.338   2.928   4.207 -0.7980 -0.1495 -0.0354
10415TIP3    H152660   4.276   2.999   4.226 -2.2046 -1.7356  1.7849
10415TIP3    H252661   4.336   2.874   4.286  0.2027 -2.2177 -1.3436
10416TIP3   OH252662   6.786   1.122   1.153  0.0116  0.2297  0.0341
10416TIP3    H152663   6.880   1.103   1.151 -0.3112 -1.5448 -0.2326
10416TIP3    H252664   6.757   1.085   1.236 -0.6362 -0.3378 -0.4336
10417TIP3   OH252665   0.907   1.290   4.899 -0.0078 -0.2007  0.0915
10417TIP3    H152666   0.954   1.223   4.850  0.5626 -0.1750  0.5909
10417TIP3    H252667   0.823   1.298   4.855 -0.4588 -1.9166  0.5725
10418TIP3   OH252668   3.580   2.763  15.034 -0.0527  0.4755  0.0851
10418TIP3    H152669   3.552   2.853  15.014  0.3744  0.4210 -0.8314
10418TIP3    H252670   3.534   2.740  15.114 -1.2680  1.0071 -0.4424
10419TIP3   OH252671   6.137   2.863  10.973 -0.1221  0.1214 -0.3480
10419TIP3    H152672   6.109   2.955  10.967  0.8854  0.5811  1.3446
10419TIP3    H252673   6.141   2.845  11.067  2.0976 -0.8619 -0.5628
10420TIP3   OH252674   3.889   5.744  13.434  0.2706 -0.7117  0.9342
10420TIP3    H152675   3.886   5.658  13.477  0.1619 -1.1093  0.1506
10420TIP3    H252676   3.797   5.764  13.415  0.4432 -1.6190 -1.1648
10421TIP3   OH252677   6.417   5.046   3.562 -0.3978  0.0701 -0.1749
10421TIP3    H152678   6.328   5.015   3.578 -0.1517 -0.2269  0.6455
10421TIP3    H252679   6.413   5.084   3.474 -1.3904  0.2872 -0.0506
10422TIP3   OH252680   5.896   1.279   4.693  0.4230 -0.5246 -0.0944
10422TIP3    H152681   5.896   1.184   4.687  0.5898 -0.4954 -0.5750
10422TIP3    H252682   5.956   1.299   4.765 -2.5890 -0.9332  2.8082
10423TIP3   OH252683   2.424   6.288  13.595 -0.7671  0.0804  0.8773
10423TIP3    H152684   2.392   6.326  13.677 -1.6978 -1.5268  1.3207
10423TIP3    H252685   2.384   6.341  13.527 -1.7810  0.1155  1.4708
10424TIP3   OH252686   1.814   0.615  12.469 -0.5245  0.1156 -0.1923
10424TIP3    H152687   1.815   0.705  12.500 -0.8518  0.0417  0.0421
10424TIP3    H252688   1.866   0.616  12.389  1.1066  0.1425  0.8255
10425TIP3   OH252689   5.381   0.785   4.916 -0.1550 -0.1943  0.1722
10425TIP3    H152690   5.429   0.737   4.849  1.3913 -0.8085  1.6404
10425TIP3    H252691   5.317   0.837   4.868  0.2809 -1.2986 -1.6909
10426TIP3   OH252692   5.254   1.070   1.204  0.9282  0.4900  0.1128
10426TIP3    H152693   5.185   1.028   1.255  0.2281  1.2096 -0.2189
10426TIP3    H252694   5.242   1.037   1.115  0.4058  1.3277 -0.1384
10427TIP3   OH252695   4.946   0.545  15.666 -0.1784  0.3503 -0.0491
10427TIP3    H152696   4.941   0.618  15.727  2.0354  0.6980 -0.2221
10427TIP3    H252697   4.909   0.471  15.714 -0.5110  1.1121  0.8851
10428TIP3   OH252698   1.654   5.746   6.193 -0.8265  0.6993  0.3751
10428TIP3    H152699   1.582   5.692   6.160 -1.1047  2.2028 -1.7191
10428TIP3    H252700   1.693   5.784   6.114 -0.3439  3.1116  1.6710
10429TIP3   OH252701   3.248   0.788  12.634  0.4296 -0.0211 -0.3337
10429TIP3    H152702   3.276   0.698  12.615  0.1125 -0.2934  0.4389
10429TIP3    H252703   3.228   0.787  12.728 -0.8840  0.5026 -0.5898
10430TIP3   OH252704   1.820   6.670  12.832  0.4670  0.4330 -0.1276
10430TIP3    H152705   1.909   6.664  12.867 -0.2915  0.8768  2.0614
10430TIP3    H252706   1.830   6.657  12.738  2.4568 -3.2016  0.3872
10431TIP3   OH252707   0.319   4.740  12.110  0.0004 -0.2005  0.3488
10431TIP3    H152708   0.298   4.750  12.018  3.8036  2.3409 -0.4635
10431TIP3    H252709   0.384   4.670  12.113  0.1091 -0.0832  1.0530
10432TIP3   OH252710   4.045   3.641   0.384 -0.2162 -0.6165  0.2849
10432TIP3    H152711   3.979   3.702   0.350  0.4466 -0.1394 -0.1874
10432TIP3    H252712   4.121   3.655   0.327 -0.1834 -2.1939 -0.1089
10433TIP3   OH252713   5.817   5.578   5.150  0.1542 -0.5246  0.8760
10433TIP3    H152714   5.902   5.601   5.113 -0.4514 -1.0611 -0.9678
10433TIP3    H252715   5.823   5.484   5.168 -0.2620 -0.7166  0.0633
10434TIP3   OH252716   5.190   4.638  13.025 -0.8671 -0.0863 -0.1714
10434TIP3    H152717   5.245   4.708  13.060  1.1246 -1.4418 -0.3993
10434TIP3    H252718   5.242   4.558  13.037 -3.1748 -1.6035  0.3813
10435TIP3   OH252719   1.755   4.605   3.775 -0.5891  0.2808 -0.0204
10435TIP3    H152720   1.724   4.566   3.857  1.4492 -0.8081  0.3073
10435TIP3    H252721   1.850   4.605   3.783 -0.3272  0.1750 -2.3969
10436TIP3   OH252722   0.754   3.036  15.441  0.7214  0.1517 -0.4280
10436TIP3    H152723   0.781   2.969  15.378 -0.2258  1.0614 -1.8768
10436TIP3    H252724   0.784   3.118  15.402  0.6049  0.7015  0.5991
10437TIP3   OH252725   5.809   0.720   6.341  0.0945  0.5111  0.1590
10437TIP3    H152726   5.762   0.645   6.378 -1.9977  1.1141 -1.1270
10437TIP3    H252727   5.902   0.696   6.349 -0.3330 -0.6502  3.0037
10438TIP3   OH252728   3.772   1.038  15.844 -0.3356 -0.5095  0.1097
10438TIP3    H152729   3.814   1.123  15.849 -0.5340 -0.4570  1.0362
10438TIP3    H252730   3.691   1.055  15.795  0.1217 -0.3790 -0.6154
10439TIP3   OH252731   5.729   0.817  11.632 -0.5274  0.3654 -0.4043
10439TIP3    H152732   5.671   0.892  11.646  0.3819  1.1201 -0.5538
10439TIP3    H252733   5.677   0.756  11.579 -1.6880  0.3642  0.6714
10440TIP3   OH252734   5.801   3.048  12.570 -0.2219 -0.1129 -0.0597
10440TIP3    H152735   5.792   3.130  12.520 -0.6000 -0.8270 -1.1950
10440TIP3    H252736   5.880   3.061  12.623  0.7614  0.3270 -1.5561
10441TIP3   OH252737   3.867   0.737   3.826  0.4000  0.0549  0.0083
10441TIP3    H152738   3.939   0.675   3.838  1.0047  0.4815 -1.2262
10441TIP3    H252739   3.896   0.816   3.872  1.3115  0.6453 -1.5148
10442TIP3   OH252740   0.168   2.704  15.514 -0.1139  0.1828 -0.0215
10442TIP3    H152741   0.118   2.624  15.530 -1.0188  1.0992  2.0488
10442TIP3    H252742   0.214   2.721  15.596  0.0781  1.7705 -0.4229
10443TIP3   OH252743   3.818   6.572   4.382  0.4394 -0.6326 -0.4328
10443TIP3    H152744   3.738   6.606   4.423 -0.3028 -1.9862 -0.6839
10443TIP3    H252745   3.801   6.578   4.288  1.4184  0.8147 -0.5461
10444TIP3   OH252746   6.230   1.483  14.235 -0.7039  0.4080  0.8398
10444TIP3    H152747   6.292   1.550  14.205 -0.4928 -0.7671 -1.6468
10444TIP3    H252748   6.163   1.481  14.167 -2.1632 -0.0830  2.2400
10445TIP3   OH252749   1.724   4.489   3.467  0.5480  0.0607  0.3565
10445TIP3    H152750   1.804   4.532   3.438 -0.6354  1.4611 -1.0557
10445TIP3    H252751   1.655   4.527   3.413 -0.9698 -1.7678  0.8682
10446TIP3   OH252752   1.235   1.562  11.667 -0.1396 -0.7868  0.0817
10446TIP3    H152753   1.291   1.492  11.699 -1.0275 -1.8925 -0.6899
10446TIP3    H252754   1.290   1.611  11.607  0.9546  0.1475  1.7970
10447TIP3   OH252755   0.883   1.254   5.918  0.5121  0.6388 -0.3900
10447TIP3    H152756   0.942   1.197   5.968  1.8464  0.7927 -1.7051
10447TIP3    H252757   0.796   1.232   5.950  1.2549  0.4636  1.7107
10448TIP3   OH252758   2.728   4.126  15.336 -0.1977  0.2545  0.1257
10448TIP3    H152759   2.649   4.176  15.313 -0.1530  2.4379  3.8300
10448TIP3    H252760   2.696   4.058  15.395  0.5213  0.3991  0.6898
10449TIP3   OH252761   5.458   5.691  12.097  0.3323  0.1992 -0.0239
10449TIP3    H152762   5.495   5.766  12.144  2.4363 -0.2891 -0.7840
10449TIP3    H252763   5.389   5.659  12.154 -0.0285  2.1691  0.7331
10450TIP3   OH252764   4.611   4.481  12.764  0.2336 -0.5029 -0.6331
10450TIP3    H152765   4.570   4.453  12.846  0.2353  0.2800 -0.3554
10450TIP3    H252766   4.539   4.520  12.714  0.1227 -1.4537 -1.2376
10451TIP3   OH252767   5.006   2.804   5.809  0.0920 -0.3860  0.4156
10451TIP3    H152768   4.991   2.714   5.780 -2.7015 -0.0596  0.5816
10451TIP3    H252769   5.014   2.854   5.727 -1.3380 -0.3855  0.2584
10452TIP3   OH252770   3.611   5.369   0.789 -0.1074 -0.0452  0.3979
10452TIP3    H152771   3.607   5.357   0.884  1.7311  0.0032  0.5169
10452TIP3    H252772   3.676   5.306   0.759 -0.4207  0.1719 -0.7861
10453TIP3   OH252773   6.809   0.404   0.955  0.9227 -0.5067 -0.5304
10453TIP3    H152774   6.801   0.337   1.023 -0.6556 -0.6237 -0.7845
10453TIP3    H252775   6.864   0.472   0.995 -0.8652 -0.0453  1.3444
10454TIP3   OH252776   6.761   6.292  16.982 -0.6132  0.2736 -0.0531
10454TIP3    H152777   6.740   6.242  17.060 -0.0338  0.5627  0.2961
10454TIP3    H252778   6.815   6.364  17.014 -0.2675  0.3234 -0.7373
10455TIP3   OH252779   1.466   3.033   0.146 -0.3711  0.6101  0.1031
10455TIP3    H152780   1.450   2.941   0.168 -0.5123  0.2648 -1.3620
10455TIP3    H252781   1.518   3.067   0.219  0.2670 -0.8116  0.3324
10456TIP3   OH252782   1.499   6.081   5.180 -0.1007 -0.2384 -0.0298
10456TIP3    H152783   1.559   6.115   5.245 -1.0199 -2.0045  1.8783
10456TIP3    H252784   1.414   6.120   5.202 -0.4120 -0.8121 -0.1829
10457TIP3   OH252785   5.280   3.979   2.474 -0.1470  0.0305 -0.1777
10457TIP3    H152786   5.314   3.932   2.550 -0.5040 -0.9233 -0.5944
10457TIP3    H252787   5.258   4.066   2.507 -0.5350 -0.4558  0.8750
10458TIP3   OH252788   0.235   2.963   1.027 -0.3525 -0.0966  0.2294
10458TIP3    H152789   0.216   3.007   0.945  0.7849  0.5725  0.2967
10458TIP3    H252790   0.322   2.924   1.014  0.4961  1.2215  1.5384
10459TIP3   OH252791   4.230   0.633  14.579 -0.3246  0.3296 -0.6342
10459TIP3    H152792   4.296   0.626  14.510 -0.8761  2.2103 -1.4357
10459TIP3    H252793   4.146   0.621  14.534 -0.6416  0.4833 -0.0996
10460TIP3   OH252794   6.686   1.065   5.779  0.4871  0.1249 -0.0177
10460TIP3    H152795   6.761   1.006   5.782  2.0879  2.0965  1.0314
10460TIP3    H252796   6.666   1.084   5.871 -0.2017  0.9337 -0.3214
10461TIP3   OH252797   2.127   4.372   3.020 -0.9759  0.1871 -0.4141
10461TIP3    H152798   2.141   4.467   3.016 -0.6679  0.1019 -1.8221
10461TIP3    H252799   2.214   4.335   3.006 -1.1540 -0.3124 -0.2146
10462TIP3   OH252800   0.225   2.929   0.007  0.3757 -0.2382  0.2878
10462TIP3    H152801   0.257   2.984   0.079  1.7685 -0.3575 -0.2140
10462TIP3    H252802   0.302   2.879  -0.020 -0.1919 -0.3606 -1.1391
10463TIP3   OH252803   3.660   6.024   5.665  0.1623 -0.0092 -0.5434
10463TIP3    H152804   3.708   6.074   5.598  0.7936 -1.8948 -1.5689
10463TIP3    H252805   3.624   5.949   5.617 -1.9236  0.1289  0.6682
10464TIP3   OH252806   3.366   1.708   0.148  0.2052 -0.1091 -0.2055
10464TIP3    H152807   3.368   1.648   0.223 -1.6517  1.7428  1.4663
10464TIP3    H252808   3.374   1.795   0.187  2.0323  0.8460 -2.4804
10465TIP3   OH252809   2.126   2.679   5.722  0.1393 -0.7913  0.2691
10465TIP3    H152810   2.106   2.773   5.719 -2.5595 -1.3211 -0.3316
10465TIP3    H252811   2.205   2.670   5.669  2.1807  1.4610  2.6726
10466TIP3   OH252812   4.894   0.303   4.467 -0.6068  0.0573  0.3548
10466TIP3    H152813   4.967   0.260   4.511 -0.1810  0.0404 -0.3429
10466TIP3    H252814   4.859   0.236   4.408  0.3829  0.7661 -1.1236
10467TIP3   OH252815   4.546   1.658   4.655  0.0722 -0.5075  0.3307
10467TIP3    H152816   4.488   1.591   4.619 -0.0952 -0.3619  0.3258
10467TIP3    H252817   4.540   1.646   4.750 -0.3841 -0.1510  0.3534
10468TIP3   OH252818   5.819   4.271  14.394 -0.2677  0.2406  0.0219
10468TIP3    H152819   5.852   4.270  14.484 -0.6173  1.5156  0.1857
10468TIP3    H252820   5.829   4.362  14.367  0.6332 -0.2917 -1.5421
10469TIP3   OH252821   4.389   5.848   4.282  0.2586 -0.0573  0.4613
10469TIP3    H152822   4.302   5.836   4.243  1.1805 -0.5580 -1.5832
10469TIP3    H252823   4.398   5.943   4.292 -1.5686 -0.0739  3.4030
10470TIP3   OH252824   2.360   5.205  16.969 -0.8740  0.1919 -0.5071
10470TIP3    H152825   2.336   5.151  17.044 -0.1425  0.3660 -0.1441
10470TIP3    H252826   2.318   5.289  16.986 -0.7446  0.2177 -0.3178
10471TIP3   OH252827   2.743   5.318  13.040 -0.9067  0.2814 -0.4969
10471TIP3    H152828   2.686   5.243  13.025  0.1561 -0.5977 -0.3095
10471TIP3    H252829   2.808   5.314  12.970 -0.4779  0.6488 -0.1343
10472TIP3   OH252830   6.500   6.098  15.734 -0.2613 -0.1044  0.3699
10472TIP3    H152831   6.418   6.050  15.724  0.2157 -0.8624 -0.0414
10472TIP3    H252832   6.474   6.190  15.737 -0.9817 -0.1246 -2.1551
10473TIP3   OH252833   0.123   0.040  13.242 -0.0954  0.5398  0.6541
10473TIP3    H152834   0.078   0.103  13.186  0.3506 -0.8102 -1.3159
10473TIP3    H252835   0.153   0.093  13.317 -1.2289  2.2902 -0.0517
10474TIP3   OH252836   2.090   4.257  12.749  0.0336  0.1554  0.3224
10474TIP3    H152837   2.061   4.167  12.766 -0.3907  0.0041 -1.0404
10474TIP3    H252838   2.055   4.308  12.822 -0.9212 -0.5636  0.3824
10475TIP3   OH252839   5.745   0.607  15.413  0.4577 -0.8692  0.0810
10475TIP3    H152840   5.750   0.625  15.507  1.6763 -1.6923  0.1925
10475TIP3    H252841   5.713   0.517  15.406  0.0693 -0.7093 -0.3128
10476TIP3   OH252842   2.485   1.215  16.652 -0.0101 -0.3309  0.4784
10476TIP3    H152843   2.537   1.293  16.672  0.1712  0.3112 -2.0542
10476TIP3    H252844   2.550   1.145  16.642 -0.1400 -0.7571  2.3805
10477TIP3   OH252845   3.460   5.825   3.648 -0.8766  0.3480  0.7105
10477TIP3    H152846   3.527   5.770   3.608 -2.1379  0.5201 -1.8395
10477TIP3    H252847   3.499   5.913   3.647 -0.2762  0.1025  1.4049
10478TIP3   OH252848   2.112   5.005  15.562 -0.4336  0.1961  0.1524
10478TIP3    H152849   2.139   4.913  15.573 -3.3446 -0.5840  2.0302
10478TIP3    H252850   2.188   5.056  15.590  0.1090 -1.7571  2.6217
10479TIP3   OH252851   1.654   2.395   4.166  0.5066  0.0752 -1.1212
10479TIP3    H152852   1.655   2.385   4.262 -0.3865 -2.7563 -1.3052
10479TIP3    H252853   1.736   2.354   4.138  0.0751 -0.4695 -1.6148
10480TIP3   OH252854   4.649   2.745  14.265 -0.2539 -0.2887  0.6875
10480TIP3    H152855   4.624   2.703  14.183  0.5145  1.4562 -0.4897
10480TIP3    H252856   4.623   2.836  14.254 -1.3586 -0.2639  2.9410
10481TIP3   OH252857   5.703   0.529   4.236 -0.4339  0.1904 -0.1563
10481TIP3    H152858   5.614   0.525   4.270 -0.0934 -1.7564  0.6056
10481TIP3    H252859   5.735   0.439   4.238  1.5629  0.8294 -0.3971
10482TIP3   OH252860   4.490   0.555   2.111 -0.1724  0.6094  0.0729
10482TIP3    H152861   4.538   0.472   2.110 -0.0664  0.6419  1.1289
10482TIP3    H252862   4.452   0.559   2.199  1.1190  2.4215  0.6070
10483TIP3   OH252863   5.766   1.494   5.090 -0.4013  0.2526 -0.9590
10483TIP3    H152864   5.755   1.548   5.168  0.1407 -1.4304  0.3255
10483TIP3    H252865   5.835   1.538   5.040  1.1923 -0.0583  0.8527
10484TIP3   OH252866   3.780   4.445   4.980 -0.1246 -0.3240  0.4520
10484TIP3    H152867   3.871   4.462   4.954 -0.7257  2.3509 -0.1159
10484TIP3    H252868   3.766   4.353   4.956  2.2597 -0.6771  0.1138
10485TIP3   OH252869   3.203   3.326   1.895 -0.0628 -0.4173 -0.1939
10485TIP3    H152870   3.204   3.233   1.873 -2.7344 -0.0796 -2.3592
10485TIP3    H252871   3.116   3.339   1.934 -0.7206  1.4934 -2.0942
10486TIP3   OH252872   5.334   3.113  11.147 -0.3051  0.1762 -0.2281
10486TIP3    H152873   5.412   3.063  11.171 -1.3000 -0.1569  2.5689
10486TIP3    H252874   5.368   3.197  11.116  1.2090 -0.7224 -1.1347
10487TIP3   OH252875   2.626   2.570   2.858 -0.3924  0.0001 -0.1795
10487TIP3    H152876   2.671   2.509   2.917  0.4647  0.7286 -0.0569
10487TIP3    H252877   2.677   2.568   2.777 -2.1667 -1.8008 -1.3521
10488TIP3   OH252878   6.230   2.662  10.579 -0.3693  0.0281  0.2170
10488TIP3    H152879   6.302   2.636  10.522  0.0237  1.1057  0.2075
10488TIP3    H252880   6.161   2.691  10.519 -1.3047 -2.1254  0.1705
10489TIP3   OH252881   2.128   0.173   6.090  0.0513 -0.0946 -0.2110
10489TIP3    H152882   2.081   0.212   6.017  0.3447 -0.7960 -0.7801
10489TIP3    H252883   2.214   0.150   6.054  0.1361 -0.6096  0.3004
10490TIP3   OH252884   0.400   5.299   1.797 -0.2334 -0.0743 -1.2264
10490TIP3    H152885   0.380   5.269   1.886  0.5156 -0.1943 -1.0901
10490TIP3    H252886   0.317   5.335   1.765 -0.3727  0.4851 -0.2773
10491TIP3   OH252887   4.319   3.445   6.098  0.1874  0.2424  0.2089
10491TIP3    H152888   4.245   3.485   6.144 -0.2361  1.1055 -1.1600
10491TIP3    H252889   4.296   3.352   6.094 -0.9478  0.5237 -0.3848
10492TIP3   OH252890   1.398   2.307  16.958  0.7103 -0.1787 -0.2459
10492TIP3    H152891   1.326   2.325  17.019  0.5533 -1.6798  0.0471
10492TIP3    H252892   1.363   2.239  16.900  1.7997 -0.7544 -0.2462
10493TIP3   OH252893   3.072   4.012  16.212 -0.1395  0.2906 -0.3682
10493TIP3    H152894   3.078   3.917  16.219  1.0151  0.4356  0.8995
10493TIP3    H252895   2.989   4.027  16.165 -1.2454 -1.2757  0.9651
10494TIP3   OH252896   4.428   2.412  12.890  0.3993 -0.0252  0.2603
10494TIP3    H152897   4.390   2.370  12.967 -1.7671  0.0909 -0.6759
10494TIP3    H252898   4.372   2.487  12.873  1.9270  1.0345 -0.3963
10495TIP3   OH252899   1.518   2.834  15.423  0.0683 -0.1828  0.3539
10495TIP3    H152900   1.459   2.909  15.431 -0.0640 -0.1563 -0.7073
10495TIP3    H252901   1.579   2.859  15.353  0.1218 -0.9913  0.1049
10496TIP3   OH252902   3.033   1.321  10.733  0.5763  0.1390  0.1337
10496TIP3    H152903   2.971   1.284  10.670 -0.6872 -1.7483  2.3148
10496TIP3    H252904   3.102   1.360  10.680 -1.7506  1.0641 -2.3920
10497TIP3   OH252905   4.918   0.751  15.838 -1.0551 -0.3558 -0.1591
10497TIP3    H152906   4.874   0.733  15.921  0.4179 -5.9983 -0.2067
10497TIP3    H252907   5.004   0.785  15.863 -1.2358 -0.4168  0.5572
10498TIP3   OH252908   0.869   3.531  14.588  0.1510  0.2995 -0.2367
10498TIP3    H152909   0.956   3.493  14.600  1.2687  1.8651 -2.6665
10498TIP3    H252910   0.883   3.608  14.534 -2.8225  0.3363 -1.1622
10499TIP3   OH252911   5.203   5.800   1.814 -0.1439  1.1735 -0.2857
10499TIP3    H152912   5.288   5.768   1.783 -1.0607 -1.2180 -0.5121
10499TIP3    H252913   5.178   5.740   1.884 -1.0778  2.6372  0.6949
10500TIP3   OH252914   0.595   5.615   3.337  0.4578  0.2312 -0.1840
10500TIP3    H152915   0.570   5.524   3.320 -0.7019  0.6256 -0.6828
10500TIP3    H252916   0.647   5.641   3.261 -1.0912  0.6515 -1.1504
10501TIP3   OH252917   3.813   5.480   2.734  0.6579 -0.4748 -0.1100
10501TIP3    H152918   3.740   5.418   2.741  0.9418 -0.8147 -0.1190
10501TIP3    H252919   3.832   5.506   2.824 -0.0701  0.3230 -0.1762
10502TIP3   OH252920   6.721   4.308  11.488  0.0851  0.7367  0.1431
10502TIP3    H152921   6.697   4.372  11.421 -0.5135 -0.1652 -0.5309
10502TIP3    H252922   6.720   4.357  11.570  0.2083  1.7123 -0.4277
10503TIP3   OH252923   0.071   6.694  16.382  0.1038  0.6120 -1.0197
10503TIP3    H152924   0.086   6.638  16.458  1.0032 -0.5781 -2.0265
10503TIP3    H252925   0.087   6.782  16.414 -0.3445  0.2206  0.3640
10504TIP3   OH252926   1.067   1.042   1.697 -0.6929 -0.2035 -0.0514
10504TIP3    H152927   1.005   0.971   1.714  0.2292 -1.0823 -0.3198
10504TIP3    H252928   1.039   1.078   1.613 -2.6268  1.3566  1.1583
10505TIP3   OH252929   4.624   6.652  11.693 -0.0244  0.4295 -0.1741
10505TIP3    H152930   4.595   6.702  11.617  0.3882  0.5692 -0.2391
10505TIP3    H252931   4.546   6.602  11.719  0.0945 -0.3596 -1.2597
10506TIP3   OH252932   1.120   0.112  11.980  0.0128  0.6424  0.2468
10506TIP3    H152933   1.028   0.087  11.988  0.4769 -0.8721  1.0911
10506TIP3    H252934   1.122   0.171  11.904 -1.9364  2.2994  1.3759
10507TIP3   OH252935   4.730   2.692  14.943 -0.4184 -0.3841 -0.4992
10507TIP3    H152936   4.727   2.787  14.932  0.5301  0.0668  2.3894
10507TIP3    H252937   4.639   2.663  14.938 -1.0282  1.0868  1.2337
10508TIP3   OH252938   5.089   5.095  16.244 -0.2840  0.4484  0.3847
10508TIP3    H152939   5.048   5.014  16.273 -0.7433 -0.1520 -1.7791
10508TIP3    H252940   5.064   5.104  16.153  1.1662  2.1583  0.0818
10509TIP3   OH252941   0.164   2.354   1.303  0.0986  0.1244 -0.2163
10509TIP3    H152942   0.155   2.449   1.297  0.5455  0.1436 -0.6467
10509TIP3    H252943   0.088   2.325   1.353 -1.8023  0.3614 -2.7804
10510TIP3   OH252944   0.775   0.548   1.026 -0.1012 -0.0879 -0.1229
10510TIP3    H152945   0.755   0.602   0.950 -2.2324  1.1059  1.1770
10510TIP3    H252946   0.857   0.585   1.061 -0.1918  0.6811 -0.6953
10511TIP3   OH252947   6.620   0.869  12.394 -0.2356  0.0700 -0.0586
10511TIP3    H152948   6.696   0.926  12.382  0.7676 -0.4193  3.1485
10511TIP3    H252949   6.652   0.781  12.374  0.0961 -0.1286  1.2373
10512TIP3   OH252950   5.457   0.033  15.431 -0.0754  0.4479  0.1556
10512TIP3    H152951   5.553   0.026  15.436 -0.0699  0.3971 -0.0199
10512TIP3    H252952   5.441   0.098  15.363 -0.1868 -1.0328 -1.2990
10513TIP3   OH252953   4.018   4.822  14.518  0.1557  0.2038 -0.2680
10513TIP3    H152954   4.014   4.738  14.564 -2.3559  0.8551  0.8785
10513TIP3    H252955   4.013   4.799  14.425 -1.1564 -0.9146  0.0499
10514TIP3   OH252956   0.611   6.747  15.312 -0.1871 -0.1614  0.1964
10514TIP3    H152957   0.535   6.743  15.370  0.3941  0.5818  1.0492
10514TIP3    H252958   0.686   6.732  15.370  0.3943  0.2919 -0.4190
10515TIP3   OH252959   3.157   0.022  16.661 -0.0325 -0.1450  0.2051
10515TIP3    H152960   3.181   0.114  16.648  0.3462 -0.3417 -0.5687
10515TIP3    H252961   3.062   0.022  16.663 -0.0276  0.3012  0.4713
10516TIP3   OH252962   0.586   1.628  14.745  0.4447  0.3814 -0.9323
10516TIP3    H152963   0.593   1.603  14.653  0.3973 -0.7799 -0.6289
10516TIP3    H252964   0.647   1.570  14.791 -0.9878 -0.4151  0.0193
10517TIP3   OH252965   0.737   1.637  13.920 -0.3769 -0.1876 -0.3521
10517TIP3    H152966   0.735   1.579  13.996  0.5128  0.5944  0.2879
10517TIP3    H252967   0.784   1.587  13.853 -2.7108 -1.6048 -1.0577
10518TIP3   OH252968   2.278   1.311  11.683 -0.6186 -0.5807  0.1191
10518TIP3    H152969   2.184   1.295  11.682 -0.7006 -0.1053 -1.3367
10518TIP3    H252970   2.292   1.379  11.617  0.7524 -0.6891  0.2686
10519TIP3   OH252971   5.000   4.120   5.483 -0.2433 -0.0356 -0.6461
10519TIP3    H152972   4.992   4.193   5.546  2.4949  0.7549 -1.0684
10519TIP3    H252973   5.076   4.144   5.430 -0.1933 -2.5266 -1.7852
10520TIP3   OH252974   3.874   1.566  12.279  0.7390 -0.1454 -0.3014
10520TIP3    H152975   3.797   1.542  12.227  0.3348 -0.7716  0.5786
10520TIP3    H252976   3.840   1.581  12.367  1.4450  0.7837 -0.1718
10521TIP3   OH252977   2.531   1.672   6.009  0.0706 -0.6105  0.1545
10521TIP3    H152978   2.532   1.723   6.090  2.3934 -0.8297  0.3296
10521TIP3    H252979   2.480   1.726   5.948  0.4630  0.7932  1.0132
10522TIP3   OH252980   1.143   3.347   4.283 -0.0166 -0.0351 -0.1731
10522TIP3    H152981   1.179   3.384   4.364  1.5269  1.0529 -1.3070
10522TIP3    H252982   1.193   3.267   4.269 -0.6441 -0.5065  0.1865
10523TIP3   OH252983   4.187   5.303   0.394  0.3160  0.0122 -0.0880
10523TIP3    H152984   4.274   5.338   0.417  0.2674 -0.4352  0.8222
10523TIP3    H252985   4.135   5.315   0.474 -0.4711  0.2914 -0.6366
10524TIP3   OH252986   3.727   4.283   3.198  0.3832  0.0934  1.1256
10524TIP3    H152987   3.727   4.317   3.287 -0.9972 -2.6542  2.2958
10524TIP3    H252988   3.656   4.331   3.154  1.2839  1.6915  1.3505
10525TIP3   OH252989   3.765   6.720   1.880 -0.1124 -0.9188 -0.0610
10525TIP3    H152990   3.720   6.737   1.797 -1.7876 -1.5563  0.6680
10525TIP3    H252991   3.730   6.786   1.940  1.3279 -0.2539  0.0981
10526TIP3   OH252992   4.816   2.161  16.183  0.0072 -0.5374 -0.2362
10526TIP3    H152993   4.863   2.192  16.106  1.9784 -0.8233  0.7705
10526TIP3    H252994   4.879   2.104  16.228 -1.0242 -0.2742  1.6405
10527TIP3   OH252995   3.627   1.403   1.972 -0.0557 -0.6161 -0.3052
10527TIP3    H152996   3.583   1.352   2.039  0.9862  1.2639  1.9738
10527TIP3    H252997   3.718   1.408   2.001  0.1303  1.4887 -1.0364
10528TIP3   OH252998   3.464   2.090  12.652  0.2694 -0.0322 -0.2262
10528TIP3    H152999   3.510   2.131  12.726  3.6917 -1.0869 -1.5698
10528TIP3    H253000   3.522   2.105  12.577 -1.5859 -1.6004 -2.0879
10529TIP3   OH253001   0.204   3.555  13.086  0.4510 -0.4036  0.0540
10529TIP3    H153002   0.151   3.589  13.013  0.1834  0.5521  0.6687
10529TIP3    H253003   0.294   3.566  13.057  0.4118  1.6532  0.5320
10530TIP3   OH253004   6.291   4.810  11.992 -0.8317 -0.6091 -0.2850
10530TIP3    H153005   6.325   4.878  12.051 -1.4246 -1.8687  1.5924
10530TIP3    H253006   6.198   4.805  12.012 -1.2275 -0.5233 -1.9514
10531TIP3   OH253007   6.748   0.525  15.525  0.3823  0.5397 -0.3423
10531TIP3    H153008   6.756   0.559  15.436 -0.0584  2.4202  0.3025
10531TIP3    H253009   6.837   0.497  15.548  0.6831  0.8890 -1.0468
10532TIP3   OH253010   2.564   3.006   4.978  0.5977  0.2739 -0.0110
10532TIP3    H153011   2.551   2.914   4.954  3.6060 -0.2605  0.0006
10532TIP3    H253012   2.519   3.055   4.908 -0.0824 -1.1972 -0.6522
10533TIP3   OH253013   4.944   4.649  13.399 -0.2906  0.1656 -0.4181
10533TIP3    H153014   4.902   4.571  13.362  0.6484  0.4973 -2.3209
10533TIP3    H253015   4.884   4.679  13.467 -0.8891 -1.9575  0.0745
10534TIP3   OH253016   1.336   4.999  10.799 -0.5752  0.0720 -0.4851
10534TIP3    H153017   1.385   4.949  10.733 -1.5362 -0.8091 -0.5639
10534TIP3    H253018   1.383   5.081  10.806  1.2009 -0.9216 -0.1942
10535TIP3   OH253019   2.242   6.043   3.660  0.2662 -0.1929 -0.0112
10535TIP3    H153020   2.245   6.131   3.698 -2.2289  0.4644 -1.1132
10535TIP3    H253021   2.162   6.005   3.696  0.6920 -1.5810 -0.4814
10536TIP3   OH253022   5.125   2.291  10.763 -0.5671 -0.3216 -0.2291
10536TIP3    H153023   5.041   2.305  10.721 -0.0037  1.5875 -0.8175
10536TIP3    H253024   5.163   2.378  10.770  1.9125 -1.2358 -1.1502
10537TIP3   OH253025   0.309   5.190  13.302 -0.5785  0.2853 -0.2015
10537TIP3    H153026   0.371   5.256  13.331  0.4934 -0.7724 -0.0137
10537TIP3    H253027   0.362   5.111  13.288 -1.9077 -0.7274  0.2400
10538TIP3   OH253028   6.627   4.567   1.343 -0.1100 -0.2965  0.0061
10538TIP3    H153029   6.580   4.619   1.408 -0.9189  0.7203 -1.3409
10538TIP3    H253030   6.650   4.486   1.389 -2.1415 -0.3367  1.0517
10539TIP3   OH253031   4.524   3.551   1.802  0.0966 -0.2086 -0.1419
10539TIP3    H153032   4.539   3.639   1.836  0.7850  0.5081 -2.1261
10539TIP3    H253033   4.538   3.560   1.707 -1.8953 -2.0117 -0.6644
10540TIP3   OH253034   2.627   4.517  11.562 -0.1167  0.0985 -0.2396
10540TIP3    H153035   2.574   4.461  11.618  0.7580 -0.5116 -0.0052
10540TIP3    H253036   2.713   4.476  11.561 -0.2579 -0.2573 -2.5457
10541TIP3   OH253037   3.488   0.270  11.170  0.0357 -0.2325  0.1729
10541TIP3    H153038   3.464   0.236  11.256  1.0636 -0.4335  0.3915
10541TIP3    H253039   3.462   0.202  11.108 -0.1245 -0.3617  0.3821
10542TIP3   OH253040   3.720   6.544   5.957 -0.0148  0.8354 -0.6182
10542TIP3    H153041   3.680   6.587   6.033 -0.8553  0.5258 -0.8741
10542TIP3    H253042   3.787   6.605   5.928  0.3253  0.9566  0.3771
10543TIP3   OH253043   5.916   4.262   1.981 -0.2631 -0.1742  0.1816
10543TIP3    H153044   5.879   4.269   2.069  2.1194 -1.4410  1.3855
10543TIP3    H253045   5.840   4.254   1.924 -1.9013  0.9235  2.0816
10544TIP3   OH253046   5.106   5.804   0.307  0.2847 -0.4131  0.6919
10544TIP3    H153047   5.125   5.711   0.300  1.1606 -0.2018  0.0044
10544TIP3    H253048   5.182   5.847   0.267 -0.5098  0.5661  0.1740
10545TIP3   OH253049   6.623   6.725  16.199 -0.1128  0.0011 -0.7246
10545TIP3    H153050   6.713   6.753  16.212 -0.1586 -0.5944  1.3296
10545TIP3    H253051   6.600   6.756  16.112  1.8476  0.7552 -1.0237
10546TIP3   OH253052   1.683   5.234   4.896  0.2720  0.3382  0.6915
10546TIP3    H153053   1.652   5.204   4.811 -0.0751 -0.0382  0.9502
10546TIP3    H253054   1.746   5.168   4.924 -0.3608 -0.0713  1.1783
10547TIP3   OH253055   3.994   0.350  16.837 -0.5341 -0.4259  0.1989
10547TIP3    H153056   4.040   0.349  16.920  1.9078 -0.6227 -1.0863
10547TIP3    H253057   3.923   0.413  16.850  1.5158  1.7403  1.5513
10548TIP3   OH253058   0.011   4.783  14.772  0.0248 -0.4601 -0.6676
10548TIP3    H153059  -0.053   4.731  14.822 -0.5631  1.7118  0.9704
10548TIP3    H253060  -0.038   4.860  14.743  1.2129 -0.1168 -1.8479
10549TIP3   OH253061   1.676   1.483   4.674 -0.3406 -0.3495  0.3432
10549TIP3    H153062   1.637   1.570   4.674 -0.0839 -0.2354  0.1731
10549TIP3    H253063   1.750   1.489   4.614  0.8227 -0.1691  1.7377
10550TIP3   OH253064   3.417   5.240   2.842  0.0110  0.0158 -0.0482
10550TIP3    H153065   3.365   5.260   2.764  0.1563 -0.4376 -0.2671
10550TIP3    H253066   3.359   5.186   2.896  0.6473 -1.4940 -0.8331
10551TIP3   OH253067   1.745   5.367   4.004  0.6369  0.9012  0.2100
10551TIP3    H153068   1.732   5.411   3.920  2.4782  0.3243 -0.4211
10551TIP3    H253069   1.686   5.413   4.064 -0.2076  1.7863 -1.2277
10552TIP3   OH253070   0.947   5.977  14.590  0.8380 -0.7277 -0.3305
10552TIP3    H153071   0.971   6.064  14.560 -1.4455  1.1084  2.6549
10552TIP3    H253072   1.026   5.944  14.634  1.7342 -0.2501 -1.5247
10553TIP3   OH253073   4.647   1.106  12.148  0.5459 -0.0900  0.4777
10553TIP3    H153074   4.719   1.088  12.209 -0.0229 -0.0518  1.1701
10553TIP3    H253075   4.583   1.037  12.166  0.1114  0.2756  0.3373
10554TIP3   OH253076   5.141   2.194   5.612  0.4730 -0.8650  0.0497
10554TIP3    H153077   5.107   2.272   5.656  1.6887 -0.6682  0.7087
10554TIP3    H253078   5.235   2.196   5.630  0.7538 -1.6898 -1.1838
10555TIP3   OH253079   5.485   1.616   5.341  0.1595 -0.2313 -0.2342
10555TIP3    H153080   5.570   1.581   5.315 -0.5033 -1.0734 -1.4116
10555TIP3    H253081   5.433   1.538   5.363 -0.9913  0.0491 -1.7672
10556TIP3   OH253082   2.085   4.139   4.074  0.2781  0.9000 -0.5034
10556TIP3    H153083   1.997   4.176   4.082  0.6485  1.7050 -0.0611
10556TIP3    H253084   2.076   4.073   4.006 -1.0422 -0.1941  0.6581
10557TIP3   OH253085   6.143   5.061   2.728  0.0076 -0.1955 -0.1568
10557TIP3    H153086   6.097   4.988   2.769 -0.2078  0.3818  0.6672
10557TIP3    H253087   6.234   5.033   2.723  0.7212  0.8517  3.6854
10558TIP3   OH253088   2.149   5.750  16.768 -0.8112 -0.6273  0.0592
10558TIP3    H153089   2.216   5.715  16.827  0.6893  1.4492 -0.3117
10558TIP3    H253090   2.093   5.675  16.749  2.1571 -2.8371 -0.6581
10559TIP3   OH253091   5.164   1.770  15.273 -0.0590 -0.1298  0.3286
10559TIP3    H153092   5.138   1.810  15.356  0.3891 -0.4146  0.6106
10559TIP3    H253093   5.197   1.843  15.221  2.5168 -0.3263  1.5253
10560TIP3   OH253094   0.145   1.307   2.527  0.1093 -0.1264 -0.8144
10560TIP3    H153095   0.108   1.304   2.615 -0.5238  0.4099 -1.0523
10560TIP3    H253096   0.071   1.292   2.469  0.2803  0.7610 -1.2907
10561TIP3   OH253097   1.794   4.738   5.069  0.1049  0.2919 -0.5177
10561TIP3    H153098   1.872   4.688   5.092  0.2821  1.2175  1.0792
10561TIP3    H253099   1.806   4.823   5.112 -1.3558  0.7848 -0.9976
10562TIP3   OH253100   4.517   3.613  17.009  0.2987  0.0886 -0.2026
10562TIP3    H153101   4.583   3.621  16.940 -0.4977 -1.9395 -1.2943
10562TIP3    H253102   4.437   3.591  16.962 -0.2970 -1.2928  1.3774
10563TIP3   OH253103   2.741   1.161   1.069  0.5655  0.4356 -1.1099
10563TIP3    H153104   2.679   1.234   1.074  0.5718  0.3696  0.5396
10563TIP3    H253105   2.793   1.168   1.149  1.0816 -0.9380 -1.2939
10564TIP3   OH253106   6.821   5.302   5.681 -0.3931  0.9423  0.4184
10564TIP3    H153107   6.854   5.391   5.696 -0.1746  0.9408 -0.0279
10564TIP3    H253108   6.869   5.248   5.743 -1.0984  1.2493  1.2387
10565TIP3   OH253109   5.716   2.694   2.784  0.1350 -0.1223 -0.1624
10565TIP3    H153110   5.682   2.758   2.722  2.8135  0.9052 -0.6857
10565TIP3    H253111   5.727   2.614   2.732  0.2891  0.0925 -0.4632
10566TIP3   OH253112   3.811   6.259  15.972  0.0557  0.3891  0.5854
10566TIP3    H153113   3.905   6.256  15.954 -0.2888  0.1730 -1.4283
10566TIP3    H253114   3.800   6.204  16.050  1.6941  1.2071  1.4371
10567TIP3   OH253115   4.709   5.741   3.562 -0.7950 -0.2082 -0.2744
10567TIP3    H153116   4.729   5.650   3.584 -0.9836 -0.7913 -2.2906
10567TIP3    H253117   4.725   5.790   3.643 -1.9935 -2.2090  1.2647
10568TIP3   OH253118   2.899   3.444  16.909  0.1226 -0.3599  0.2224
10568TIP3    H153119   2.981   3.476  16.872  0.4136  0.0132  1.1475
10568TIP3    H253120   2.883   3.360  16.865  0.9687 -0.4039 -0.0109
10569TIP3   OH253121   0.741   1.116   6.129  0.9401 -0.0705 -0.1879
10569TIP3    H153122   0.833   1.090   6.140  1.5271  1.8951  0.0533
10569TIP3    H253123   0.697   1.037   6.099  2.1436 -1.8469  2.3029
10570TIP3   OH253124   1.077   4.377  10.667 -0.1498  0.0267 -0.5701
10570TIP3    H153125   1.151   4.425  10.630 -0.0760 -0.2179 -0.7385
10570TIP3    H253126   1.011   4.377  10.598 -1.1104  2.0087  0.2700
10571TIP3   OH253127   4.051   5.450  12.041  0.2363 -0.0121 -0.1182
10571TIP3    H153128   4.053   5.427  11.948 -1.1656  0.5306 -0.3044
10571TIP3    H253129   4.003   5.378  12.083 -1.3914  0.9747 -0.2260
10572TIP3   OH253130   6.670   5.202  11.458  0.0467  0.4193  0.4284
10572TIP3    H153131   6.723   5.267  11.505  0.4043 -1.1318  2.2508
10572TIP3    H253132   6.608   5.169  11.523 -0.8273 -0.3237 -0.7453
10573TIP3   OH253133   3.061   5.459  16.033 -0.2356 -0.6910 -0.1110
10573TIP3    H153134   3.038   5.461  16.126  1.3485 -1.2634  0.3385
10573TIP3    H253135   3.150   5.495  16.030 -0.6887  0.3839 -1.5657
10574TIP3   OH253136   6.464   1.104   1.780 -0.0306 -0.1754  0.3729
10574TIP3    H153137   6.402   1.174   1.757 -0.4537 -0.5126  0.4627
10574TIP3    H253138   6.538   1.116   1.721  0.7630  1.4945  1.6133
10575TIP3   OH253139   5.983   5.111  12.182  0.3475  0.8397  0.1300
10575TIP3    H153140   5.974   5.042  12.248 -0.2270  0.4780 -0.3130
10575TIP3    H253141   6.007   5.065  12.102  1.5757  1.3314  0.1915
10576TIP3   OH253142   3.494   2.986  16.879 -0.7469  0.1922 -0.0733
10576TIP3    H153143   3.413   2.939  16.900 -0.2143 -0.6191  0.1821
10576TIP3    H253144   3.548   2.922  16.833  0.3997  0.2178  1.1710
10577TIP3   OH253145   5.670   1.971  16.433 -0.1763  0.2267 -0.0839
10577TIP3    H153146   5.763   1.954  16.441 -0.0747  1.2700  1.4034
10577TIP3    H253147   5.640   1.986  16.522 -1.3303  2.0453 -0.7108
10578TIP3   OH253148   5.694   2.872   0.637 -0.0693 -0.3768  0.5016
10578TIP3    H153149   5.688   2.917   0.721  0.9844 -0.0101  0.3952
10578TIP3    H253150   5.741   2.791   0.656  1.2263  0.2479  0.0882
10579TIP3   OH253151   0.967   1.521  16.425 -0.0944 -0.2370  0.6537
10579TIP3    H153152   0.994   1.588  16.488 -0.6146  0.2253  0.3977
10579TIP3    H253153   0.894   1.562  16.377  1.4003  0.1101 -1.4358
10580TIP3   OH253154   5.774   0.267   4.236 -0.1989 -0.6389 -0.4546
10580TIP3    H153155   5.722   0.191   4.262 -0.1633 -0.3286  0.5679
10580TIP3    H253156   5.857   0.257   4.282 -1.0683  1.2234  1.6796
10581TIP3   OH253157   3.996   2.534  16.854 -0.2299  0.1511  0.1390
10581TIP3    H153158   3.936   2.607  16.838  1.0110  1.5067  1.3997
10581TIP3    H253159   3.958   2.461  16.805 -1.8064  1.4834 -0.7290
10582TIP3   OH253160   3.038   4.588  13.475 -0.8202 -0.2451 -0.0788
10582TIP3    H153161   3.080   4.502  13.464 -0.3192 -0.0323  0.1027
10582TIP3    H253162   2.946   4.572  13.456 -0.2543 -0.1027 -3.8859
10583TIP3   OH253163   5.492   6.766  12.160 -0.0492 -0.1531  0.6176
10583TIP3    H153164   5.491   6.764  12.065  2.3472  0.3401  0.5086
10583TIP3    H253165   5.447   6.847  12.183 -0.9318 -0.4395 -0.0616
10584TIP3   OH253166   2.324   1.109  10.597 -0.6336  0.0919 -0.5032
10584TIP3    H153167   2.402   1.164  10.592 -0.0988 -0.0576  3.1820
10584TIP3    H253168   2.329   1.068  10.683 -3.6917 -1.6884 -1.0034
10585TIP3   OH253169   4.305   2.847   3.480  0.3314  0.6404 -0.2041
10585TIP3    H153170   4.374   2.781   3.489  0.5724  0.9552  0.3168
10585TIP3    H253171   4.353   2.927   3.459  0.2188  1.0674  1.0856
10586TIP3   OH253172   3.699   6.687   0.515  0.3061 -0.6001  0.1414
10586TIP3    H153173   3.688   6.603   0.560  0.7006  0.5670  2.5628
10586TIP3    H253174   3.616   6.733   0.528  0.9071  0.2988  0.9393
10587TIP3   OH253175   1.622   5.374   4.664 -0.4823  0.1425 -0.1393
10587TIP3    H153176   1.616   5.415   4.577  0.8529 -1.2834 -0.9359
10587TIP3    H253177   1.704   5.407   4.700  1.0561 -2.3669 -1.1426
10588TIP3   OH253178   3.808   2.957  14.690  0.0522 -0.2444  0.3010
10588TIP3    H153179   3.785   3.048  14.674 -1.0566 -0.4788  0.5130
10588TIP3    H253180   3.873   2.936  14.623  2.2143  1.4179  1.7527
10589TIP3   OH253181   3.647   5.383  13.790  0.3212 -0.3233  0.4235
10589TIP3    H153182   3.680   5.297  13.764 -1.1379 -0.9356  0.5126
10589TIP3    H253183   3.697   5.406  13.868  0.0568 -1.5508  0.9768
10590TIP3   OH253184   1.752   2.707   4.028  0.0756  0.4518  0.2819
10590TIP3    H153185   1.744   2.651   3.951  2.2563 -0.0666  0.3764
10590TIP3    H253186   1.777   2.648   4.099 -3.2066  0.6701  1.8506
10591TIP3   OH253187   4.164   2.803  14.836  0.0400 -0.3433 -0.0437
10591TIP3    H153188   4.087   2.835  14.884  0.2132 -0.3204  0.2250
10591TIP3    H253189   4.132   2.728  14.787 -0.6281  0.8775 -1.5463
10592TIP3   OH253190   5.392   6.521  16.808 -0.2867 -0.0408  0.0696
10592TIP3    H153191   5.360   6.595  16.756 -1.2121 -0.4323  0.0473
10592TIP3    H253192   5.428   6.460  16.743  0.1123  0.2123  0.0525
10593TIP3   OH253193   3.246   3.780   5.587 -0.4417 -0.3767  0.7672
10593TIP3    H153194   3.212   3.731   5.512 -1.1734  0.0707  0.7885
10593TIP3    H253195   3.190   3.859   5.591  0.6959  0.4551  0.7306
10594TIP3   OH253196   4.444   4.232   2.779 -0.3105  0.2867 -0.8109
10594TIP3    H153197   4.489   4.181   2.711  0.7739 -1.9414  1.4269
10594TIP3    H253198   4.367   4.179   2.801 -1.0300  1.3283 -0.7123
10595TIP3   OH253199   4.400   3.229   6.423 -0.0742 -0.7732 -0.1429
10595TIP3    H153200   4.310   3.219   6.391 -0.1406  0.2108 -0.2835
10595TIP3    H253201   4.434   3.139   6.427 -0.8945 -1.1132 -0.5635
10596TIP3   OH253202   4.069   1.330  12.502  0.6857 -0.0143 -0.1813
10596TIP3    H153203   4.076   1.354  12.410  1.7169  0.3283 -0.0354
10596TIP3    H253204   4.112   1.401  12.549  1.2880 -0.7800  0.4709
10597TIP3   OH253205   2.291   6.299  13.201 -0.2379  0.4075  0.3553
10597TIP3    H153206   2.277   6.369  13.264 -0.7491 -0.9290  1.7963
10597TIP3    H253207   2.225   6.314  13.133 -3.1339 -0.8729  2.6615
10598TIP3   OH253208   5.299   2.833  15.085 -0.1438  0.1253 -0.2688
10598TIP3    H153209   5.247   2.785  15.020 -1.6412  1.0049  0.2129
10598TIP3    H253210   5.235   2.888  15.131  0.8163 -0.6090  2.1049
10599TIP3   OH253211   5.268   5.639   4.110  0.0376  0.1681  0.3514
10599TIP3    H153212   5.348   5.664   4.063 -0.4275 -0.0376 -0.5875
10599TIP3    H253213   5.263   5.544   4.098  0.0794  0.0648  1.1128
10600TIP3   OH253214   0.591   0.093   0.334 -0.7565 -0.4945  0.1004
10600TIP3    H153215   0.522   0.059   0.390  0.8771 -2.5815  0.9825
10600TIP3    H253216   0.617   0.019   0.279 -0.1930  0.6435 -1.2280
10601TIP3   OH253217   6.302   3.842   0.723 -0.5304 -0.3595  0.2530
10601TIP3    H153218   6.217   3.819   0.762 -0.4837  0.2238  0.7036
10601TIP3    H253219   6.291   3.824   0.630 -1.8160  1.5634 -0.0199
10602TIP3   OH253220   5.323   6.627   6.504  0.2203 -0.0453 -0.4181
10602TIP3    H153221   5.338   6.719   6.525  0.2083 -0.1140 -0.1072
10602TIP3    H253222   5.367   6.614   6.420  1.7478 -0.1890  0.3682
10603TIP3   OH253223   6.712   0.352  13.882 -0.2607  0.2297  0.3445
10603TIP3    H153224   6.798   0.316  13.861  0.4656  2.2773 -0.5110
10603TIP3    H253225   6.728   0.411  13.956 -0.9172  0.6614  0.1493
10604TIP3   OH253226   6.709   0.118  16.687 -0.4347  0.1579  0.4898
10604TIP3    H153227   6.697   0.023  16.691  0.2869 -0.0921 -1.7929
10604TIP3    H253228   6.620   0.153  16.693 -0.5841 -0.4098  3.8529
10605TIP3   OH253229   3.671   4.257  12.712 -0.0415 -0.4001 -0.4273
10605TIP3    H153230   3.757   4.271  12.751 -0.3018  1.5978 -0.4731
10605TIP3    H253231   3.672   4.308  12.632 -1.0475 -0.8956 -0.7766
10606TIP3   OH253232   4.587   2.611  11.390 -0.2811 -0.2525 -0.2163
10606TIP3    H153233   4.503   2.572  11.365  0.0973 -0.2663 -1.5285
10606TIP3    H253234   4.598   2.684  11.330  0.3888  0.0960  0.3239
10607TIP3   OH253235   0.976   2.449   5.178  0.1197 -0.3055 -0.4543
10607TIP3    H153236   1.060   2.434   5.222 -1.1059 -0.8261  1.8532
10607TIP3    H253237   0.934   2.363   5.178 -1.3475  0.3822  0.5406
10608TIP3   OH253238   5.982   2.219   2.151 -0.4301 -0.2162  0.2768
10608TIP3    H153239   6.022   2.137   2.182  0.1930 -0.1498 -0.3213
10608TIP3    H253240   5.901   2.191   2.108  0.3487 -0.6801 -0.9801
10609TIP3   OH253241   4.559   1.042  13.033  0.2105 -0.1381 -0.0872
10609TIP3    H153242   4.551   0.956  13.075  0.6449  0.5780  1.5348
10609TIP3    H253243   4.627   1.031  12.967 -0.7371 -1.3897 -0.9046
10610TIP3   OH253244   0.291   1.032   2.797 -0.0496  0.0644  0.4261
10610TIP3    H153245   0.257   1.027   2.707  1.7312  2.0037 -0.4450
10610TIP3    H253246   0.301   1.126   2.814  3.1435 -0.2896  1.1803
10611TIP3   OH253247   2.766   4.277  15.700  0.1342 -0.4854 -0.1532
10611TIP3    H153248   2.780   4.242  15.612  1.8864 -0.9965  0.2833
10611TIP3    H253249   2.700   4.220  15.739  0.6349 -1.3581 -0.5505
10612TIP3   OH253250   6.531   1.420   5.802 -0.0648 -0.1636  0.0262
10612TIP3    H153251   6.538   1.335   5.845 -0.1185  0.6260  1.6614
10612TIP3    H253252   6.437   1.441   5.805  0.1759  0.8668  1.5552
10613TIP3   OH253253   1.772   0.707  11.083 -0.4429  0.2541  0.2091
10613TIP3    H153254   1.799   0.757  11.160 -0.1459  1.1114 -0.4362
10613TIP3    H253255   1.677   0.708  11.087 -0.4311  0.3230  0.5490
10614TIP3   OH253256   6.578   3.558   1.888  0.4661 -0.2747  0.3979
10614TIP3    H153257   6.544   3.642   1.916  0.1298  0.3457 -1.7068
10614TIP3    H253258   6.510   3.495   1.914 -1.4508  0.6873 -1.8976
10615TIP3   OH253259   1.542   5.053  16.554 -0.4689  0.1501  0.1270
10615TIP3    H153260   1.510   4.964  16.565 -1.0607  0.3485  0.0473
10615TIP3    H253261   1.634   5.049  16.581 -0.5073 -0.4669  0.1832
10616TIP3   OH253262   2.931   0.133   5.355  0.1189 -0.4684  0.4052
10616TIP3    H153263   2.843   0.168   5.338  0.2199 -1.3204 -2.3061
10616TIP3    H253264   2.915   0.042   5.379  0.2434 -1.0837 -1.6189
10617TIP3   OH253265   4.323   3.630   3.408  0.3755 -0.0723 -0.4315
10617TIP3    H153266   4.368   3.696   3.355  1.9358 -1.1010 -0.4779
10617TIP3    H253267   4.388   3.561   3.420 -0.2051 -0.2923  2.0855
10618TIP3   OH253268   4.284   5.742  14.663  0.0938  0.3581  0.5001
10618TIP3    H153269   4.250   5.827  14.635  0.9711  0.3359 -0.7002
10618TIP3    H253270   4.355   5.723  14.602  1.0499 -0.4475  1.8125
10619TIP3   OH253271   3.141   5.540   5.690  0.4403 -0.5956  0.3855
10619TIP3    H153272   3.054   5.531   5.651 -0.3861  1.7485  1.4598
10619TIP3    H253273   3.200   5.555   5.616 -0.9613  2.9824 -0.2426
10620TIP3   OH253274   0.264   0.033   6.456 -0.3296 -0.0208  0.1012
10620TIP3    H153275   0.289  -0.003   6.541  0.2953 -1.5549 -0.6963
10620TIP3    H253276   0.318  -0.015   6.393 -2.1004 -0.2589 -1.3116
10621TIP3   OH253277   4.421   5.354  11.730 -0.5708 -0.2742 -0.5031
10621TIP3    H153278   4.499   5.301  11.712 -0.3084  0.1756 -0.7073
10621TIP3    H253279   4.363   5.336  11.656 -0.3754 -0.0833 -0.7054
10622TIP3   OH253280   4.104   5.296   5.411 -0.3229 -0.3143 -0.3925
10622TIP3    H153281   4.193   5.262   5.397 -0.7117 -2.1328  1.0738
10622TIP3    H253282   4.103   5.320   5.504 -1.4517 -0.6021 -0.3222
10623TIP3   OH253283   4.891   6.371   6.698 -0.8943 -0.4201  0.1019
10623TIP3    H153284   4.857   6.286   6.669 -2.2754 -0.1383  0.8185
10623TIP3    H253285   4.986   6.363   6.688 -1.1322 -1.1926 -2.1008
10624TIP3   OH253286   1.047   3.232  16.219 -0.2011  0.0138  0.4450
10624TIP3    H153287   1.089   3.156  16.181 -0.1138  0.7473 -1.0036
10624TIP3    H253288   1.115   3.300  16.220 -0.2662  0.1024  1.7338
10625TIP3   OH253289   6.755   4.179   4.658  0.8484  0.0058  0.3821
10625TIP3    H153290   6.775   4.099   4.707  0.3845  0.1059  0.7501
10625TIP3    H253291   6.827   4.238   4.678  1.1011 -0.2545  0.2531
10626TIP3   OH253292   1.114   1.969  15.137  0.2179  0.3896  0.4534
10626TIP3    H153293   1.080   1.998  15.052 -0.2741 -1.1031  0.1189
10626TIP3    H253294   1.128   2.050  15.186 -1.1845  1.1879 -0.4067
10627TIP3   OH253295   6.578   4.807   5.813 -0.1856 -0.2309  0.0005
10627TIP3    H153296   6.486   4.827   5.795  0.3585  1.3963 -1.2272
10627TIP3    H253297   6.576   4.757   5.894 -2.0074  1.8816  1.3941
10628TIP3   OH253298   1.855   0.725   0.559  0.7396 -0.1360 -0.2311
10628TIP3    H153299   1.880   0.772   0.480 -0.0869  2.4259  0.9282
10628TIP3    H253300   1.920   0.655   0.567  0.5962 -0.7834 -3.3427
10629TIP3   OH253301   4.438   4.969   2.739  0.3640  0.0844 -0.2247
10629TIP3    H153302   4.519   4.982   2.788  1.7488  2.0211 -2.7981
10629TIP3    H253303   4.387   5.049   2.755  0.8966  0.8075 -1.9525
10630TIP3   OH253304   4.780   6.704  15.407  0.0568 -0.3480  0.4264
10630TIP3    H153305   4.857   6.680  15.458  0.2912 -0.8811 -0.1650
10630TIP3    H253306   4.796   6.795  15.380  0.5129 -0.4790  0.2478
10631TIP3   OH253307   6.619   3.037   1.485 -0.0811 -0.0594  0.1538
10631TIP3    H153308   6.534   3.081   1.494 -1.1333 -1.2035 -2.9709
10631TIP3    H253309   6.613   2.961   1.542 -0.4971  0.6819  1.1401
10632TIP3   OH253310   1.699   5.207  16.859  0.1245  0.2687 -0.3355
10632TIP3    H153311   1.611   5.241  16.845 -0.2767 -0.6516 -0.0675
10632TIP3    H253312   1.722   5.235  16.947 -0.8896 -1.5702  0.5681
10633TIP3   OH253313   0.571   3.505   1.089  0.8494  0.0620 -0.0679
10633TIP3    H153314   0.610   3.582   1.130  0.8052 -0.4126  0.8993
10633TIP3    H253315   0.561   3.442   1.161 -0.3042 -0.3763 -0.5853
10634TIP3   OH253316   0.959   1.270   0.168 -0.1680  0.4278  0.5506
10634TIP3    H153317   0.942   1.254   0.261  1.9911 -2.3197  0.5955
10634TIP3    H253318   0.886   1.326   0.140 -3.5390 -2.3872  2.8240
10635TIP3   OH253319   1.678   5.082  11.987 -0.1546  0.0495 -0.1012
10635TIP3    H153320   1.630   5.089  12.070 -2.1357  0.0082 -1.1683
10635TIP3    H253321   1.702   5.172  11.967  0.7817  0.0012  0.7467
10636TIP3   OH253322   0.078   3.283  11.527 -0.2077 -0.0984  0.1533
10636TIP3    H153323   0.103   3.299  11.618 -0.6584  0.1684  0.2333
10636TIP3    H253324   0.100   3.191  11.512  0.6501  0.0782  0.2696
10637TIP3   OH253325   1.504   2.051  11.747  0.2444  0.4810  0.0457
10637TIP3    H153326   1.434   2.036  11.812  0.1923 -1.4867 -0.3844
10637TIP3    H253327   1.459   2.085  11.670 -0.3440 -1.0334 -0.3250
10638TIP3   OH253328   6.339   4.949   3.049  0.1138 -0.2778 -0.4526
10638TIP3    H153329   6.419   4.987   3.013 -1.2736 -0.5621 -4.3161
10638TIP3    H253330   6.280   5.024   3.060 -0.1035 -0.4202 -0.6489
10639TIP3   OH253331   5.098   3.445  16.990 -0.6798  0.4361  0.2837
10639TIP3    H153332   5.030   3.429  16.924 -0.9379  0.2973  0.5761
10639TIP3    H253333   5.056   3.504  17.053  0.4286  2.8123 -1.0724
10640TIP3   OH253334   1.355   4.974   3.813  0.2797  0.5548  0.3187
10640TIP3    H153335   1.323   4.904   3.870  0.8943 -1.9401 -2.1643
10640TIP3    H253336   1.405   5.031   3.871 -1.7405 -0.0046  2.7849
10641TIP3   OH253337   3.134   0.356  14.749  0.6509  0.3923 -0.0998
10641TIP3    H153338   3.133   0.370  14.843 -0.0846 -0.5474  0.0475
10641TIP3    H253339   3.100   0.438  14.712 -1.0836  0.0332  0.5906
10642TIP3   OH253340   4.122   2.809   0.666 -0.0653 -0.1979 -0.3343
10642TIP3    H153341   4.086   2.872   0.728  0.7642 -1.1473  1.1955
10642TIP3    H253342   4.149   2.735   0.721  1.3329 -0.8018 -1.7676
10643TIP3   OH253343   1.335   4.137   1.553  0.0150 -0.2877 -0.7042
10643TIP3    H153344   1.394   4.210   1.537  0.5574  0.3378  3.1714
10643TIP3    H253345   1.391   4.067   1.586 -1.1136 -0.0691  1.9464
10644TIP3   OH253346   6.646   2.036  14.184 -0.4109 -0.5598  0.1715
10644TIP3    H153347   6.659   1.951  14.143  1.3082 -0.1394 -0.2251
10644TIP3    H253348   6.699   2.034  14.263  2.6379  1.3137 -1.6227
10645TIP3   OH253349   5.447   4.137  11.016 -0.4449 -0.1872 -0.1742
10645TIP3    H153350   5.472   4.045  11.007  0.2147 -0.0329  0.0550
10645TIP3    H253351   5.473   4.161  11.105  1.3360  0.8060 -0.9116
10646TIP3   OH253352   1.449   5.637  13.559 -0.1652 -0.1253 -0.2272
10646TIP3    H153353   1.536   5.612  13.591  0.1811  1.4880  0.1902
10646TIP3    H253354   1.388   5.591  13.615  0.4364  0.3208  0.8213
10647TIP3   OH253355   3.315   4.255   3.067 -0.4565 -0.1330  0.0744
10647TIP3    H153356   3.280   4.189   3.007 -1.8554  0.3608  0.3013
10647TIP3    H253357   3.328   4.208   3.149 -0.7693 -0.2863  0.0378
10648TIP3   OH253358   2.914   5.510   4.096 -0.0354 -0.2684 -0.5120
10648TIP3    H153359   2.823   5.500   4.123 -0.0158 -1.0188 -0.7268
10648TIP3    H253360   2.935   5.431   4.047  0.6645 -0.0008 -0.6677
10649TIP3   OH253361   5.954   2.788   3.319 -0.4374  0.1057 -0.3796
10649TIP3    H153362   5.859   2.803   3.315 -0.5962 -1.0750 -1.9763
10649TIP3    H253363   5.963   2.710   3.373 -0.2560  0.9295  0.8118
10650TIP3   OH253364   2.095   5.730  12.700  0.3119 -0.4688 -0.1161
10650TIP3    H153365   2.131   5.653  12.655 -2.9957 -1.2802 -1.7415
10650TIP3    H253366   2.021   5.695  12.750  0.0177  1.4113  0.8202
10651TIP3   OH253367   5.765   5.586  10.529  0.1461  0.3762 -0.4740
10651TIP3    H153368   5.722   5.579  10.614 -0.2742  1.2110 -0.6081
10651TIP3    H253369   5.850   5.545  10.542 -0.0656  0.1456  0.2397
10652TIP3   OH253370   0.478   5.190   5.796  0.6029 -0.0955 -0.1508
10652TIP3    H153371   0.517   5.247   5.862  0.3853 -0.1398  0.0169
10652TIP3    H253372   0.420   5.132   5.846  0.6395 -0.3038 -0.3484
10653TIP3   OH253373   5.895   3.183   4.961  0.1518 -0.2613 -0.4404
10653TIP3    H153374   5.965   3.247   4.976 -0.0342  0.6917 -3.1097
10653TIP3    H253375   5.826   3.210   5.021  0.6238  1.1962 -0.4972
10654TIP3   OH253376   2.309   6.513   1.882  0.0548 -0.3838 -0.2277
10654TIP3    H153377   2.370   6.451   1.921  1.3712  0.7349 -0.4253
10654TIP3    H253378   2.326   6.595   1.928  0.5108  0.5742 -2.0089
10655TIP3   OH253379   4.538   1.119  10.625  0.5013  1.3173  0.3151
10655TIP3    H153380   4.618   1.162  10.594  1.3357  0.6491  1.4627
10655TIP3    H253381   4.468   1.183  10.608  1.4219  2.3184  0.1870
10656TIP3   OH253382   1.382   5.639   5.376  0.6660  0.4484 -0.3142
10656TIP3    H153383   1.303   5.585   5.379  1.5064 -0.7768  0.5763
10656TIP3    H253384   1.377   5.683   5.291 -1.0801  0.5879 -0.1796
10657TIP3   OH253385   5.171   2.423  16.651 -0.7226  0.1337  0.0830
10657TIP3    H153386   5.221   2.408  16.731 -2.1767 -1.4833  0.7546
10657TIP3    H253387   5.085   2.451  16.682 -1.1572 -0.0220 -0.9353
10658TIP3   OH253388   0.899   5.634  17.062 -0.5731  0.5518 -0.2832
10658TIP3    H153389   0.882   5.706  17.123 -1.0555  1.9723 -1.9955
10658TIP3    H253390   0.825   5.574  17.074 -0.3273  0.4747  0.9464
10659TIP3   OH253391   1.142   5.703   4.567 -0.4138  0.1515  0.5910
10659TIP3    H153392   1.149   5.790   4.528  1.6042 -0.3525 -0.3054
10659TIP3    H253393   1.161   5.717   4.660  0.8323  0.5741  0.2933
10660TIP3   OH253394   6.678   5.946  15.920 -0.3808 -0.0070  0.2713
10660TIP3    H153395   6.648   6.012  15.858  0.0250 -1.7261 -1.8534
10660TIP3    H253396   6.749   5.900  15.875 -0.6723 -1.9205  1.6289
10661TIP3   OH253397   2.532   3.642  12.078 -0.0367 -0.2429  0.3381
10661TIP3    H153398   2.505   3.572  12.020 -1.0812  0.1279  0.3483
10661TIP3    H253399   2.565   3.597  12.156  1.1704 -0.7357 -0.4194
10662TIP3   OH253400   5.405   1.355  15.289  0.1531 -0.7075 -0.3100
10662TIP3    H153401   5.365   1.272  15.314  0.1342 -0.5295  0.2543
10662TIP3    H253402   5.412   1.405  15.370  1.2814 -0.6249 -0.4355
10663TIP3   OH253403   5.461   0.136   3.904  0.1401 -0.2514 -0.2320
10663TIP3    H153404   5.470   0.158   3.811  0.2881  1.5823  0.1849
10663TIP3    H253405   5.535   0.179   3.946 -0.3758 -0.3820  0.8396
10664TIP3   OH253406   5.534   1.954   6.127 -0.2003 -0.1278 -0.0705
10664TIP3    H153407   5.520   2.047   6.109 -0.7083 -0.3109 -0.6674
10664TIP3    H253408   5.622   1.937   6.092 -0.6792 -0.1874 -1.3080
10665TIP3   OH253409   5.835   6.400  13.741 -0.1354 -0.3960 -0.0034
10665TIP3    H153410   5.751   6.447  13.737 -0.0662 -0.3634 -1.3097
10665TIP3    H253411   5.817   6.315  13.702  0.0676 -1.0166  1.1908
10666TIP3   OH253412   2.119   5.268  12.891  0.1367 -0.2733 -0.3663
10666TIP3    H153413   2.201   5.251  12.843  0.0101  2.4223 -1.7480
10666TIP3    H253414   2.145   5.326  12.962 -0.3066 -0.9989  0.4010
10667TIP3   OH253415   1.809   1.618  16.287  0.1480 -0.2950 -0.4598
10667TIP3    H153416   1.854   1.648  16.208  0.9192  0.2376  0.1539
10667TIP3    H253417   1.757   1.543  16.259  1.7113 -1.1611 -1.1412
10668TIP3   OH253418   4.357   1.340   3.101  0.2152 -0.1703  0.2225
10668TIP3    H153419   4.312   1.378   3.177  0.2829  0.0898  0.1353
10668TIP3    H253420   4.450   1.345   3.123  0.1589 -1.7919  0.9011
10669TIP3   OH253421   1.848   3.250  12.864  0.0349 -0.4769  0.1570
10669TIP3    H153422   1.901   3.195  12.807 -1.0201  1.2340 -2.6335
10669TIP3    H253423   1.787   3.189  12.907 -0.0593 -1.6906 -1.6218
10670TIP3   OH253424   3.543   0.071   5.492  0.1580 -0.2843 -0.7384
10670TIP3    H153425   3.577   0.085   5.580 -0.9894 -0.9731 -0.1537
10670TIP3    H253426   3.519   0.158   5.461 -1.5229 -0.2410  0.5469
10671TIP3   OH253427   3.633   2.378  13.485  0.3140  0.0176  0.0047
10671TIP3    H153428   3.573   2.410  13.553  1.2721  1.7510  0.1075
10671TIP3    H253429   3.670   2.458  13.448  3.0645 -0.9687  0.4279
10672TIP3   OH253430   2.104   1.715  16.397  0.1408  0.0134 -0.4564
10672TIP3    H153431   2.012   1.694  16.379  0.2020  0.2896 -1.1154
10672TIP3    H253432   2.142   1.730  16.311  1.4272 -2.5729 -0.4361
10673TIP3   OH253433   2.609   0.187  12.634  0.2251 -0.5037 -0.3965
10673TIP3    H153434   2.588   0.106  12.586 -1.4839 -0.7819  0.7569
10673TIP3    H253435   2.693   0.215  12.597 -0.7977 -0.9059 -3.2701
10674TIP3   OH253436   4.102   4.590  14.639  0.6599 -0.3133 -0.0094
10674TIP3    H153437   4.090   4.496  14.650  2.6680 -0.7800 -1.3088
10674TIP3    H253438   4.176   4.612  14.697 -0.9118  0.8663  1.6685
10675TIP3   OH253439   4.078   6.308  16.331 -0.2918  0.1171 -0.3455
10675TIP3    H153440   4.044   6.308  16.242 -1.0945 -0.8361 -0.0622
10675TIP3    H253441   4.138   6.233  16.333 -0.1940  0.2016 -0.1213
10676TIP3   OH253442   4.705   5.861   0.118 -0.1797 -0.4851 -0.5424
10676TIP3    H153443   4.729   5.872   0.210  0.6949  0.2375 -0.8478
10676TIP3    H253444   4.612   5.839   0.120  0.0879 -1.6341  0.5746
10677TIP3   OH253445   6.471   1.126  15.417 -0.1396  0.3252  0.4096
10677TIP3    H153446   6.562   1.130  15.446 -0.6843  2.4042  2.0364
10677TIP3    H253447   6.471   1.057  15.350  2.5802  0.1738  0.4394
10678TIP3   OH253448   0.401   5.577  11.577 -0.0096 -0.6190 -0.1627
10678TIP3    H153449   0.314   5.579  11.536  0.2686  0.1439 -0.7234
10678TIP3    H253450   0.449   5.648  11.536  1.0376 -1.3196 -0.1874
10679TIP3   OH253451   4.676   4.400  16.851 -0.3076  0.0679 -0.3450
10679TIP3    H153452   4.750   4.460  16.844 -2.2786  2.7870  0.4841
10679TIP3    H253453   4.629   4.409  16.768 -0.0552 -1.2075 -0.6496
10680TIP3   OH253454   0.931   3.383  16.970 -0.3066 -0.2859  0.2779
10680TIP3    H153455   0.931   3.327  17.048  1.6769 -0.5872  0.1026
10680TIP3    H253456   1.023   3.390  16.945 -0.8511  0.2354 -1.7541
10681TIP3   OH253457   3.474   3.396  12.917 -0.0925 -0.2798 -0.0151
10681TIP3    H153458   3.408   3.453  12.958 -0.9284 -1.4955  0.3744
10681TIP3    H253459   3.546   3.393  12.979 -0.1914  0.0726  0.1182
10682TIP3   OH253460   2.227   6.350  16.311 -0.0844  0.0969 -0.0939
10682TIP3    H153461   2.135   6.323  16.310 -0.4000  1.0936  0.5605
10682TIP3    H253462   2.254   6.340  16.402  0.8748 -1.4816 -0.5192
10683TIP3   OH253463   6.647   0.368  16.120 -0.3937  0.2594 -0.5220
10683TIP3    H153464   6.725   0.349  16.171 -0.8756 -1.4243 -0.3462
10683TIP3    H253465   6.646   0.302  16.051 -1.1363  0.8643 -1.1089
10684TIP3   OH253466   1.107   1.279  15.842  0.0057 -0.0157  0.2450
10684TIP3    H153467   1.043   1.327  15.789 -0.5346  0.7068  1.5035
10684TIP3    H253468   1.062   1.198  15.867 -0.1080  0.0990  0.4151
10685TIP3   OH253469   5.223   4.219  11.896  0.1841 -0.2459  0.1120
10685TIP3    H153470   5.302   4.208  11.844  1.9471  1.1630  2.2618
10685TIP3    H253471   5.165   4.272  11.841  1.7346  0.7247 -0.6723
10686TIP3   OH253472   5.278   0.652  14.955 -0.1801 -0.0846 -0.1362
10686TIP3    H153473   5.204   0.708  14.979 -0.6741 -0.2018 -1.3500
10686TIP3    H253474   5.349   0.714  14.937 -0.2165  0.0621  0.1991
10687TIP3   OH253475   3.320   3.516   2.760 -0.0268  0.4018  0.2877
10687TIP3    H153476   3.407   3.486   2.735  0.8053  0.7162  2.5440
10687TIP3    H253477   3.279   3.439   2.800 -1.2538 -0.0545 -1.7181
10688TIP3   OH253478   2.416   6.623   0.194  0.0846 -0.0680 -0.1159
10688TIP3    H153479   2.332   6.578   0.185  0.2195 -0.5053  0.6956
10688TIP3    H253480   2.480   6.552   0.198  0.5873  0.2836 -1.5177
10689TIP3   OH253481   0.823   3.160   0.723  0.2164 -0.3216 -0.2864
10689TIP3    H153482   0.760   3.124   0.660 -0.0989 -1.5653  0.6908
10689TIP3    H253483   0.781   3.240   0.756 -0.7369 -0.9647  0.1125
10690TIP3   OH253484   0.492   2.734  16.891  0.3836 -0.5947  0.6892
10690TIP3    H153485   0.568   2.698  16.937  0.9236 -0.5810 -0.1815
10690TIP3    H253486   0.529   2.784  16.818 -0.4644 -0.7950  0.1083
10691TIP3   OH253487   0.865   2.835   3.267  0.6250 -0.0298  0.4149
10691TIP3    H153488   0.898   2.830   3.177  1.4303 -0.8263  0.7511
10691TIP3    H253489   0.791   2.895   3.261 -0.3357 -1.2682 -1.0972
10692TIP3   OH253490   4.827   1.576   1.345  0.2426  0.1526  0.1643
10692TIP3    H153491   4.856   1.629   1.419  0.5381 -0.5767  0.5834
10692TIP3    H253492   4.737   1.552   1.366  0.4185 -0.2936  0.4423
10693TIP3   OH253493   1.023   5.673   5.379 -0.3721 -0.1053  0.0819
10693TIP3    H153494   1.076   5.595   5.360 -0.9420 -0.5269  0.2248
10693TIP3    H253495   0.979   5.653   5.461 -3.1879 -1.0629 -1.5387
10694TIP3   OH253496   4.890   0.167  13.032  0.7786 -0.0596  0.6710
10694TIP3    H153497   4.893   0.125  12.946 -0.9208 -1.1661  1.0961
10694TIP3    H253498   4.851   0.253  13.015  0.1614 -0.3891  0.3462
10695TIP3   OH253499   4.019   3.025   5.798 -0.2236 -0.1756  0.0166
10695TIP3    H153500   4.031   2.935   5.766  0.5408 -0.7649  1.8364
10695TIP3    H253501   3.942   3.057   5.750  0.0369 -1.4589 -1.3495
10696TIP3   OH253502   5.904   0.232   0.181 -0.1571 -0.1336  0.5364
10696TIP3    H153503   5.928   0.234   0.274  0.4218  1.1411  0.3854
10696TIP3    H253504   5.847   0.308   0.170  0.3810  0.1562 -0.3032
10697TIP3   OH253505   3.974   2.017   2.433 -0.7265 -0.4873  0.4696
10697TIP3    H153506   3.882   2.016   2.462 -1.3857 -0.7917 -1.4914
10697TIP3    H253507   3.972   1.976   2.346  0.9957  1.2068 -0.4309
10698TIP3   OH253508   2.119   2.789  12.539 -0.7887 -0.3100  0.2361
10698TIP3    H153509   2.141   2.882  12.533 -0.1172 -0.1121  3.5879
10698TIP3    H253510   2.032   2.788  12.578  0.0060 -0.9915  2.1324
10699TIP3   OH253511   5.574   2.842  16.025  0.5598 -0.6303 -0.0471
10699TIP3    H153512   5.533   2.759  16.047 -0.0839 -0.5362 -0.8380
10699TIP3    H253513   5.656   2.843  16.074  0.4020 -1.5679  0.2436
10700TIP3   OH253514   4.452   2.476  15.788  0.4273  0.6364 -0.1340
10700TIP3    H153515   4.437   2.381  15.791  0.4622  0.6631  1.9769
10700TIP3    H253516   4.399   2.511  15.860  1.9006  2.0147  0.3299
10701TIP3   OH253517   1.890   5.319   1.443  0.0128 -0.2224  0.0419
10701TIP3    H153518   1.923   5.407   1.424 -0.1302 -0.3324 -0.7586
10701TIP3    H253519   1.927   5.297   1.528 -1.9049  1.5800  1.4170
10702TIP3   OH253520   2.951   5.509   3.285  0.0156  0.3742  0.2796
10702TIP3    H153521   2.866   5.542   3.316 -1.3798  0.3554 -3.0478
10702TIP3    H253522   3.000   5.588   3.263  0.1980  0.3598  0.6355
10703TIP3   OH253523   5.841   6.140  12.492 -0.2194  0.2117 -0.1568
10703TIP3    H153524   5.789   6.209  12.451 -1.2900 -2.0110 -2.8212
10703TIP3    H253525   5.918   6.130  12.435 -0.3830 -1.1657 -0.1728
10704TIP3   OH253526   1.642   1.385   1.047  0.2499  0.3556 -0.0965
10704TIP3    H153527   1.625   1.468   1.091  0.2943 -0.3840  1.3830
10704TIP3    H253528   1.573   1.378   0.981 -0.8376  0.7380  0.9803
10705TIP3   OH253529   4.157   1.696   5.657  0.6403  0.1182 -0.5167
10705TIP3    H153530   4.146   1.726   5.747 -1.9382 -0.6428 -0.4758
10705TIP3    H253531   4.189   1.607   5.665  0.2087 -0.0231 -0.3204
10706TIP3   OH253532   2.832   1.706  15.957 -0.4263  0.0032  1.3383
10706TIP3    H153533   2.829   1.754  15.874  3.4474  0.7507  1.4402
10706TIP3    H253534   2.843   1.774  16.023  1.6039 -0.7587  1.8555
10707TIP3   OH253535   0.618   3.127   0.502  0.2378 -0.0276 -0.5297
10707TIP3    H153536   0.549   3.094   0.559  1.4973 -1.0076  0.4967
10707TIP3    H253537   0.592   3.099   0.414 -0.3441 -0.9464 -0.0805
10708TIP3   OH253538   3.928   5.625   3.575  0.0334  0.1184  0.2843
10708TIP3    H153539   3.950   5.533   3.591 -0.2924 -0.0792 -0.3641
10708TIP3    H253540   3.942   5.637   3.481  2.1067  1.3003  0.6876
10709TIP3   OH253541   0.541   2.075   5.299 -0.3094 -0.1907  0.0730
10709TIP3    H153542   0.469   2.137   5.311 -0.1986  0.0307 -0.4056
10709TIP3    H253543   0.566   2.051   5.388 -1.3545 -0.7133  0.2406
10710TIP3   OH253544   1.335   1.075  16.372  0.1300 -0.3404 -0.3298
10710TIP3    H153545   1.409   1.020  16.394  0.0428 -0.0907  0.6439
10710TIP3    H253546   1.271   1.059  16.443  1.6931  4.0214  2.4997
10711TIP3   OH253547   4.721   6.238  16.350  0.0613 -0.0174  0.1314
10711TIP3    H153548   4.729   6.159  16.403  0.3559  0.0804  0.2353
10711TIP3    H253549   4.804   6.284  16.363  0.1198  0.0275 -0.3770
10712TIP3   OH253550   1.568   0.904  16.717 -0.1252 -0.5786  0.0738
10712TIP3    H153551   1.519   0.913  16.799  0.1400 -0.6715  0.2419
10712TIP3    H253552   1.640   0.845  16.738 -0.9093 -1.8221 -0.6227
10713TIP3   OH253553   0.148   2.566   1.722  0.3954 -0.2505  0.0949
10713TIP3    H153554   0.207   2.562   1.797  0.7578 -1.4024 -0.2277
10713TIP3    H253555   0.116   2.476   1.712  0.7104 -0.2232 -1.4063
10714TIP3   OH253556   4.382   2.472   1.575  0.3208 -0.5796  0.0199
10714TIP3    H153557   4.462   2.464   1.628  0.3894  2.2376  0.5294
10714TIP3    H253558   4.414   2.496   1.488  0.0925 -2.0263 -0.4752
10715TIP3   OH253559   4.509   6.719  17.020 -0.1809 -0.1493  0.1777
10715TIP3    H153560   4.505   6.667  16.939  0.9905  1.6957 -1.1629
10715TIP3    H253561   4.602   6.718  17.044 -0.1503  1.1930  0.1771
10716TIP3   OH253562   0.824   4.092   3.650 -0.1164 -0.2354  0.1220
10716TIP3    H153563   0.881   4.038   3.705 -0.1765 -0.8610 -0.4233
10716TIP3    H253564   0.883   4.156   3.611 -0.1925  0.7003  1.4933
10717TIP3   OH253565   5.110   5.425  16.635 -0.0756 -0.6886 -0.3011
10717TIP3    H153566   5.156   5.454  16.556  0.8165  1.0980  0.8048
10717TIP3    H253567   5.171   5.364  16.677 -0.4541 -1.4592 -0.8348
10718TIP3   OH253568   3.730   2.174  16.193 -0.0024  0.3081 -0.4078
10718TIP3    H153569   3.708   2.083  16.171  0.2345  0.4037 -1.0619
10718TIP3    H253570   3.653   2.208  16.237 -0.0417 -0.2539 -0.0398
10719TIP3   OH253571   1.036   1.730  10.226 -0.1100 -0.2873 -0.2900
10719TIP3    H153572   0.954   1.776  10.205 -0.4298 -1.1272 -0.8984
10719TIP3    H253573   1.010   1.663  10.289 -0.1122 -1.3261 -1.3706
10720TIP3   OH253574   1.354   5.086  14.813  0.0665  0.2302 -0.2176
10720TIP3    H153575   1.449   5.087  14.826  0.0129 -0.2225  0.2058
10720TIP3    H253576   1.319   5.050  14.894 -0.6203  2.4035  0.5113
10721TIP3   OH253577   0.828   3.733   0.982  0.2318 -0.2029 -0.0637
10721TIP3    H153578   0.889   3.806   0.995 -0.4855  1.0348 -2.8368
10721TIP3    H253579   0.879   3.668   0.933 -0.4737  0.6571 -2.0210
10722TIP3   OH253580   0.580   0.271   4.786  0.0137 -0.6089 -0.5614
10722TIP3    H153581   0.661   0.243   4.744 -0.4249  0.2761 -2.0648
10722TIP3    H253582   0.587   0.238   4.876  1.8598 -0.8663 -0.7613
10723TIP3   OH253583   3.312   1.044  12.885  0.1148  0.1629  0.1231
10723TIP3    H153584   3.289   0.956  12.915 -0.6071  0.8878  1.7956
10723TIP3    H253585   3.392   1.065  12.933  1.0645 -0.0611 -1.2851
10724TIP3   OH253586   3.388   1.713  15.206 -0.1641 -0.1069  0.7284
10724TIP3    H153587   3.452   1.651  15.171 -1.9679 -2.8368  1.9917
10724TIP3    H253588   3.395   1.789  15.148  1.5227 -1.7944 -1.4711
10725TIP3   OH253589   1.451   6.135  11.595 -0.2483  0.2493  0.4502
10725TIP3    H153590   1.517   6.099  11.656 -1.3128 -1.1075  0.8661
10725TIP3    H253591   1.494   6.209  11.554  2.2533 -1.6635 -0.6717
10726TIP3   OH253592   6.416   6.503   3.619  0.7768  0.0633 -0.1576
10726TIP3    H153593   6.397   6.549   3.538  0.0521 -1.3232 -0.8096
10726TIP3    H253594   6.503   6.465   3.606  0.6203 -0.2372 -0.3167
10727TIP3   OH253595   1.425   1.915  14.175 -0.0054  0.4422  0.3588
10727TIP3    H153596   1.347   1.967  14.154 -0.0639 -0.1791 -1.0899
10727TIP3    H253597   1.434   1.923  14.270 -1.5116  0.9846  0.4872
10728TIP3   OH253598   6.513   0.826  11.287 -0.0603 -0.0583 -1.1325
10728TIP3    H153599   6.539   0.880  11.213 -0.9875  2.0642  0.0167
10728TIP3    H253600   6.521   0.883  11.363  0.4145 -2.0340  0.3707
10729TIP3   OH253601   4.357   0.309  13.822 -0.1051 -0.0579 -0.0808
10729TIP3    H153602   4.409   0.265  13.756 -0.7011 -1.7968  0.5668
10729TIP3    H253603   4.388   0.273  13.905  3.1361  4.5440  1.1286
10730TIP3   OH253604   5.435   2.373   0.854  0.1899 -0.3176  0.2518
10730TIP3    H153605   5.499   2.364   0.783 -1.3997  1.1845 -1.4845
10730TIP3    H253606   5.485   2.413   0.926  2.5572 -4.4708  1.2244
10731TIP3   OH253607   6.246   3.578   3.238  0.0205  0.6217  0.2061
10731TIP3    H153608   6.335   3.576   3.203 -0.8884  1.5088 -2.3936
10731TIP3    H253609   6.215   3.488   3.232  0.8100  0.2432  1.4452
10732TIP3   OH253610   4.671   4.792   0.855 -0.3743  0.4604  0.4320
10732TIP3    H153611   4.743   4.855   0.862  2.6576 -2.8655  2.5994
10732TIP3    H253612   4.662   4.777   0.761  0.3696  2.3571  0.0024
10733TIP3   OH253613   5.173   4.430   2.162  0.1584 -0.2829 -0.0549
10733TIP3    H153614   5.129   4.449   2.245  0.1857  0.9134 -0.3021
10733TIP3    H253615   5.169   4.512   2.113  0.1837 -0.9586 -1.2287
10734TIP3   OH253616   6.204   6.354   1.380  0.1842 -0.1482 -0.4417
10734TIP3    H153617   6.131   6.385   1.326 -0.7904 -0.5491  0.5965
10734TIP3    H253618   6.164   6.334   1.465  2.0755  3.3589  1.5335
10735TIP3   OH253619   2.149   0.116   2.763  0.2678 -0.3980  0.2690
10735TIP3    H153620   2.080   0.179   2.785  0.6303 -0.3616  1.3561
10735TIP3    H253621   2.145   0.051   2.832  3.0099  0.9836  1.8762
10736TIP3   OH253622   3.154   6.359  13.909  0.3960 -0.4631  0.5905
10736TIP3    H153623   3.075   6.322  13.867  0.5167 -0.2192  0.1366
10736TIP3    H253624   3.140   6.345  14.002 -0.1997 -0.4139  0.5186
10737TIP3   OH253625   4.394   6.308   0.046  0.4051  0.2790 -0.4941
10737TIP3    H153626   4.337   6.272   0.114  1.2489 -0.7858 -0.3058
10737TIP3    H253627   4.378   6.252  -0.030  1.0329  0.0900 -0.4969
10738TIP3   OH253628   2.930   6.653   6.189  0.3758 -0.2251 -0.4108
10738TIP3    H153629   3.000   6.691   6.242 -0.5917  0.7587  0.1827
10738TIP3    H253630   2.895   6.727   6.139  1.4372 -1.1476 -2.6798
10739TIP3   OH253631   4.294   4.681   4.936  0.3678 -0.2848  0.4695
10739TIP3    H153632   4.342   4.759   4.909 -3.1729  1.9742  0.1473
10739TIP3    H253633   4.334   4.610   4.885  1.2197  1.9492 -2.2113
10740TIP3   OH253634   3.628   3.034   4.162  0.0700 -0.1432 -0.5322
10740TIP3    H153635   3.596   2.977   4.092 -0.1691  0.8411 -1.2533
10740TIP3    H253636   3.681   2.977   4.217  0.0895 -0.9940 -1.4008
10741TIP3   OH253637   5.580   2.955  15.770  0.3880 -0.3007  0.3374
10741TIP3    H153638   5.498   2.999  15.792  2.1320  2.5574  1.6844
10741TIP3    H253639   5.598   2.897  15.844  0.8209  1.0663  1.3460
10742TIP3   OH253640   2.651   2.766  14.207 -0.4582  0.3616  0.7067
10742TIP3    H153641   2.681   2.824  14.137 -2.6057  0.5635 -0.1197
10742TIP3    H253642   2.582   2.816  14.251 -1.7007 -1.1662  0.5814
10743TIP3   OH253643   5.180   5.947  13.545  0.3493  0.0330 -0.0934
10743TIP3    H153644   5.138   6.021  13.590  0.0742  0.4939 -1.0863
10743TIP3    H253645   5.208   5.982  13.461  0.3419 -0.9599 -0.5257
10744TIP3   OH253646   4.392   5.132  14.663  0.6566  0.1215  0.2144
10744TIP3    H153647   4.314   5.077  14.656  0.1045  1.1029 -2.3006
10744TIP3    H253648   4.360   5.214  14.700  0.4825  0.4925 -0.7339
10745TIP3   OH253649   4.507   5.398  12.517  0.5952 -0.2207  0.2272
10745TIP3    H153650   4.432   5.347  12.487  1.2505  0.0036 -1.9401
10745TIP3    H253651   4.561   5.335  12.565  0.0454 -0.8776  0.0032
10746TIP3   OH253652   2.689   2.141   5.793 -0.4549 -0.1163 -0.4837
10746TIP3    H153653   2.698   2.189   5.876  2.5792 -1.2593  0.0008
10746TIP3    H253654   2.725   2.200   5.728  1.1116 -0.7551 -0.2490
10747TIP3   OH253655   0.194   2.352  15.371  0.1892  0.0687 -0.3080
10747TIP3    H153656   0.209   2.344  15.277 -1.7094 -0.7580 -0.5976
10747TIP3    H253657   0.153   2.269  15.396  0.1744  0.4848  1.1347
10748TIP3   OH253658   6.004   5.788  16.794  0.1462 -0.4859 -0.5148
10748TIP3    H153659   6.088   5.832  16.782 -0.7605  0.6585 -3.7209
10748TIP3    H253660   5.940   5.859  16.798 -0.8907 -1.4014 -0.1842
10749TIP3   OH253661   4.319   5.576  11.916  0.9726  0.2929  0.1022
10749TIP3    H153662   4.347   5.497  11.871 -0.7229 -0.3558  0.0946
10749TIP3    H253663   4.228   5.559  11.940  1.2021  1.3905  2.0146
10750TIP3   OH253664   1.686   4.959  14.210  0.0207 -0.4105 -0.1130
10750TIP3    H153665   1.730   4.970  14.126  1.3188  0.0865  0.5896
10750TIP3    H253666   1.749   4.909  14.262 -0.1904  0.4139  0.9679
10751TIP3   OH253667   1.225   4.957   0.479  0.9058 -0.3874  0.7813
10751TIP3    H153668   1.151   4.898   0.497  0.4443  0.0922  0.4704
10751TIP3    H253669   1.188   5.045   0.489  1.1107 -0.1230 -0.6268
10752TIP3   OH253670   3.355   6.424  13.177 -0.3438  0.0835  0.2969
10752TIP3    H153671   3.375   6.330  13.178 -1.4305 -0.2023  2.2479
10752TIP3    H253672   3.432   6.465  13.216  0.0004 -0.0237 -0.2590
10753TIP3   OH253673   1.329   1.651  13.969 -0.5361  0.7610  0.2691
10753TIP3    H153674   1.316   1.649  13.874 -2.0501  0.9411  0.4401
10753TIP3    H253675   1.381   1.730  13.985 -0.5358  0.8989 -0.3837
10754TIP3   OH253676   3.099   3.550  11.433 -0.1052 -0.4260  1.0058
10754TIP3    H153677   3.103   3.589  11.520  1.4268 -0.1029  0.8237
10754TIP3    H253678   3.041   3.474  11.442 -1.0165  0.3625  1.9761
10755TIP3   OH253679   5.726   0.006  14.005 -0.3616  0.2752 -0.3317
10755TIP3    H153680   5.778  -0.020  13.930  1.5554 -0.7138  1.2424
10755TIP3    H253681   5.734   0.102  14.008 -0.2255  0.2986 -1.1776
10756TIP3   OH253682   2.879   3.449  15.672  0.5158 -0.4526 -0.3740
10756TIP3    H153683   2.865   3.541  15.695 -0.4277 -0.8029  0.4902
10756TIP3    H253684   2.820   3.434  15.598  1.3625 -0.1333 -1.1435
10757TIP3   OH253685   1.402   3.116   2.047  0.2281 -0.4213 -0.5893
10757TIP3    H153686   1.374   3.059   2.119 -3.8257 -0.1944 -1.7360
10757TIP3    H253687   1.404   3.058   1.970  0.3129  0.1572 -1.0294
10758TIP3   OH253688   3.414   2.645  14.411  0.1473  0.3159  0.2781
10758TIP3    H153689   3.356   2.716  14.384  0.7597 -0.1161 -2.3829
10758TIP3    H253690   3.491   2.691  14.446  0.8805  1.0902 -2.1435
10759TIP3   OH253691   1.203   5.261  16.582 -0.3163 -0.5498  0.4551
10759TIP3    H153692   1.110   5.258  16.559  0.2052 -1.7223 -1.7988
10759TIP3    H253693   1.248   5.273  16.499  1.6045 -0.5763  1.4311
10760TIP3   OH253694   0.517   0.518   6.011  0.2495 -0.6108 -0.3485
10760TIP3    H153695   0.580   0.589   5.997  1.6256 -1.6647  0.3366
10760TIP3    H253696   0.540   0.452   5.946 -0.3755 -0.8638 -0.3163
10761TIP3   OH253697   4.401   0.184  15.956  0.4304 -0.0051 -0.1876
10761TIP3    H153698   4.310   0.166  15.978  0.4858  0.3122  0.3428
10761TIP3    H253699   4.399   0.266  15.907  0.2854 -0.8364 -1.5942
10762TIP3   OH253700   6.047   5.624   3.727  0.4247  0.1111  0.0820
10762TIP3    H153701   5.986   5.654   3.660  1.2847 -1.1181 -1.3130
10762TIP3    H253702   5.995   5.622   3.808 -1.5213 -1.2311 -1.1208
10763TIP3   OH253703   1.654   0.844  13.315  0.3465 -0.1683 -0.3090
10763TIP3    H153704   1.598   0.842  13.238 -2.0061 -1.4764  1.3235
10763TIP3    H253705   1.641   0.759  13.356  0.9689  0.7471  1.9144
10764TIP3   OH253706   1.136   4.756  12.559  0.2446  0.7782 -0.4063
10764TIP3    H153707   1.230   4.738  12.548  0.5037  1.1332  1.0662
10764TIP3    H253708   1.130   4.851  12.564 -0.3961  0.8452 -1.9952
10765TIP3   OH253709   2.155   0.154  13.205 -0.2083 -0.5874 -0.4118
10765TIP3    H153710   2.159   0.240  13.163 -0.2489 -1.4968 -2.4010
10765TIP3    H253711   2.069   0.152  13.246  0.0560  0.5582  0.2411
10766TIP3   OH253712   3.891   4.602  16.082  0.5463 -0.6260  0.1539
10766TIP3    H153713   3.913   4.519  16.124 -0.2744 -2.3459 -2.5418
10766TIP3    H253714   3.795   4.602  16.076  0.2778  1.8857  2.5163
10767TIP3   OH253715   4.862   0.252  11.779 -0.1410 -0.2759 -0.1543
10767TIP3    H153716   4.913   0.171  11.775  1.5264  0.6811  0.4820
10767TIP3    H253717   4.831   0.266  11.689 -1.8412 -2.4100  0.0347
10768TIP3   OH253718   0.280   5.215   5.078  0.6034 -0.2307  0.1608
10768TIP3    H153719   0.276   5.167   5.160 -0.1322 -0.4119  0.0345
10768TIP3    H253720   0.189   5.217   5.047  0.7716  0.3902 -0.3268
10769TIP3   OH253721   2.410   0.265   3.720  0.0605  0.4932  0.3328
10769TIP3    H153722   2.338   0.251   3.658  0.8410 -1.9315 -0.1297
10769TIP3    H253723   2.378   0.334   3.779 -1.4994  1.4529 -1.5090
10770TIP3   OH253724   2.573   1.349   0.823  0.7511  0.8570 -0.4179
10770TIP3    H153725   2.518   1.422   0.795 -1.5400  0.2827  2.1040
10770TIP3    H253726   2.524   1.270   0.799  1.3365  0.2564  0.2861
10771TIP3   OH253727   6.126   4.614  12.293  0.0941 -0.4812 -0.4827
10771TIP3    H153728   6.098   4.597  12.203  2.6745 -2.3407 -1.0540
10771TIP3    H253729   6.215   4.578  12.298  0.5713  0.7806  2.4524
10772TIP3   OH253730   3.915   2.390   0.486  0.7212  0.1006 -0.1283
10772TIP3    H153731   3.857   2.313   0.488  1.0749 -0.3357 -3.0545
10772TIP3    H253732   3.922   2.416   0.578 -2.1516 -1.2838  0.6141
10773TIP3   OH253733   0.262   4.595   3.421  0.0911 -0.5824 -0.6931
10773TIP3    H153734   0.293   4.674   3.376  2.0118 -0.1857  1.1726
10773TIP3    H253735   0.321   4.526   3.390  0.0164 -0.7708 -0.4151
10774TIP3   OH253736   1.720   2.281   3.858 -0.2182  0.2187 -0.2374
10774TIP3    H153737   1.781   2.352   3.879 -1.4214  1.0475  0.5937
10774TIP3    H253738   1.706   2.237   3.942 -0.7553  0.0288 -0.4281
10775TIP3   OH253739   0.206   1.017   1.664  0.4632 -0.0070 -0.1134
10775TIP3    H153740   0.159   0.934   1.664  0.3582 -0.0358  2.2193
10775TIP3    H253741   0.156   1.074   1.723  3.1021  0.0057  2.3893
10776TIP3   OH253742   6.579   4.704  14.343 -0.1338 -0.0311  0.4891
10776TIP3    H153743   6.504   4.652  14.313  1.1547 -0.4196 -2.3601
10776TIP3    H253744   6.654   4.646  14.335  0.8331  1.1211  0.8402
10777TIP3   OH253745   2.023   3.459   2.398 -0.1790 -0.0798  0.1250
10777TIP3    H153746   1.999   3.546   2.430  1.1801 -0.4964  2.5714
10777TIP3    H253747   1.940   3.417   2.378 -0.9257  1.3917 -0.0293
10778TIP3   OH253748   0.697   4.706  16.734  0.2879  0.3318 -0.3500
10778TIP3    H153749   0.644   4.767  16.682 -1.7246 -0.0360  1.1427
10778TIP3    H253750   0.679   4.620  16.696  0.6461  0.3183 -0.4914
10779TIP3   OH253751   3.176   1.866  11.104  0.4007  0.0885 -0.1855
10779TIP3    H153752   3.143   1.804  11.169  0.8639 -0.1703 -0.1939
10779TIP3    H253753   3.246   1.913  11.149 -0.0655  0.7351 -0.1214
10780TIP3   OH253754   2.987   1.516  15.385 -0.0804 -0.4725  0.3898
10780TIP3    H153755   2.927   1.572  15.434 -1.6247 -1.9887  0.3229
10780TIP3    H253756   3.043   1.477  15.452  2.1777  2.3510  0.2997
10781TIP3   OH253757   6.615   6.437  13.227  0.6418  0.1944  0.3022
10781TIP3    H153758   6.574   6.478  13.151  1.0273  0.0967  0.0374
10781TIP3    H253759   6.662   6.508  13.270 -0.2869  0.4366  0.9489
10782TIP3   OH253760   1.466   2.598  12.892 -0.1977 -0.5927 -0.2144
10782TIP3    H153761   1.515   2.524  12.928  1.7874  0.4853 -0.5887
10782TIP3    H253762   1.470   2.586  12.797 -2.7883 -1.7576 -0.2738
10783TIP3   OH253763   0.330   2.469   4.847  0.3998 -0.4702 -0.0557
10783TIP3    H153764   0.277   2.390   4.844  1.1756 -1.0056  0.0815
10783TIP3    H253765   0.408   2.448   4.795 -0.0044  0.6882 -1.2027
10784TIP3   OH253766   5.685   5.601  11.698 -0.4709  0.0591 -0.0839
10784TIP3    H153767   5.651   5.553  11.773  0.0685 -0.4981 -0.1937
10784TIP3    H253768   5.729   5.536  11.645  0.2988  0.6735 -0.2226
10785TIP3   OH253769   1.211   0.678   4.736 -0.4911 -0.1259 -0.3848
10785TIP3    H153770   1.267   0.726   4.798  0.7060 -0.6712 -1.0187
10785TIP3    H253771   1.225   0.586   4.757  0.9255 -0.4050 -2.2158
10786TIP3   OH253772   6.174   1.152  13.454 -0.5319 -0.0863  0.1490
10786TIP3    H153773   6.147   1.117  13.539  0.1324 -0.5981  0.1535
10786TIP3    H253774   6.259   1.192  13.471 -1.6780  2.4401  0.3698
10787TIP3   OH253775   3.528   3.017   6.485 -0.0415  0.3480 -0.5549
10787TIP3    H153776   3.607   2.968   6.461 -0.0958  0.3778 -0.7918
10787TIP3    H253777   3.529   3.018   6.581 -0.5805 -0.9937 -0.5118
10788TIP3   OH253778   6.056   4.947   3.914 -0.4414 -0.9046  0.0701
10788TIP3    H153779   6.104   4.865   3.931 -0.5905 -0.8485  0.7741
10788TIP3    H253780   6.076   5.002   3.989  0.0865 -0.0762 -0.6570
10789TIP3   OH253781   0.418   3.161  15.303 -0.4993 -0.3397  0.3310
10789TIP3    H153782   0.366   3.167  15.223 -0.2715 -0.3603  0.1790
10789TIP3    H253783   0.508   3.148  15.272 -0.4496 -0.6362  0.5966
10790TIP3   OH253784   0.953   2.069   1.966 -0.4824 -0.4959 -0.6014
10790TIP3    H153785   0.956   2.163   1.951  1.2533 -0.3030  0.6468
10790TIP3    H253786   0.886   2.058   2.034  0.4244  0.0620  0.4193
10791TIP3   OH253787   4.525   2.244  14.221 -0.2467  0.2468 -0.4297
10791TIP3    H153788   4.573   2.221  14.141  1.0755  0.6031  0.2403
10791TIP3    H253789   4.574   2.317  14.258  0.3013 -1.1125  1.7033
10792TIP3   OH253790   5.437   3.850  10.471 -0.1428  0.1297  0.3427
10792TIP3    H153791   5.428   3.821  10.380 -0.6977 -1.6835  0.9307
10792TIP3    H253792   5.530   3.874  10.479 -0.1455  0.5609 -0.7573
10793TIP3   OH253793   2.025   4.617   3.766  0.2402 -0.7492 -0.0186
10793TIP3    H153794   2.038   4.708   3.740 -1.4372 -0.2698  0.6758
10793TIP3    H253795   2.091   4.602   3.834  2.4160 -0.9793 -2.0822
10794TIP3   OH253796   6.063   2.698   5.001 -0.1102 -0.3579  0.2601
10794TIP3    H153797   5.990   2.689   5.063 -1.5450 -1.9202 -1.5646
10794TIP3    H253798   6.120   2.763   5.043 -2.0274  0.2178  2.2320
10795TIP3   OH253799   6.543   0.727   0.993  0.3302 -0.6658 -0.4470
10795TIP3    H153800   6.552   0.815   0.954  0.1982 -0.9161 -1.0508
10795TIP3    H253801   6.526   0.670   0.919 -0.2634 -1.1061  0.0199
10796TIP3   OH253802   3.563   4.994  16.544  0.3213  0.3310 -0.1020
10796TIP3    H153803   3.543   5.066  16.604  0.0509  1.1591 -1.1603
10796TIP3    H253804   3.546   4.915  16.595 -3.8691  0.9178 -0.2604
10797TIP3   OH253805   5.953   5.711   1.230  0.0210 -0.3300  0.7893
10797TIP3    H153806   5.964   5.653   1.155  1.7541  0.3689  0.4478
10797TIP3    H253807   6.019   5.682   1.293 -1.2618 -0.7649  2.0028
10798TIP3   OH253808   4.407   2.008   4.861 -0.4479 -0.0287  0.0295
10798TIP3    H153809   4.386   2.012   4.768 -0.6965  1.7165  0.1245
10798TIP3    H253810   4.352   2.075   4.901  1.4433  1.0125  1.0528
10799TIP3   OH253811   3.575   4.008   1.474  0.1163 -0.3846 -0.0716
10799TIP3    H153812   3.503   3.980   1.530 -0.8957 -0.4284 -1.3460
10799TIP3    H253813   3.602   3.928   1.428  0.2867 -0.1710 -0.3512
10800TIP3   OH253814   3.689   4.917  12.845 -0.1124 -0.0417  0.4019
10800TIP3    H153815   3.595   4.905  12.833 -0.1577  0.5381  0.1674
10800TIP3    H253816   3.727   4.907  12.758  0.0037  0.0905  0.4358
10801TIP3   OH253817   6.174   1.094  15.752  0.3044  0.2733  0.6645
10801TIP3    H153818   6.149   1.042  15.829 -1.8654  0.3416  0.0590
10801TIP3    H253819   6.091   1.116  15.710  1.3042  2.2575 -0.4055
10802TIP3   OH253820   2.404   0.724  16.422 -0.1476  0.2536  0.1734
10802TIP3    H153821   2.452   0.795  16.379 -1.4896  0.4781 -1.0592
10802TIP3    H253822   2.442   0.644  16.386 -0.3762  0.4148 -0.4339
10803TIP3   OH253823   5.932   4.316   5.073  0.0880 -0.5881  0.7179
10803TIP3    H153824   5.932   4.381   5.143  0.5788  1.0189 -0.6764
10803TIP3    H253825   6.016   4.330   5.028 -0.5557 -0.9762 -0.6634
10804TIP3   OH253826   4.765   0.382  13.310  0.1856 -0.3868 -0.0470
10804TIP3    H153827   4.676   0.348  13.299  0.2233 -0.4302 -0.2376
10804TIP3    H253828   4.771   0.452  13.246  0.2173 -0.2406  0.1171
10805TIP3   OH253829   5.911   1.016   4.619 -0.0824  0.0568 -0.2332
10805TIP3    H153830   5.960   0.939   4.647 -1.6960 -0.4625  1.3757
10805TIP3    H253831   5.908   1.009   4.523  0.7275 -1.2731 -0.1800
10806TIP3   OH253832   2.978   1.455  11.213 -0.3936  0.0861 -0.5653
10806TIP3    H153833   3.031   1.376  11.226 -1.5600 -0.6289  0.0337
10806TIP3    H253834   2.995   1.482  11.123  1.6104  0.3702 -0.1450
10807TIP3   OH253835   4.088   2.930   2.354  0.4692 -0.1863  0.2419
10807TIP3    H153836   4.033   2.933   2.275  3.0608  0.8099 -1.6689
10807TIP3    H253837   4.052   2.857   2.405 -1.9468 -0.2198 -1.3440
10808TIP3   OH253838   2.810   2.288   5.193 -0.1834 -0.2209  0.1970
10808TIP3    H153839   2.716   2.292   5.210  0.0338  0.4288  1.2663
10808TIP3    H253840   2.843   2.226   5.257  0.2501  0.2255  0.4041
10809TIP3   OH253841   2.261   1.569  12.666  0.1268  0.4016  0.0291
10809TIP3    H153842   2.250   1.631  12.594 -1.7761 -0.8462 -0.8340
10809TIP3    H253843   2.331   1.511  12.637  1.1490  1.4279  0.3586
10810TIP3   OH253844   3.676   3.496   1.871 -0.0987  0.0946 -0.4899
10810TIP3    H153845   3.610   3.433   1.900 -0.3025 -0.2502 -1.6361
10810TIP3    H253846   3.627   3.578   1.860  0.0533  0.3202  0.4615
10811TIP3   OH253847   5.994   6.304  16.117 -0.2251 -0.2804  0.9263
10811TIP3    H153848   5.917   6.248  16.127  0.6078 -1.5883  0.2405
10811TIP3    H253849   6.010   6.339  16.205 -0.6901 -1.2197  1.3939
10812TIP3   OH253850   4.713   3.324   6.380  0.4758 -0.3314 -0.0028
10812TIP3    H153851   4.665   3.401   6.411  1.6383 -0.5564  2.5483
10812TIP3    H253852   4.683   3.253   6.436 -0.9337 -1.9668 -2.6263
10813TIP3   OH253853   2.306   5.570  12.208  0.3797 -0.0462  0.2563
10813TIP3    H153854   2.212   5.578  12.224  0.6915  1.5652  1.5669
10813TIP3    H253855   2.314   5.558  12.113 -1.0852  0.9299 -0.0152
10814TIP3   OH253856   1.891   4.838   5.422  0.3513  0.0788  0.3903
10814TIP3    H153857   1.962   4.862   5.483  1.0356  1.0368 -0.7508
10814TIP3    H253858   1.864   4.751   5.452  0.5627  0.5636  2.1471
10815TIP3   OH253859   5.738   2.602  16.581 -0.2430  0.1940 -0.0982
10815TIP3    H153860   5.685   2.531  16.544 -0.0956  0.8166 -1.6018
10815TIP3    H253861   5.675   2.671  16.601 -0.2960 -0.0606  0.6227
10816TIP3   OH253862   3.748   4.117   4.955  0.6032  0.1965 -0.4182
10816TIP3    H153863   3.791   4.036   4.984 -0.4910 -0.3112 -0.1469
10816TIP3    H253864   3.656   4.092   4.943  0.1379  1.5094  0.1675
10817TIP3   OH253865   5.129   4.283   5.208 -0.9308  0.1078 -0.9343
10817TIP3    H153866   5.191   4.355   5.222 -0.1536 -0.4896 -1.2655
10817TIP3    H253867   5.043   4.324   5.217 -0.4987  0.8697 -0.0408
10818TIP3   OH253868   3.985   0.663  15.237  0.0262 -0.2795  0.4015
10818TIP3    H153869   3.963   0.589  15.181 -1.4740  0.1837  0.3279
10818TIP3    H253870   3.904   0.714  15.242  0.9582  1.2625  0.5974
10819TIP3   OH253871   4.822   1.166   4.694 -0.1757  0.1451  0.0441
10819TIP3    H153872   4.749   1.179   4.634 -0.7623  0.6294  0.8346
10819TIP3    H253873   4.876   1.244   4.683 -1.1033  1.0018  1.2314
10820TIP3   OH253874   2.021   3.664   3.554  0.3007 -0.0735 -0.0070
10820TIP3    H153875   1.954   3.599   3.576 -0.4806  1.0622  1.0904
10820TIP3    H253876   1.975   3.748   3.554  1.6261  0.6903  0.3327
10821TIP3   OH253877   5.406   0.110   6.426  0.2786 -0.5455 -0.2802
10821TIP3    H153878   5.321   0.098   6.383  0.1343 -0.0587 -0.1461
10821TIP3    H253879   5.470   0.078   6.363  0.0242 -0.4443 -0.5928
10822TIP3   OH253880   3.707   1.031  14.739 -0.0192 -0.2003  0.8245
10822TIP3    H153881   3.797   1.015  14.769  0.2910  0.2568  0.1730
10822TIP3    H253882   3.680   1.110  14.787  0.6123  0.7521 -0.3270
10823TIP3   OH253883   6.262   2.211   1.509 -0.0919  0.1364 -0.3772
10823TIP3    H153884   6.180   2.243   1.470  0.9239  1.3062 -1.6605
10823TIP3    H253885   6.236   2.133   1.558 -1.7578 -0.3562 -1.9274
10824TIP3   OH253886   0.475   5.380  13.439  0.1990  0.0748 -0.3702
10824TIP3    H153887   0.483   5.356  13.531 -1.3083  1.0968  0.0708
10824TIP3    H253888   0.565   5.389  13.408  0.7767 -2.5612  0.3476
10825TIP3   OH253889   0.092   1.703  12.959 -0.3580  0.3490  0.2615
10825TIP3    H153890   0.155   1.766  12.925 -0.8054  0.1430 -0.9996
10825TIP3    H253891   0.067   1.650  12.884  0.2663 -1.5896  1.3396
10826TIP3   OH253892   0.429   5.909   0.159 -0.1416  0.0982 -0.4275
10826TIP3    H153893   0.350   5.958   0.184  0.4383  1.4268 -1.1431
10826TIP3    H253894   0.397   5.843   0.097 -0.8278 -0.0022  0.0161
10827TIP3   OH253895   2.293   4.481  14.058  0.0833 -0.0206  0.9126
10827TIP3    H153896   2.238   4.404  14.076 -0.3746 -0.6338 -2.4079
10827TIP3    H253897   2.236   4.555  14.076 -1.7550 -0.6402 -1.8287
10828TIP3   OH253898   2.172   1.487   5.857  0.0238  0.0899  0.0082
10828TIP3    H153899   2.080   1.512   5.857 -0.0160 -0.0537 -0.1855
10828TIP3    H253900   2.191   1.465   5.765  0.1081 -0.4139  0.1459
10829TIP3   OH253901   4.812   0.535   0.538 -0.4451 -0.1997 -0.4103
10829TIP3    H153902   4.724   0.498   0.534 -0.1429 -0.9021 -0.7487
10829TIP3    H253903   4.868   0.461   0.562 -0.2234  0.6791  2.1243
10830TIP3   OH253904   4.114   5.057   1.375  0.2814  0.0240  0.1053
10830TIP3    H153905   4.101   4.987   1.438  0.8953  0.6030  0.8953
10830TIP3    H253906   4.081   5.136   1.419  0.6440  0.4222 -0.3190
10831TIP3   OH253907   5.632   0.221   0.338 -0.0916  0.0156 -0.5695
10831TIP3    H153908   5.676   0.291   0.291  0.0969 -0.3935 -1.0162
10831TIP3    H253909   5.625   0.150   0.273  1.0265 -0.9105  0.2756
10832TIP3   OH253910   5.035   3.834   0.446  0.1203  0.3692 -0.1716
10832TIP3    H153911   4.978   3.775   0.496 -0.1030 -0.7730 -1.6883
10832TIP3    H253912   5.118   3.788   0.440  0.9138  1.5772  1.1613
10833TIP3   OH253913   5.114   1.602   5.591 -0.6017 -0.3619  0.1822
10833TIP3    H153914   5.186   1.662   5.573 -1.3138  1.0409  1.8129
10833TIP3    H253915   5.035   1.651   5.568 -1.1294 -2.5961 -3.6833
10834TIP3   OH253916   0.723   6.188   3.583  0.0323  0.1561 -0.4902
10834TIP3    H153917   0.640   6.214   3.625 -0.1353 -1.6216  0.3812
10834TIP3    H253918   0.696   6.142   3.504  0.2331  0.6077 -0.8209
10835TIP3   OH253919   2.581   3.440  13.133  0.0977 -0.5234  0.1399
10835TIP3    H153920   2.597   3.401  13.219  1.0569 -1.1200 -0.2897
10835TIP3    H253921   2.568   3.533  13.151 -1.4198 -0.8933  1.0955
10836TIP3   OH253922   4.630   3.737  11.364  0.0042 -0.3044 -0.7803
10836TIP3    H153923   4.612   3.827  11.389  0.4563  0.1177 -1.9338
10836TIP3    H253924   4.594   3.729  11.276 -0.1064 -1.2808 -0.6590
10837TIP3   OH253925   0.967   2.226   3.780  0.0862  0.2023 -0.1150
10837TIP3    H153926   1.055   2.262   3.773  0.3282 -0.3722 -0.0654
10837TIP3    H253927   0.944   2.234   3.872 -1.1680  3.2435 -0.5817
10838TIP3   OH253928   5.503   6.374   0.470  0.4332 -0.1535  0.4522
10838TIP3    H153929   5.413   6.373   0.503  0.3400  1.9183  0.3786
10838TIP3    H253930   5.540   6.456   0.502  1.3824  0.4081 -1.8258
10839TIP3   OH253931   5.158   0.701   0.001 -0.4165 -0.1466 -1.0357
10839TIP3    H153932   5.142   0.648   0.079  1.5710  0.2510 -0.3019
10839TIP3    H253933   5.112   0.656  -0.069 -3.3260  0.1283  0.5341
10840TIP3   OH253934   2.103   5.262  12.242  0.1443 -0.0702 -0.6161
10840TIP3    H153935   2.051   5.188  12.273  0.2356  0.4350  0.8479
10840TIP3    H253936   2.194   5.237  12.256  0.1699  1.4146  2.9029
10841TIP3   OH253937   0.201   3.520  14.864 -0.5264  0.1365  0.5101
10841TIP3    H153938   0.237   3.566  14.940 -2.2914 -1.1897  2.2697
10841TIP3    H253939   0.224   3.575  14.789  3.8498  0.0907  1.5495
10842TIP3   OH253940   6.584   4.114  11.809  0.5952  0.4092  0.0254
10842TIP3    H153941   6.575   4.204  11.841 -0.1518  0.8021 -1.2320
10842TIP3    H253942   6.571   4.060  11.887 -0.4502  1.3577  0.5339
10843TIP3   OH253943   6.137   1.447   1.657  0.4615  0.0374  0.7059
10843TIP3    H153944   6.075   1.385   1.696 -0.3660 -0.8795 -1.8611
10843TIP3    H253945   6.222   1.420   1.689 -0.1300 -0.9557  1.4827
10844TIP3   OH253946   4.819   2.658   5.334  0.1732  0.6046  0.2824
10844TIP3    H153947   4.800   2.684   5.243  0.2083  2.1452  0.6843
10844TIP3    H253948   4.902   2.702   5.354 -0.3216  1.0659  1.3654
10845TIP3   OH253949   0.304   2.235   1.973 -0.4465  0.3753  0.2740
10845TIP3    H153950   0.322   2.141   1.964  1.3757  0.7353 -0.3651
10845TIP3    H253951   0.260   2.243   2.058  2.4528 -0.7484  2.0344
10846TIP3   OH253952   0.814   2.124  13.229 -1.0222  0.6467 -0.8994
10846TIP3    H153953   0.730   2.078  13.229 -0.0565 -1.2211 -1.9776
10846TIP3    H253954   0.879   2.057  13.209  1.0426  1.5948  1.9597
10847TIP3   OH253955   4.578   1.824  15.787 -0.5732 -0.3667  0.0410
10847TIP3    H153956   4.600   1.734  15.762 -1.1783 -1.2448  2.4519
10847TIP3    H253957   4.557   1.867  15.704  1.1578 -2.0037 -1.3401
10848TIP3   OH253958   5.528   5.690   4.031 -0.0391  0.1996  0.0927
10848TIP3    H153959   5.602   5.708   4.088 -0.8160  1.5117  0.7248
10848TIP3    H253960   5.557   5.720   3.944  0.5153 -0.2137  0.1280
10849TIP3   OH253961   6.157   4.920   3.641 -0.2535 -0.3047  0.3603
10849TIP3    H153962   6.231   4.860   3.654 -0.9772 -1.0846  0.9889
10849TIP3    H253963   6.118   4.930   3.728 -0.8102  0.2007  0.0594
10850TIP3   OH253964   5.047   4.573  15.998 -0.4939 -0.2055  0.7116
10850TIP3    H153965   4.967   4.594  15.950  0.6060 -0.6853 -1.4346
10850TIP3    H253966   5.118   4.594  15.938  0.9112 -2.5028  1.4364
10851TIP3   OH253967   5.809   1.150  16.750 -0.0257  0.1054  0.1764
10851TIP3    H153968   5.800   1.151  16.845  0.8368 -1.3224  0.3048
10851TIP3    H253969   5.784   1.061  16.725  2.2495 -0.3755 -0.6235
10852TIP3   OH253970   3.604   3.526  15.231 -0.6745  0.3677 -0.0065
10852TIP3    H153971   3.551   3.494  15.159  0.2498 -1.7070  0.1732
10852TIP3    H253972   3.684   3.559  15.190  0.4692 -2.0974  0.0607
10853TIP3   OH253973   6.440   0.612   4.295 -0.1636  0.0746 -0.2792
10853TIP3    H153974   6.430   0.700   4.257  0.6330  1.0239  1.5880
10853TIP3    H253975   6.505   0.569   4.239 -0.4333  0.7141 -1.1120
10854TIP3   OH253976   4.507   5.784  15.739  0.8154 -0.4191  0.2111
10854TIP3    H153977   4.413   5.789  15.757  0.9295 -1.6106  1.2495
10854TIP3    H253978   4.513   5.778  15.644 -0.1412 -0.1596  0.1225
10855TIP3   OH253979   3.688   1.648   5.429 -0.2864  0.3906 -0.0995
10855TIP3    H153980   3.687   1.664   5.524 -2.0453 -0.8868  0.1440
10855TIP3    H253981   3.672   1.734   5.391 -0.0177  0.8433  0.7690
10856TIP3   OH253982   1.250   5.728   2.899 -0.2900  0.7566  0.2008
10856TIP3    H153983   1.205   5.663   2.844  0.2701  0.3055  0.2681
10856TIP3    H253984   1.194   5.806   2.894 -0.0803  0.8438 -1.2927
10857TIP3   OH253985   4.667   0.517   0.131 -0.5208  0.0269  0.1091
10857TIP3    H153986   4.747   0.526   0.183 -0.5190 -0.3786  0.1755
10857TIP3    H253987   4.697   0.518   0.040 -0.5536  1.0604  0.0972
10858TIP3   OH253988   2.185   1.879  13.653 -0.6765 -0.2729 -0.2282
10858TIP3    H153989   2.171   1.844  13.741 -0.7845  0.9266  0.2470
10858TIP3    H253990   2.242   1.955  13.666 -0.6257 -0.1342 -1.2037
10859TIP3   OH253991   2.213   3.463   4.225  0.3410 -0.4505 -0.2714
10859TIP3    H153992   2.219   3.487   4.132  0.1982 -0.6009 -0.3195
10859TIP3    H253993   2.119   3.458   4.243  0.3259  1.0906  0.2763
10860TIP3   OH253994   6.702   5.105  13.460  0.3141  0.1053  0.3772
10860TIP3    H153995   6.684   5.156  13.539 -0.8863  2.1872 -1.1238
10860TIP3    H253996   6.658   5.021  13.474 -1.0492  0.9485  1.4097
10861TIP3   OH253997   2.945   2.115   5.367  0.5954 -0.0174  0.3673
10861TIP3    H153998   3.032   2.155   5.377  0.7665 -0.4416  0.6146
10861TIP3    H253999   2.907   2.120   5.455  0.0215  0.9453  0.0775
10862TIP3   OH254000   1.017   0.634   2.768 -0.3514  0.2602 -0.7316
10862TIP3    H154001   1.099   0.605   2.809 -0.0191  1.0019 -0.8550
10862TIP3    H254002   1.030   0.727   2.752 -1.6135  0.6129  0.1529
10863TIP3   OH254003   4.885   3.520  13.578 -0.2324 -0.1770 -0.0736
10863TIP3    H154004   4.908   3.578  13.506 -0.1363 -0.1799 -0.0450
10863TIP3    H254005   4.856   3.579  13.648  0.9237 -0.0926  0.3537
10864TIP3   OH254006   1.409   4.359  12.371 -0.2658 -0.5076 -0.0963
10864TIP3    H154007   1.383   4.395  12.286 -0.0865 -1.8400 -0.7458
10864TIP3    H254008   1.482   4.301  12.351 -0.5607 -1.2570  0.8991
10865TIP3   OH254009   5.990   2.309   1.445 -0.1450 -0.2243  0.5279
10865TIP3    H154010   5.944   2.354   1.375  1.6397  0.7073 -0.1224
10865TIP3    H254011   5.964   2.356   1.525 -0.7413 -0.0786  0.2488
10866TIP3   OH254012   2.495   1.813  12.529 -0.0294  0.5291 -0.2600
10866TIP3    H154013   2.426   1.836  12.467 -0.1745  0.9676  0.0592
10866TIP3    H254014   2.460   1.840  12.614  0.6431  0.9904 -0.1246
10867TIP3   OH254015   0.854   3.813  15.169  0.0080  0.3393  0.7048
10867TIP3    H154016   0.773   3.765  15.156  0.4358 -0.2772  0.2741
10867TIP3    H254017   0.844   3.854  15.255  0.1693 -1.6117  1.7147
10868TIP3   OH254018   2.581   0.306  11.929 -0.4001 -0.0386 -0.4764
10868TIP3    H154019   2.520   0.271  11.994  1.4604 -0.7331  0.9799
10868TIP3    H254020   2.668   0.294  11.968  0.8352 -0.6594 -3.1705
10869TIP3   OH254021   0.018   0.363   5.194  0.1407  0.6902 -0.4356
10869TIP3    H154022   0.017   0.348   5.100 -0.5987  0.4548 -0.3953
10869TIP3    H254023  -0.016   0.452   5.204  0.0142  0.6357 -0.3782
10870TIP3   OH254024   3.088   3.449  12.885  0.1864 -0.9617 -0.1679
10870TIP3    H154025   2.995   3.435  12.905  0.3908 -0.7088  1.0636
10870TIP3    H254026   3.122   3.495  12.962  1.1406 -0.2638 -0.9829
10871TIP3   OH254027   3.127   3.033  16.525 -0.0507 -0.1168  1.0982
10871TIP3    H154028   3.203   2.978  16.507 -0.2588  0.0720 -0.5889
10871TIP3    H254029   3.161   3.107  16.574  0.9642  0.2483 -0.1221
10872TIP3   OH254030   4.987   1.496  11.632 -0.0090  0.2879 -0.1705
10872TIP3    H154031   4.943   1.512  11.715 -1.2169  0.0773 -0.7518
10872TIP3    H254032   4.933   1.540  11.567  0.3679 -0.3920 -0.9663
10873TIP3   OH254033   6.760   4.347   5.409  0.0725 -0.3645 -0.4498
10873TIP3    H154034   6.774   4.271   5.465  1.4822 -0.0099 -0.2818
10873TIP3    H254035   6.675   4.332   5.368 -0.7233 -0.9283  1.3147
10874TIP3   OH254036   0.309   1.258  14.210  0.5031 -1.0294  0.2311
10874TIP3    H154037   0.304   1.181  14.154  0.6051 -1.1713  0.4178
10874TIP3    H254038   0.271   1.231  14.293  0.8632 -0.9877  0.4139
10875TIP3   OH254039   2.304   2.063   5.417 -0.7154 -0.2284 -0.2682
10875TIP3    H154040   2.320   1.971   5.395 -1.5639 -0.6593  0.8102
10875TIP3    H254041   2.368   2.083   5.484 -0.4916 -0.0097 -0.5465
10876TIP3   OH254042   3.154   6.401   6.079  0.1089  0.4054 -0.8301
10876TIP3    H154043   3.135   6.336   6.146  0.5989  1.9458  0.8764
10876TIP3    H254044   3.132   6.358   5.996 -0.5384 -1.5371  0.3055
10877TIP3   OH254045   0.994   2.424  15.046  0.0867 -0.2764 -0.4551
10877TIP3    H154046   0.951   2.486  14.988 -0.9229 -1.0920 -0.6206
10877TIP3    H254047   1.087   2.436  15.030 -0.1268  0.5579 -1.1292
10878TIP3   OH254048   2.009   0.609  16.791 -0.1802 -0.2674  0.5183
10878TIP3    H154049   2.062   0.688  16.791  0.2139 -0.5232 -0.3442
10878TIP3    H254050   2.038   0.560  16.868  0.8185 -0.3964  0.0650
10879TIP3   OH254051   5.754   4.879   1.706 -0.2864 -0.1055 -0.5394
10879TIP3    H154052   5.773   4.812   1.772 -1.9483  0.2604  0.3504
10879TIP3    H254053   5.659   4.881   1.699 -0.3686  2.5454 -0.0847
10880TIP3   OH254054   4.311   1.250   0.145  0.2558  0.2126 -0.1409
10880TIP3    H154055   4.374   1.203   0.090 -0.3347 -0.7743 -0.0017
10880TIP3    H254056   4.266   1.309   0.084 -1.9937 -2.4623 -1.3234
10881TIP3   OH254057   3.338   0.646  14.405  0.1615 -0.4564  0.2019
10881TIP3    H154058   3.316   0.694  14.325  2.4612  1.4589  0.6211
10881TIP3    H254059   3.295   0.561  14.394 -4.4240  1.6343 -0.4583
10882TIP3   OH254060   1.207   6.712   5.970  0.0739  0.1436  0.4191
10882TIP3    H154061   1.256   6.793   5.957  0.5590 -0.4008 -1.3289
10882TIP3    H254062   1.203   6.701   6.065  1.7493  1.1496  0.6292
10883TIP3   OH254063   3.855   1.037   5.730 -0.5086  0.2614 -0.2266
10883TIP3    H154064   3.906   1.108   5.769 -0.2849  0.3277 -0.6297
10883TIP3    H254065   3.920   0.971   5.706 -0.5492  0.5567 -1.1850
10884TIP3   OH254066   2.276   4.942   1.823  0.2471  0.4060 -0.0089
10884TIP3    H154067   2.263   5.031   1.789  1.1343  0.2267 -0.8810
10884TIP3    H254068   2.188   4.903   1.823  0.1019  0.6388 -1.5382
10885TIP3   OH254069   2.104   0.626   2.337 -0.2901  0.1897  0.0252
10885TIP3    H154070   2.030   0.665   2.383 -0.3665  2.9380 -2.1805
10885TIP3    H254071   2.068   0.549   2.293 -0.8900 -0.6804  1.9274
10886TIP3   OH254072   5.673   5.090  12.471  0.2258 -0.3708  0.4850
10886TIP3    H154073   5.721   5.125  12.546  1.2130 -1.2884  0.3156
10886TIP3    H254074   5.711   5.003  12.457  1.0803  0.2879 -1.9104
10887TIP3   OH254075   1.811   2.076   0.529 -0.0212  0.2020 -0.4342
10887TIP3    H154076   1.865   2.007   0.569 -0.4659 -0.0304 -0.2291
10887TIP3    H254077   1.735   2.030   0.493 -0.4066  0.6016 -0.1488
10888TIP3   OH254078   5.475   6.724   1.566 -0.0780  0.5021  0.0887
10888TIP3    H154079   5.426   6.793   1.611  1.9873  1.3569  1.1544
10888TIP3    H254080   5.491   6.658   1.634 -1.3336 -0.7173 -0.7234
10889TIP3   OH254081   6.071   5.630   6.038  0.0946 -0.0249 -0.8592
10889TIP3    H154082   6.004   5.600   6.099  0.3269  0.2168 -0.4776
10889TIP3    H254083   6.142   5.566   6.047  0.5511  0.5718 -0.1132
10890TIP3   OH254084   1.275   4.617  14.227 -0.2615  0.1464 -0.0106
10890TIP3    H154085   1.271   4.592  14.320 -2.7203  0.2880 -0.0215
10890TIP3    H254086   1.326   4.699  14.227  0.3915 -0.2297  1.1044
10891TIP3   OH254087   1.791   2.375   5.743 -0.7743  0.3419 -0.2351
10891TIP3    H154088   1.870   2.355   5.794 -0.4069  1.6002 -0.2726
10891TIP3    H254089   1.768   2.464   5.770 -2.0122  0.1013 -0.4611
10892TIP3   OH254090   4.261   4.078  13.577  0.7463  0.4303  0.4441
10892TIP3    H154091   4.193   4.142  13.600 -0.5679 -0.5666 -0.4859
10892TIP3    H254092   4.332   4.130  13.540 -1.1849  1.3185 -2.4152
10893TIP3   OH254093   5.073   5.968   2.807  0.1235 -0.4669 -0.5533
10893TIP3    H154094   5.032   6.038   2.756  0.0152 -0.2028 -0.1124
10893TIP3    H254095   5.001   5.910   2.830  0.2773 -0.9341 -1.2532
10894TIP3   OH254096   2.224   5.993   5.652 -0.5079 -0.5849  0.0193
10894TIP3    H154097   2.228   5.905   5.690 -0.8755 -0.6233 -0.0334
10894TIP3    H254098   2.151   5.989   5.590  0.6797 -0.8193 -1.4250
10895TIP3   OH254099   2.870   5.819   5.956 -0.6315  0.2331 -0.1324
10895TIP3    H154100   2.859   5.768   6.036  1.4458  0.6405  0.4751
10895TIP3    H254101   2.819   5.899   5.971 -3.1062 -1.1360 -0.6988
10896TIP3   OH254102   4.139   4.858  13.622  0.1174  0.5480  0.0781
10896TIP3    H154103   4.058   4.906  13.604  0.0220  1.2730  2.1334
10896TIP3    H254104   4.119   4.808  13.702  0.1089 -3.2869 -2.1126
10897TIP3   OH254105   4.076   3.847   1.090  0.2172 -0.1919 -1.1233
10897TIP3    H154106   4.098   3.754   1.088  2.1558  0.1648  0.3959
10897TIP3    H254107   4.160   3.892   1.101 -0.8611  1.5838  0.6793
10898TIP3   OH254108   6.183   1.788  14.927 -0.1150 -0.1019  0.3008
10898TIP3    H154109   6.258   1.839  14.895  1.1866 -0.4557  2.5770
10898TIP3    H254110   6.217   1.698  14.932 -1.1314 -0.5082  0.1209
10899TIP3   OH254111   3.034   2.879   2.068 -0.0662 -0.2657 -0.1669
10899TIP3    H154112   2.974   2.951   2.049 -0.3754 -0.2756  0.7263
10899TIP3    H254113   2.979   2.813   2.111  0.5262 -0.3668  0.4567
10900TIP3   OH254114   2.931   6.313   5.435 -1.1961 -0.0208 -0.3691
10900TIP3    H154115   2.975   6.387   5.478 -0.4089 -1.1956  0.9271
10900TIP3    H254116   2.871   6.279   5.502 -0.0286 -1.8329 -0.1970
10901TIP3   OH254117   5.991   1.050  11.036 -0.2968 -0.3255  0.0908
10901TIP3    H154118   6.025   1.073  10.950 -0.3630  0.3742  0.2488
10901TIP3    H254119   6.011   0.957  11.046  0.8258 -0.1217 -0.1612
10902TIP3   OH254120   1.865   0.617  15.603  0.0209 -0.1259 -0.3339
10902TIP3    H154121   1.822   0.553  15.546  2.0008  1.1984 -3.5850
10902TIP3    H254122   1.948   0.576  15.627  0.0813  0.1295 -0.0993
10903TIP3   OH254123   1.714   1.097   0.008  0.5990 -0.4372 -0.0110
10903TIP3    H154124   1.728   1.139   0.093  1.5709 -1.1689  0.2058
10903TIP3    H254125   1.720   1.003   0.027 -0.7204 -0.6703 -0.6271
10904TIP3   OH254126   4.660   6.377  14.296  0.0139 -0.6291 -0.6454
10904TIP3    H154127   4.613   6.353  14.376  1.5586  1.6723  1.0700
10904TIP3    H254128   4.634   6.310  14.232 -0.7955 -2.9302  1.9071
10905TIP3   OH254129   0.618   0.284   0.510 -0.2030 -0.1582 -0.6942
10905TIP3    H154130   0.697   0.260   0.559  0.0077 -0.1754 -1.0354
10905TIP3    H254131   0.626   0.235   0.428 -0.2614  0.3192 -0.9882
10906TIP3   OH254132   1.966   1.491  14.179  0.1406 -0.6151 -0.8343
10906TIP3    H154133   1.946   1.556  14.246 -1.0511 -1.6606 -0.1250
10906TIP3    H254134   2.044   1.446  14.213 -0.0893 -0.7271 -0.4485
10907TIP3   OH254135   4.232   3.621   1.064 -0.6693 -0.2573  0.0859
10907TIP3    H154136   4.236   3.650   0.973 -2.7311 -1.4503 -0.4376
10907TIP3    H254137   4.277   3.537   1.065 -0.5811 -0.2101  0.1994
10908TIP3   OH254138   2.271   2.676   3.144  0.3247  0.8884  0.5628
10908TIP3    H154139   2.259   2.585   3.115  0.0183  1.0353  0.2258
10908TIP3    H254140   2.342   2.709   3.088 -0.2308  1.1557  0.0054
10909TIP3   OH254141   2.933   2.285   0.051 -0.1517 -0.4290 -0.1910
10909TIP3    H154142   2.940   2.363   0.107 -1.3980  0.1048 -0.7421
10909TIP3    H254143   2.970   2.313  -0.033  0.8022 -0.9268  0.0440
10910TIP3   OH254144   0.159   6.366  11.601  0.0126 -0.2334 -0.2965
10910TIP3    H154145   0.243   6.336  11.637  0.3121 -0.5472 -1.2186
10910TIP3    H254146   0.168   6.353  11.506 -0.5412  1.0678 -0.5470
10911TIP3   OH254147   5.294   4.496   5.314  0.2270 -0.1863 -0.2625
10911TIP3    H154148   5.389   4.491   5.302  0.3112  1.0271 -0.1654
10911TIP3    H254149   5.270   4.582   5.282 -0.3505  0.9207  2.7794
10912TIP3   OH254150   4.351   5.240   5.366 -0.5259 -0.1619 -0.5321
10912TIP3    H154151   4.406   5.289   5.428 -1.5960  0.9016 -0.3791
10912TIP3    H254152   4.383   5.150   5.372  1.6338  0.5045 -0.9574
10913TIP3   OH254153   4.152   1.144   0.863 -0.3877  0.1213 -0.3471
10913TIP3    H154154   4.185   1.141   0.773  0.1396  2.7030 -0.3244
10913TIP3    H254155   4.089   1.073   0.868  0.6167 -0.9968 -2.3123
10914TIP3   OH254156   1.619   1.049  14.035  0.4274 -0.1031 -0.1642
10914TIP3    H154157   1.603   1.025  14.127  0.3412  0.0618 -0.1370
10914TIP3    H254158   1.534   1.037  13.993  0.1301  1.1181  0.0568
10915TIP3   OH254159   5.248   6.235   2.368  0.6138 -0.0064 -0.0193
10915TIP3    H154160   5.264   6.211   2.276 -0.6359 -0.5613 -0.1069
10915TIP3    H254161   5.198   6.162   2.403  1.7103 -0.1444  1.3361
10916TIP3   OH254162   5.010   5.088   1.986 -0.1515 -0.1902 -0.4706
10916TIP3    H154163   4.970   5.001   1.987  0.5006 -0.5070 -1.1741
10916TIP3    H254164   4.966   5.135   2.057 -1.9987 -0.4213 -1.4053
10917TIP3   OH254165   4.547   6.246   3.253  0.0158 -0.2190 -0.5943
10917TIP3    H154166   4.593   6.184   3.310  0.2594  0.0084 -0.5406
10917TIP3    H254167   4.455   6.224   3.264  0.0613 -0.1966 -0.1303
10918TIP3   OH254168   6.719   2.281   2.415  0.8429  0.1791 -0.0444
10918TIP3    H154169   6.681   2.286   2.327 -0.5305 -0.2459  0.4961
10918TIP3    H254170   6.776   2.204   2.411 -1.0631 -1.3353  0.0553
10919TIP3   OH254171   2.867   4.394  11.125 -0.4663  0.0935 -0.3939
10919TIP3    H154172   2.889   4.455  11.054 -0.0251  0.4408  0.0331
10919TIP3    H254173   2.942   4.334  11.127 -0.1841  0.4583  0.1767
10920TIP3   OH254174   3.834   1.747   4.556  0.6320 -0.5234  0.2045
10920TIP3    H154175   3.814   1.766   4.648  0.4052  1.8103 -0.2594
10920TIP3    H254176   3.892   1.819   4.529 -1.2710  0.2792 -2.1072
10921TIP3   OH254177   2.649   2.268  15.234 -0.3807  0.3133 -0.3614
10921TIP3    H154178   2.559   2.235  15.238 -0.1739 -0.1276  0.9989
10921TIP3    H254179   2.677   2.251  15.144 -0.7316 -2.0606 -0.0842
10922TIP3   OH254180   5.172   0.965   1.450  0.0898 -0.0828  0.5032
10922TIP3    H154181   5.118   0.888   1.462 -0.2767  0.5094  3.4996
10922TIP3    H254182   5.255   0.943   1.492  0.2461  0.8928  0.7405
10923TIP3   OH254183   5.889   5.111  13.348 -0.3125  0.2547  0.1825
10923TIP3    H154184   5.877   5.020  13.320  4.2930  0.1540 -2.3944
10923TIP3    H254185   5.943   5.106  13.426  0.7836  0.7090 -0.5200
10924TIP3   OH254186   6.766   4.959  13.135  0.4074  0.0392 -0.5406
10924TIP3    H154187   6.797   5.047  13.160 -0.2379 -0.1672  1.0826
10924TIP3    H254188   6.671   4.968  13.130  0.2000 -0.8791  1.0961
10925TIP3   OH254189   4.036   5.761  16.780 -0.5266 -0.5659 -0.5300
10925TIP3    H154190   4.041   5.806  16.696  1.6499  0.3369  0.0154
10925TIP3    H254191   3.983   5.818  16.835 -1.5889 -0.9499 -1.1156
10926TIP3   OH254192   1.579   6.103  11.030 -0.0807  0.1008  0.0293
10926TIP3    H154193   1.627   6.037  10.981 -1.4577 -0.7807 -0.1852
10926TIP3    H254194   1.500   6.119  10.977  0.4254  2.2597 -0.1550
10927TIP3   OH254195   5.993   3.009   4.776 -0.5418  0.1223 -0.0719
10927TIP3    H154196   5.967   3.058   4.854  0.6854  1.4184 -0.4265
10927TIP3    H254197   6.085   2.985   4.793 -1.1543 -2.3448  0.1964
10928TIP3   OH254198   1.304   2.422   1.935  0.3826 -0.2560  0.0161
10928TIP3    H154199   1.288   2.450   1.844  0.7356 -0.7506 -0.2036
10928TIP3    H254200   1.390   2.380   1.932  0.7800  0.4792  0.7528
10929TIP3   OH254201   0.366   1.064  11.128 -0.4444 -0.8337  0.8123
10929TIP3    H154202   0.402   1.149  11.150 -1.6329 -0.6674  2.2479
10929TIP3    H254203   0.413   1.002  11.185  2.6960 -1.7133 -2.3487
10930TIP3   OH254204   5.467   0.064   0.903  0.1124  0.1868  0.4516
10930TIP3    H154205   5.523  -0.011   0.886 -0.7237 -1.4720  4.1972
10930TIP3    H254206   5.408   0.067   0.827 -1.0510 -4.1656  0.9357
10931TIP3   OH254207   3.982   6.274  14.097 -0.1841 -0.0064 -0.1446
10931TIP3    H154208   4.013   6.351  14.144 -0.9825 -0.2014  0.7242
10931TIP3    H254209   3.909   6.305  14.045  0.7466  0.2258 -1.3584
10932TIP3   OH254210   0.992   0.863   2.931 -0.1616  0.1136  0.1443
10932TIP3    H154211   1.045   0.931   2.888 -0.7955  2.3592  2.6437
10932TIP3    H254212   0.916   0.852   2.874  0.3660  0.8563 -0.7315
10933TIP3   OH254213   0.811   6.503   2.415 -0.3665  0.1848 -0.1762
10933TIP3    H154214   0.884   6.550   2.455 -1.2408  1.7501 -0.3263
10933TIP3    H254215   0.785   6.558   2.340 -2.1522  0.0698  0.3118
10934TIP3   OH254216   1.881   1.225   6.564  0.5382  0.2217 -0.2138
10934TIP3    H154217   1.912   1.134   6.556 -1.7287 -0.4387 -3.1591
10934TIP3    H254218   1.925   1.271   6.493 -0.4884  0.7331 -0.5220
10935TIP3   OH254219   3.953   1.214   1.882 -0.5978 -0.8625 -0.3060
10935TIP3    H154220   3.955   1.303   1.847 -0.7923 -0.9560 -0.5589
10935TIP3    H254221   3.909   1.222   1.966  0.6701 -0.4969  0.3379
10936TIP3   OH254222   0.847   1.598   4.847 -0.3624  0.1127  0.0265
10936TIP3    H154223   0.857   1.648   4.765  0.7220 -0.6169 -0.3173
10936TIP3    H254224   0.881   1.511   4.826 -1.3219 -0.4936  0.8901
10937TIP3   OH254225   3.463   1.708  13.467 -0.1651  0.0905  0.1910
10937TIP3    H154226   3.436   1.712  13.375  2.1498 -0.5895 -0.5906
10937TIP3    H254227   3.507   1.791  13.483  2.2668 -1.0110 -0.3563
10938TIP3   OH254228   0.701   0.948   2.267  0.9912 -0.3593  0.1428
10938TIP3    H154229   0.641   0.974   2.337 -1.0543 -1.1082 -1.2152
10938TIP3    H254230   0.702   0.852   2.271  0.7016 -0.4253 -0.9094
10939TIP3   OH254231   3.865   0.449   1.747  0.0155 -0.0717  0.4585
10939TIP3    H154232   3.852   0.539   1.719  0.2172 -0.5236 -1.2280
10939TIP3    H254233   3.960   0.438   1.747 -0.0090 -0.2808  0.6340
10940TIP3   OH254234   5.423   6.139  11.973 -0.2942  0.4718  0.0057
10940TIP3    H154235   5.474   6.083  11.914  0.7820  0.9733  0.4429
10940TIP3    H254236   5.363   6.079  12.017  0.2446 -0.2074 -0.1676
10941TIP3   OH254237   0.598   4.153  15.054 -0.3643  0.0339 -0.4064
10941TIP3    H154238   0.529   4.216  15.029 -0.3778 -0.5941 -2.0885
10941TIP3    H254239   0.662   4.206  15.101 -0.4351  1.3039 -1.6661
10942TIP3   OH254240   5.228   2.288   2.264 -0.1351  0.3902  0.4255
10942TIP3    H154241   5.157   2.345   2.293 -1.9034 -0.7397 -1.3957
10942TIP3    H254242   5.242   2.228   2.337  0.0471  1.6082  1.4046
10943TIP3   OH254243   2.872   1.565  16.275 -0.4482  0.1697  0.3933
10943TIP3    H154244   2.942   1.521  16.228 -0.9356 -0.1060 -0.0859
10943TIP3    H254245   2.869   1.653  16.237 -1.4056 -0.3141 -0.7339
10944TIP3   OH254246   3.094   1.703  16.450  0.2736 -0.2510 -0.1146
10944TIP3    H154247   3.085   1.792  16.416  1.4965 -0.7576 -1.8886
10944TIP3    H254248   3.004   1.674  16.465 -0.3990 -0.0633 -3.2049
10945TIP3   OH254249   1.508   1.054   3.248 -0.4861 -0.6470 -0.4632
10945TIP3    H154250   1.562   0.997   3.303 -0.1922  0.7976  0.8309
10945TIP3    H254251   1.510   1.013   3.162 -0.3970 -2.6320  0.4240
10946TIP3   OH254252   0.686   3.027  12.895 -0.1345 -0.0131  0.0001
10946TIP3    H154253   0.591   3.013  12.902 -0.3251  0.7104 -0.9595
10946TIP3    H254254   0.702   3.108  12.943 -0.1447  0.3643 -0.6337
10947TIP3   OH254255   5.926   3.784  16.007 -0.1770 -0.5097 -0.4172
10947TIP3    H154256   5.929   3.690  15.987 -0.5944 -0.8662  1.0557
10947TIP3    H254257   5.889   3.824  15.928 -0.3017 -1.6167 -0.9428
10948TIP3   OH254258   4.792   2.642  15.731  0.3181 -0.4245 -0.1847
10948TIP3    H154259   4.867   2.599  15.690  0.6521  0.5801 -0.6679
10948TIP3    H254260   4.726   2.574  15.740  0.6567 -0.9206 -1.3610
10949TIP3   OH254261   4.793   3.329  13.214  0.0303 -0.1142  0.0825
10949TIP3    H154262   4.800   3.239  13.183 -1.1703  0.5668 -2.3823
10949TIP3    H254263   4.702   3.339  13.242  0.1912  0.2960  0.4856
10950TIP3   OH254264   0.544   2.521   1.067  0.5626  0.3268 -0.2942
10950TIP3    H154265   0.622   2.548   1.116 -0.1618  2.3560 -0.1838
10950TIP3    H254266   0.471   2.563   1.111 -0.8538 -2.5695  0.3910
10951TIP3   OH254267   0.394   3.113  14.176 -0.1127  0.2080  0.6060
10951TIP3    H154268   0.402   3.035  14.231 -1.2389 -0.2964  0.0790
10951TIP3    H254269   0.452   3.095  14.102 -0.9241 -0.4728  0.1196
10952TIP3   OH254270   2.916   6.312   1.979 -0.4725  0.1553  0.3101
10952TIP3    H154271   2.901   6.228   2.022  1.2500  0.0239  0.7294
10952TIP3    H254272   2.868   6.307   1.897 -0.1953 -1.3377  0.2263
10953TIP3   OH254273   2.909   4.922  15.372  0.5227  0.6374  0.2477
10953TIP3    H154274   2.966   4.871  15.315  0.4031  1.4286 -0.5933
10953TIP3    H254275   2.938   4.900  15.461  0.0722 -1.3501 -0.0537
10954TIP3   OH254276   5.811   4.231  11.261 -0.4732 -0.0034  0.0693
10954TIP3    H154277   5.905   4.212  11.270 -0.6171 -0.5330  0.5144
10954TIP3    H254278   5.775   4.214  11.348 -1.0316 -0.0672 -0.1708
10955TIP3   OH254279   5.167   1.064  16.369  0.0691  0.2811  0.2752
10955TIP3    H154280   5.172   0.977  16.328 -0.1307  0.1657  0.4940
10955TIP3    H254281   5.119   1.049  16.450  1.1816  0.3522  0.9772
10956TIP3   OH254282   2.572   5.747  16.520  0.3290 -0.0099  0.2047
10956TIP3    H154283   2.488   5.791  16.533 -1.5132 -2.7966 -1.0944
10956TIP3    H254284   2.619   5.802  16.458 -0.3239  1.7997  1.2418
10957TIP3   OH254285   1.074   0.830  15.041 -0.2331 -0.4666 -0.6286
10957TIP3    H154286   1.161   0.815  15.078 -0.2289  0.4386 -0.2389
10957TIP3    H254287   1.077   0.920  15.009 -1.0722 -0.3733 -0.4704
10958TIP3   OH254288   6.760   0.831   4.530  0.6214  0.1755 -0.5723
10958TIP3    H154289   6.776   0.794   4.443  0.0165 -0.5454 -0.3803
10958TIP3    H254290   6.789   0.764   4.591 -3.0079 -1.2584 -0.1984
10959TIP3   OH254291   5.808   1.637  13.348  0.1348  0.3291  0.5865
10959TIP3    H154292   5.895   1.657  13.383 -0.2441  1.3522  0.9892
10959TIP3    H254293   5.763   1.593  13.420 -0.5244  2.1153  1.3240
10960TIP3   OH254294   2.054   6.473   6.794 -0.3989 -0.0543  0.2428
10960TIP3    H154295   2.145   6.449   6.813 -0.4870 -3.0965 -2.4871
10960TIP3    H254296   2.061   6.546   6.733  0.2720 -0.8298 -0.6321
10961TIP3   OH254297   5.928   3.035  13.078  0.2099 -0.2706 -0.4083
10961TIP3    H154298   5.926   2.940  13.072 -0.7360 -0.2481 -0.5503
10961TIP3    H254299   5.837   3.061  13.093  0.9349  0.3758  4.1677
10962TIP3   OH254300   1.325   3.204  11.454 -0.2288  0.5509  0.1352
10962TIP3    H154301   1.362   3.292  11.458 -2.4574  1.6464 -1.5117
10962TIP3    H254302   1.299   3.185  11.544  1.6671  0.8806  0.8030
10963TIP3   OH254303   1.088   6.279  15.421  0.3795 -0.2554 -0.3629
10963TIP3    H154304   1.038   6.228  15.358  0.5015  0.3791 -0.9857
10963TIP3    H254305   1.179   6.274  15.390  0.1666  1.8167 -1.5057
10964TIP3   OH254306   3.784   0.467  14.682 -0.7575  0.5552  0.0077
10964TIP3    H154307   3.717   0.426  14.738  0.0573 -0.3880  0.3046
10964TIP3    H254308   3.737   0.539  14.639 -1.6723  0.6573  1.1127
10965TIP3   OH254309   0.051   4.185  15.429  0.0578 -0.1222 -0.2611
10965TIP3    H154310   0.139   4.222  15.421  1.2873 -2.4614  1.0511
10965TIP3    H254311   0.028   4.199  15.521 -0.5736 -0.2497 -0.3983
10966TIP3   OH254312   6.126   0.302  10.675 -0.1287  0.2356  0.0650
10966TIP3    H154313   6.209   0.277  10.635 -0.3382  0.5010 -0.5336
10966TIP3    H254314   6.089   0.219  10.706 -0.1620 -0.0284 -0.6638
10967TIP3   OH254315   4.686   4.107   2.552 -0.6816 -0.0770  0.4046
10967TIP3    H154316   4.667   4.023   2.594 -0.4766  0.0050  0.6678
10967TIP3    H254317   4.706   4.084   2.461 -1.2644 -0.2401  0.3150
10968TIP3   OH254318   2.456   3.639  15.701 -0.0051  0.6614 -0.3647
10968TIP3    H154319   2.428   3.547  15.699 -3.2142  1.5192  0.0932
10968TIP3    H254320   2.392   3.683  15.757  1.6404  3.1430 -0.2803
10969TIP3   OH254321   5.054   2.516   0.503 -0.5806  0.3603 -0.5321
10969TIP3    H154322   5.103   2.529   0.422  1.8544  0.1530  0.7925
10969TIP3    H254323   5.116   2.540   0.572 -2.2291 -0.3918  1.2961
10970TIP3   OH254324   5.267   3.890   3.772  0.1602  0.2608  0.7085
10970TIP3    H154325   5.241   3.883   3.680 -0.0315  0.1567  0.7687
10970TIP3    H254326   5.219   3.820   3.815 -1.7001  1.8095  1.2994
10971TIP3   OH254327   5.200   6.317   0.487  0.1275  0.7588  0.2584
10971TIP3    H154328   5.238   6.234   0.458  1.0008  0.4388  2.1564
10971TIP3    H254329   5.120   6.292   0.534  1.3657  0.7231  2.5135
10972TIP3   OH254330   0.248   3.848   1.379 -0.0355  0.0126 -0.1870
10972TIP3    H154331   0.203   3.789   1.439 -1.4313 -1.6407 -2.6756
10972TIP3    H254332   0.228   3.814   1.292  0.6087  3.1508 -1.7125
10973TIP3   OH254333   3.649   4.939  13.782  0.0030 -0.3951  0.2677
10973TIP3    H154334   3.580   4.913  13.843  1.1362 -0.7524  1.4647
10973TIP3    H254335   3.681   5.022  13.817 -1.0356  0.7352 -1.3447
10974TIP3   OH254336   0.460   4.147  12.180  0.2666  0.7060 -0.3852
10974TIP3    H154337   0.368   4.139  12.208  0.9025 -1.1388  1.4891
10974TIP3    H254338   0.496   4.214  12.238 -0.3031  2.9975 -2.5275
10975TIP3   OH254339   1.114   0.642   1.690  0.4583  0.3513 -0.0033
10975TIP3    H154340   1.118   0.662   1.597 -1.6755  1.9008  0.1562
10975TIP3    H254341   1.188   0.690   1.728  0.3468  1.0917 -0.7018
10976TIP3   OH254342   3.308   3.427  15.477  0.0543 -0.1742  0.9034
10976TIP3    H154343   3.351   3.344  15.454  2.7676  1.0334  1.3420
10976TIP3    H254344   3.232   3.400  15.529  0.5528 -2.4091  0.5924
10977TIP3   OH254345   6.637   4.981  14.400 -0.0155  0.0226  0.2228
10977TIP3    H154346   6.626   4.990  14.495 -2.7014  1.8291 -0.1674
10977TIP3    H254347   6.630   4.887  14.384 -1.6830 -0.1344  1.6250
10978TIP3   OH254348   0.881   1.091   0.719 -0.5128  0.3677  0.2565
10978TIP3    H154349   0.933   1.017   0.750  0.8788  1.2098  0.0097
10978TIP3    H254350   0.801   1.051   0.684 -0.4824 -0.8858  1.5123
10979TIP3   OH254351   4.534   0.047   0.178  0.3338  0.3207  0.1917
10979TIP3    H154352   4.589  -0.030   0.167  2.1304  1.8470 -2.4865
10979TIP3    H254353   4.574   0.095   0.251 -0.6307 -1.0233  1.6833
10980TIP3   OH254354   2.732   3.635  16.549 -0.2044 -0.4060  0.0260
10980TIP3    H154355   2.713   3.546  16.581  1.1675 -0.9890 -0.7069
10980TIP3    H254356   2.769   3.680  16.625  1.2254 -1.1840 -0.1808
10981TIP3   OH254357   6.714   0.138   1.469  0.6601 -0.3728 -0.4372
10981TIP3    H154358   6.690   0.118   1.378  0.5799 -2.3423 -0.0419
10981TIP3    H254359   6.640   0.108   1.521  0.9868  0.1054  0.3285
10982TIP3   OH254360   3.708   0.128  14.236  0.8545 -0.0527  0.4338
10982TIP3    H154361   3.667   0.156  14.154  2.5711 -0.4991 -0.6144
10982TIP3    H254362   3.657   0.172  14.304 -0.6637  0.2735 -0.8467
10983TIP3   OH254363   1.244   1.716  15.154  0.2725 -0.1313 -0.1994
10983TIP3    H154364   1.199   1.799  15.136  1.3450  0.5917  0.2935
10983TIP3    H254365   1.191   1.674  15.222 -0.0705  0.3429 -0.1668
10984TIP3   OH254366   5.891   2.043  13.044 -0.0365  0.1922  0.2908
10984TIP3    H154367   5.810   2.079  13.009 -0.5787  0.2575  1.5549
10984TIP3    H254368   5.871   2.022  13.135  1.4119  0.3506  0.6783
10985TIP3   OH254369   2.783   3.092   5.097 -0.3079 -0.0623  0.3690
10985TIP3    H154370   2.707   3.061   5.048 -1.1211 -1.0679  2.1641
10985TIP3    H254371   2.745   3.144   5.168  0.6017 -1.2096  1.7476
10986TIP3   OH254372   1.704   4.492   4.661 -1.0972 -0.5205  0.8262
10986TIP3    H154373   1.733   4.520   4.574 -1.0823 -1.6686  0.4397
10986TIP3    H254374   1.645   4.561   4.690 -0.8732  0.0208  0.0275
10987TIP3   OH254375   0.100   5.365   0.568 -0.1421 -0.3592  0.0528
10987TIP3    H154376   0.116   5.287   0.621  2.2715  1.0921  1.6641
10987TIP3    H254377   0.167   5.362   0.500 -0.5967 -0.1194 -0.4101
10988TIP3   OH254378   3.967   0.441   3.531  0.0860  0.1115  0.0809
10988TIP3    H154379   3.910   0.438   3.608  1.1967  0.5706  0.9659
10988TIP3    H254380   3.933   0.513   3.479 -0.9949 -0.5347 -0.1197
10989TIP3   OH254381   5.691   1.038   0.169 -0.5353 -0.1391  0.1971
10989TIP3    H154382   5.768   0.986   0.190 -0.3218 -0.0285 -0.3049
10989TIP3    H254383   5.624   1.007   0.229 -0.2270 -0.5481  0.3299
10990TIP3   OH254384   6.558   3.025  14.740  0.2507 -1.0457  0.2291
10990TIP3    H154385   6.599   3.047  14.823  2.6465 -0.1667 -1.0763
10990TIP3    H254386   6.466   3.045  14.752  0.6158 -0.4994  2.5085
10991TIP3   OH254387   6.813   3.691  17.077 -0.2182 -0.1443  0.4303
10991TIP3    H154388   6.888   3.636  17.102 -1.6882 -2.2108  0.5232
10991TIP3    H254389   6.796   3.745  17.155  0.7885 -0.0618  0.6089
10992TIP3   OH254390   1.112   0.206   5.779 -0.0663 -0.2954  0.1237
10992TIP3    H154391   1.054   0.147   5.732  0.8851 -0.3511 -1.0167
10992TIP3    H254392   1.125   0.280   5.719  0.7839 -0.1424  0.4773
10993TIP3   OH254393   0.515   3.512  14.998 -0.0039  0.8708 -0.5398
10993TIP3    H154394   0.441   3.572  14.986 -1.1976 -0.8825 -2.5390
10993TIP3    H254395   0.564   3.517  14.917  0.0834 -0.5635 -0.5978
10994TIP3   OH254396   6.587   4.258  15.619  0.2805  0.5052  0.2553
10994TIP3    H154397   6.553   4.345  15.599 -0.8458 -0.1158 -0.6192
10994TIP3    H254398   6.610   4.262  15.712 -2.4051  0.8977  0.9634
10995TIP3   OH254399   5.721   6.158  16.439 -0.3472 -0.3404 -0.4529
10995TIP3    H154400   5.713   6.237  16.386  0.5739 -0.4126 -0.7183
10995TIP3    H254401   5.636   6.149  16.481 -0.9395 -0.0128 -1.5389
10996TIP3   OH254402   6.634   1.052  16.205 -0.0901 -0.2012  0.5361
10996TIP3    H154403   6.588   1.116  16.260  0.3015  0.9374 -0.4059
10996TIP3    H254404   6.680   1.106  16.140 -0.4974 -1.4752 -0.8745
10997TIP3   OH254405   3.051   0.653  13.086  0.0951 -0.5517  0.0329
10997TIP3    H154406   3.104   0.615  13.156  1.5455  0.5324 -0.4153
10997TIP3    H254407   3.044   0.746  13.109 -0.9014 -0.5077 -0.3717
10998TIP3   OH254408   6.102   4.293   4.713  0.2363 -0.3178  0.5145
10998TIP3    H154409   6.175   4.335   4.669 -1.0877 -0.3221 -1.8772
10998TIP3    H254410   6.040   4.364   4.730  0.3052 -0.4818  1.5375
10999TIP3   OH254411   3.455   3.009   5.091 -0.9552 -0.3066 -0.3650
10999TIP3    H154412   3.457   2.998   4.996 -0.0364 -1.2904 -0.2560
10999TIP3    H254413   3.392   3.080   5.106 -0.2009  0.7172 -1.7772
11000TIP3   OH254414   4.747   4.164  15.460 -0.4322 -0.0851 -0.2840
11000TIP3    H154415   4.797   4.155  15.379 -1.4757 -1.4605 -0.8115
11000TIP3    H254416   4.813   4.157  15.529  0.3088 -0.2258 -0.9883
11001TIP3   OH254417   3.678   4.810  15.215 -0.6195 -0.6102 -0.7637
11001TIP3    H154418   3.645   4.842  15.299 -0.6167  0.7938 -1.2701
11001TIP3    H254419   3.618   4.739  15.191  0.4236 -2.3066  1.2481
11002TIP3   OH254420   3.792   3.396  15.674 -0.2698 -0.1943  0.5088
11002TIP3    H154421   3.788   3.432  15.585 -1.3793  1.7687  1.2948
11002TIP3    H254422   3.885   3.390  15.694 -0.0224 -0.2132 -0.5997
11003TIP3   OH254423   5.593   3.666   3.601  0.1762  0.1826 -0.1653
11003TIP3    H154424   5.642   3.721   3.541 -0.0866  1.0542  0.4057
11003TIP3    H254425   5.657   3.639   3.668  0.6700 -1.4447 -1.2209
11004TIP3   OH254426   0.276   4.689   1.309  0.5224 -0.5360  0.6361
11004TIP3    H154427   0.298   4.781   1.294 -0.0341 -0.3122  1.1610
11004TIP3    H254428   0.355   4.641   1.282  0.4075 -0.0021 -0.7840
11005TIP3   OH254429   5.861   3.319  10.897  0.0100 -0.1934 -0.1467
11005TIP3    H154430   5.870   3.224  10.881 -0.3267 -0.4845  1.2656
11005TIP3    H254431   5.943   3.356  10.864  1.7408 -1.4390  2.4157
11006TIP3   OH254432   1.886   4.354  13.129  0.0784 -0.1916 -0.7538
11006TIP3    H154433   1.845   4.268  13.118 -0.7947  0.1364 -0.2105
11006TIP3    H254434   1.870   4.398  13.045 -1.5459  0.2637 -0.2476
11007TIP3   OH254435   3.691   3.727   6.083  0.8217  0.1278 -0.4822
11007TIP3    H154436   3.623   3.780   6.127 -1.0230 -3.6865  1.7698
11007TIP3    H254437   3.756   3.712   6.151  0.7632 -1.3020 -0.7202
11008TIP3   OH254438   4.564   4.061  16.017 -0.3033 -0.1700  0.0185
11008TIP3    H154439   4.649   4.099  15.997  0.3670 -1.1779  0.8231
11008TIP3    H254440   4.584   3.971  16.044 -1.4776 -0.0256  1.5296
11009TIP3   OH254441   4.377   6.329   0.848 -0.5322 -0.1264  0.5633
11009TIP3    H154442   4.345   6.356   0.934  0.9038 -2.1545  1.8140
11009TIP3    H254443   4.470   6.310   0.861 -0.5714 -1.8045 -1.0810
11010TIP3   OH254444   2.116   2.119  10.883 -0.1542 -0.5398 -0.5083
11010TIP3    H154445   2.173   2.147  10.954  0.7067 -2.4400 -0.3723
11010TIP3    H254446   2.176   2.105  10.809 -0.9643  0.9072 -1.4644
11011TIP3   OH254447   2.993   5.965  16.692  0.3263 -0.2005  0.4063
11011TIP3    H154448   2.929   6.007  16.635  0.5528  1.8107  1.5791
11011TIP3    H254449   2.950   5.959  16.777  1.2741  0.1297  0.9221
11012TIP3   OH254450   6.610   4.940  10.339  0.1336 -0.2031  0.0389
11012TIP3    H154451   6.545   4.915  10.274  0.5108  1.3978 -1.0174
11012TIP3    H254452   6.661   4.861  10.353 -0.5741 -0.8501 -0.8857
11013TIP3   OH254453   6.603   5.375  16.615 -0.2554  0.9545 -0.2942
11013TIP3    H154454   6.656   5.455  16.611 -0.5775  1.1693 -0.3784
11013TIP3    H254455   6.515   5.404  16.591 -0.2479  0.4560 -0.9623
11014TIP3   OH254456   4.594   0.152  16.510 -0.0364  0.4028 -0.4329
11014TIP3    H154457   4.674   0.174  16.461  1.4747  0.1793  1.8165
11014TIP3    H254458   4.557   0.237  16.535 -0.9625  0.5325 -2.0252
11015TIP3   OH254459   1.680   2.900  16.905 -0.0365 -0.5196 -0.9764
11015TIP3    H154460   1.600   2.925  16.859 -1.6016 -1.0766  1.3031
11015TIP3    H254461   1.657   2.819  16.951  1.1084  0.4434  1.4863
11016TIP3   OH254462   1.607   4.227  13.553  0.0194  0.2074  0.3773
11016TIP3    H154463   1.584   4.159  13.490  0.7038  0.6041 -0.3143
11016TIP3    H254464   1.578   4.309  13.513 -0.3091  0.3832  0.9611
11017TIP3   OH254465   3.152   0.113  16.220 -0.0246  0.0118  0.3779
11017TIP3    H154466   3.093   0.157  16.160 -0.4202 -1.0837 -0.0665
11017TIP3    H254467   3.179   0.181  16.282 -1.6788  0.5677  0.5414
11018TIP3   OH254468   2.272   4.667  13.410 -0.2002 -0.2565 -0.2501
11018TIP3    H154469   2.284   4.745  13.356  0.5486 -0.6910 -0.7317
11018TIP3    H254470   2.199   4.621  13.370  1.9250 -1.8922 -2.5585
11019TIP3   OH254471   4.951   4.382  13.752 -0.2394 -0.6155 -0.3685
11019TIP3    H154472   4.981   4.353  13.838  0.8384 -1.2257 -0.9135
11019TIP3    H254473   5.031   4.385  13.699 -0.9679 -0.9493 -1.5364
11020TIP3   OH254474   3.096   5.083   0.266  0.0877  0.3596  0.1927
11020TIP3    H154475   3.172   5.097   0.322  0.0987  0.3318  0.1850
11020TIP3    H254476   3.133   5.070   0.178  0.0126  1.6742 -0.0516
11021TIP3   OH254477   3.407   1.673   4.489 -0.4326  0.0130  0.5996
11021TIP3    H154478   3.322   1.636   4.510 -0.2669  0.3074  1.9259
11021TIP3    H254479   3.469   1.603   4.508 -0.3380 -0.0175  0.1834
11022TIP3   OH254480   1.007   2.733  13.228 -0.0381 -0.3058  0.3769
11022TIP3    H154481   1.042   2.681  13.300  1.0915 -0.2385 -0.0999
11022TIP3    H254482   1.017   2.676  13.151 -0.0604  0.0981  0.0726
11023TIP3   OH254483   2.963   5.605  16.882 -0.2589 -1.0444 -0.4069
11023TIP3    H154484   2.975   5.697  16.905 -0.6699 -0.6968 -1.4809
11023TIP3    H254485   2.872   5.586  16.904  0.2199 -1.6371  1.1785
11024TIP3   OH254486   5.716   0.014   1.437  0.0181  0.6972  0.5345
11024TIP3    H154487   5.647  -0.010   1.499 -0.1024 -0.5029 -0.0332
11024TIP3    H254488   5.743  -0.070   1.398 -0.2891  1.4519 -1.4238
11025TIP3   OH254489   0.933   0.915  14.684  0.2628  0.1160  0.2404
11025TIP3    H154490   0.953   0.865  14.763  1.0815  1.2168  0.7559
11025TIP3    H254491   0.837   0.912  14.677  0.2133 -0.3226  1.0407
11026TIP3   OH254492   1.891   2.680   0.663 -0.0607  0.0950 -0.2153
11026TIP3    H154493   1.933   2.661   0.747  0.0353 -0.8189 -0.4640
11026TIP3    H254494   1.804   2.712   0.687  0.6712  1.8359  0.3004
11027TIP3   OH254495   5.127   0.290   5.965 -0.5877  0.0468  0.0562
11027TIP3    H154496   5.080   0.213   5.994 -0.2443 -0.1517  0.0934
11027TIP3    H254497   5.216   0.259   5.949 -0.0889  0.6927  1.3835
11028TIP3   OH254498   4.746   1.505  16.576 -0.1202 -0.6248  0.3248
11028TIP3    H154499   4.833   1.469  16.561  0.1854  0.6063 -1.0008
11028TIP3    H254500   4.711   1.522  16.489 -1.0788  0.3069  0.8627
11029TIP3   OH254501   1.616   0.563  13.336 -0.6146 -0.0452 -0.2235
11029TIP3    H154502   1.543   0.543  13.276 -2.5395  0.3418  1.8685
11029TIP3    H254503   1.694   0.535  13.288 -2.1426 -0.8202 -2.4325
11030TIP3   OH254504   4.465   6.070  16.486 -0.2888 -0.2751 -0.6505
11030TIP3    H154505   4.548   6.027  16.464  0.0280 -0.1409  0.2224
11030TIP3    H254506   4.488   6.132  16.556 -1.1359 -0.2794 -0.3541
11031TIP3   OH254507   2.683   6.191   1.788 -0.2727 -0.7445  0.5703
11031TIP3    H154508   2.652   6.196   1.698  3.4294  1.5405 -0.7809
11031TIP3    H254509   2.646   6.108   1.821 -2.4946 -1.2304 -2.6473
11032TIP3   OH254510   3.767   4.380   2.872  0.3496 -0.4397  0.0912
11032TIP3    H154511   3.848   4.407   2.916  0.4702 -0.9369  0.1796
11032TIP3    H254512   3.697   4.409   2.931  0.4111  0.9411 -0.4918
11033TIP3   OH254513   2.356   5.796  11.064  0.0826  0.2660  0.6710
11033TIP3    H154514   2.403   5.714  11.055 -1.0128 -0.3432  0.3813
11033TIP3    H254515   2.366   5.840  10.979 -0.2478 -0.0757  0.4514
11034TIP3   OH254516   1.307   0.990   4.770  1.1460 -0.1548 -0.5275
11034TIP3    H154517   1.378   1.001   4.707  0.5211  2.5249 -0.8929
11034TIP3    H254518   1.346   0.940   4.842  2.9492 -0.0642 -1.3860
11035TIP3   OH254519   2.201   0.825  15.920 -0.2545 -0.0864  0.6781
11035TIP3    H154520   2.252   0.899  15.954 -0.1520  1.0538 -1.7791
11035TIP3    H254521   2.267   0.762  15.890 -0.3439 -1.1534  2.5597
11036TIP3   OH254522   1.660   3.915   2.991  0.9649  0.1511  0.6301
11036TIP3    H154523   1.587   3.962   2.951 -0.9808 -2.5501  0.7536
11036TIP3    H254524   1.701   3.867   2.918 -1.1229 -2.9046  1.2601
11037TIP3   OH254525   0.328   4.725  15.784  0.1465  0.1995 -0.0464
11037TIP3    H154526   0.343   4.813  15.818 -3.3004  0.5261  0.9376
11037TIP3    H254527   0.320   4.670  15.862 -1.7233 -0.1986 -0.4797
11038TIP3   OH254528   1.303   5.427  14.669  0.0207 -0.0513  0.1548
11038TIP3    H154529   1.258   5.511  14.681  0.2020 -0.0468  0.8316
11038TIP3    H254530   1.383   5.449  14.620 -0.9502 -0.1362 -1.5265
11039TIP3   OH254531   3.207   0.537  13.784 -0.1206 -0.4355  0.0964
11039TIP3    H154532   3.132   0.537  13.843 -0.6808  0.1435 -0.5925
11039TIP3    H254533   3.183   0.476  13.715 -0.1878  0.1374 -0.3954
11040TIP3   OH254534   0.461   0.899  15.227  0.1308  0.3364 -0.0995
11040TIP3    H154535   0.553   0.909  15.203 -0.0296 -0.2542 -0.9911
11040TIP3    H254536   0.435   0.987  15.255  0.8633  0.5902 -0.1777
11041TIP3   OH254537   4.142   0.233  15.749  0.4993 -0.4527 -0.0890
11041TIP3    H154538   4.072   0.292  15.776  0.9547  0.8727 -1.6401
11041TIP3    H254539   4.157   0.177  15.825 -0.9656  0.4528  0.9193
11042TIP3   OH254540   2.919   5.632   0.449 -0.0160  0.2229 -0.5257
11042TIP3    H154541   2.967   5.628   0.532 -2.8491  0.0348  1.2579
11042TIP3    H254542   2.954   5.560   0.397 -0.8622 -2.3572  2.1881
11043TIP3   OH254543   1.789   4.255   1.452  0.4576 -0.1594  0.4602
11043TIP3    H154544   1.841   4.332   1.426 -0.4037  0.6660  1.0995
11043TIP3    H254545   1.702   4.290   1.469 -0.6249 -1.6635 -1.5201
11044TIP3   OH254546   0.877   5.891   0.104 -0.1461 -0.1297 -0.1560
11044TIP3    H154547   0.806   5.950   0.077 -0.7810 -0.6734  0.3167
11044TIP3    H254548   0.911   5.930   0.184  0.5805  0.5230 -0.7608
11045TIP3   OH254549   3.819   3.227   0.981  0.0693 -0.2362 -0.3897
11045TIP3    H154550   3.826   3.288   0.908  2.9119 -0.9249 -0.8082
11045TIP3    H254551   3.872   3.266   1.051 -1.1274 -0.4664  0.6871
11046TIP3   OH254552   2.670   1.585  12.334 -0.1785 -0.0518  0.0808
11046TIP3    H154553   2.730   1.551  12.268 -1.4521 -1.2608 -0.5093
11046TIP3    H254554   2.721   1.650  12.383  1.7558 -1.4270 -0.0342
11047TIP3   OH254555   1.605   5.594  16.473  0.0238  0.6801  0.3118
11047TIP3    H154556   1.674   5.527  16.470  0.4993  0.9849  2.7779
11047TIP3    H254557   1.535   5.555  16.525 -1.0528  0.9785 -0.8447
11048TIP3   OH254558   0.798   5.179  15.538 -0.3339 -0.6540  0.7388
11048TIP3    H154559   0.831   5.165  15.450 -0.8422 -0.5512  0.5301
11048TIP3    H254560   0.812   5.272  15.555  0.1211 -0.7521  0.9178
11049TIP3   OH254561   4.471   0.132  12.753  0.1433 -0.0110 -0.3004
11049TIP3    H154562   4.481   0.128  12.658 -1.9736  1.4849 -0.6699
11049TIP3    H254563   4.522   0.059  12.786 -0.3796 -1.5734 -2.7192
11050TIP3   OH254564   3.494   3.685   4.907 -0.1708 -0.0990 -0.5799
11050TIP3    H154565   3.575   3.736   4.904  0.9013 -1.3071  2.8285
11050TIP3    H254566   3.432   3.740   4.954  0.2085 -0.8897  0.9131
11051TIP3   OH254567   1.517   3.166   1.711  0.4352  0.3202 -0.0380
11051TIP3    H154568   1.427   3.148   1.739  0.4349 -0.6115 -0.5935
11051TIP3    H254569   1.511   3.177   1.616  0.7029  1.6951  0.0830
11052TIP3   OH254570   1.837   2.212  15.186 -0.4004  0.3521  0.0013
11052TIP3    H154571   1.910   2.204  15.125 -0.0886 -1.8788  0.6038
11052TIP3    H254572   1.818   2.123  15.214 -1.7211  1.1287  1.8099
11053TIP3   OH254573   5.115   0.627  13.228 -0.1401 -0.0503 -0.2113
11053TIP3    H154574   5.107   0.700  13.289  3.1260  0.8783 -0.7035
11053TIP3    H254575   5.136   0.551  13.283  0.8160  0.3458 -0.0241
11054TIP3   OH254576   1.157   1.491   2.846 -0.1670 -0.5101  0.7085
11054TIP3    H154577   1.139   1.542   2.924  1.4854  0.5460  0.4408
11054TIP3    H254578   1.215   1.421   2.876  0.4614 -0.1095  0.4538
11055TIP3   OH254579   5.855   5.446  11.533 -0.2406 -0.1613 -0.1686
11055TIP3    H154580   5.819   5.362  11.502  1.6581 -1.1530  0.1969
11055TIP3    H254581   5.928   5.422  11.590 -0.6574  1.7397  1.2690
11056TIP3   OH254582   4.729   4.460   0.620 -0.1121  0.7553  0.0397
11056TIP3    H154583   4.742   4.370   0.650  0.6345  0.2166 -1.7755
11056TIP3    H254584   4.811   4.484   0.578 -0.0117  2.6105  1.1786
11057TIP3   OH254585   4.266   5.044  11.773 -0.0372  0.4384 -0.0512
11057TIP3    H154586   4.249   5.129  11.731 -2.6622 -0.2139 -0.4792
11057TIP3    H254587   4.284   4.985  11.700 -0.2316  0.2175  0.0775
11058TIP3   OH254588   3.250   2.090  12.447  0.3424  0.0531  0.3606
11058TIP3    H154589   3.321   2.150  12.425  0.6903  0.2922  1.9795
11058TIP3    H254590   3.241   2.098  12.542 -2.4298  0.6604  0.1248
11059TIP3   OH254591   6.284   5.596  11.943  0.0988 -0.4073  0.2601
11059TIP3    H154592   6.320   5.673  11.900 -1.6727 -0.6604 -1.8345
11059TIP3    H254593   6.262   5.627  12.031  0.1758  1.2558 -0.2728
11060TIP3   OH254594   4.233   5.034   3.922  0.3816 -0.5194 -0.1383
11060TIP3    H154595   4.147   5.069   3.897 -0.2679 -1.1693  1.1328
11060TIP3    H254596   4.247   4.962   3.861  0.7133  0.4755 -1.2987
11061TIP3   OH254597   4.884   4.078   0.410  0.2340 -0.0198  0.0998
11061TIP3    H154598   4.927   3.994   0.424  0.7226  0.3588  0.9939
11061TIP3    H254599   4.851   4.103   0.497 -1.2516  0.0027 -0.4440
11062TIP3   OH254600   2.272   0.355  15.786 -0.2438 -0.2219 -0.1321
11062TIP3    H154601   2.344   0.336  15.727  0.9137 -1.8709  1.6692
11062TIP3    H254602   2.245   0.269  15.820 -0.5621  0.6458  1.9900
11063TIP3   OH254603   2.964   5.871  13.871  0.1308 -0.3151  0.1030
11063TIP3    H154604   2.939   5.954  13.912 -1.0765 -0.3844 -0.4689
11063TIP3    H254605   2.924   5.804  13.926 -0.3639 -0.4542 -0.4191
11064TIP3   OH254606   2.661   5.686  14.926  0.1687  0.0322  0.2028
11064TIP3    H154607   2.728   5.726  14.980  0.9512 -2.0530  0.8852
11064TIP3    H254608   2.689   5.705  14.836  0.1135  1.5599  0.4856
11065TIP3   OH254609   5.870   2.003  12.558  0.4752  0.7610 -0.2462
11065TIP3    H154610   5.880   1.908  12.569  1.9453  0.6426 -2.0195
11065TIP3    H254611   5.796   2.026  12.613  0.8598 -1.2182  1.2124
11066TIP3   OH254612   3.521   4.251  11.602  0.2822 -0.3781 -0.4657
11066TIP3    H154613   3.584   4.232  11.671  0.0298  0.7450  0.1091
11066TIP3    H254614   3.489   4.339  11.623 -2.9384 -1.6173  0.4250
11067TIP3   OH254615   3.133   3.659   2.156  0.0281 -0.4450  0.2127
11067TIP3    H154616   3.175   3.678   2.240  1.8301 -0.1965 -0.6973
11067TIP3    H254617   3.200   3.612   2.105 -0.8263 -0.1395 -1.2646
11068TIP3   OH254618   4.171   5.861  14.405  0.4672  0.3098 -0.0370
11068TIP3    H154619   4.091   5.822  14.441  0.1961  0.2378 -0.7052
11068TIP3    H254620   4.162   5.851  14.311  0.5495  1.7014 -0.2109
11069TIP3   OH254621   1.679   3.643  13.831  0.1055 -0.4882 -0.2133
11069TIP3    H154622   1.627   3.721  13.817  1.5668  0.4467 -0.7055
11069TIP3    H254623   1.752   3.673  13.886  1.9818 -0.9024 -2.3377
11070TIP3   OH254624   3.711   5.426  16.059  0.0367 -0.5597  0.1251
11070TIP3    H154625   3.796   5.383  16.042  0.0956 -0.4736  0.2021
11070TIP3    H254626   3.731   5.492  16.125 -0.1827 -0.8586  0.4955
11071TIP3   OH254627   5.573   6.533   5.040 -0.4027  0.2943 -0.0608
11071TIP3    H154628   5.559   6.520   5.134 -1.1776 -0.7480 -0.3054
11071TIP3    H254629   5.496   6.495   4.998 -0.7591  2.0308 -1.0706
11072TIP3   OH254630   4.778   2.521   0.448  0.0292  0.2095 -0.2190
11072TIP3    H154631   4.776   2.605   0.495 -0.7471 -0.2568  0.6317
11072TIP3    H254632   4.871   2.499   0.442  0.2206  0.9716 -0.1568
11073TIP3   OH254633   2.685   2.197  14.374 -0.1734 -0.3526  0.0135
11073TIP3    H154634   2.624   2.154  14.314 -0.1798 -1.5983  0.8674
11073TIP3    H254635   2.631   2.224  14.449 -0.4410  2.4949 -1.0801
11074TIP3   OH254636   1.016   3.191  15.896 -0.3111  0.1590 -0.6927
11074TIP3    H154637   0.996   3.155  15.810  1.5078 -1.3353 -0.5652
11074TIP3    H254638   1.078   3.262  15.879  0.5062 -0.5204 -0.6021
11075TIP3   OH254639   3.044   0.316  12.991  0.0308  0.4991  0.5225
11075TIP3    H154640   3.108   0.361  12.936 -1.6694  1.2700 -0.9533
11075TIP3    H254641   3.024   0.235  12.943 -0.7143  0.6813  0.5135
11076TIP3   OH254642   5.430   0.561   2.568  0.4556 -0.2075 -0.1186
11076TIP3    H154643   5.402   0.504   2.639  1.5079 -2.4947 -1.4134
11076TIP3    H254644   5.412   0.511   2.488 -0.5011  2.1761 -1.5095
11077TIP3   OH254645   3.528   5.692   2.673  0.2908 -0.4600  0.1813
11077TIP3    H154646   3.487   5.768   2.631  2.8776  0.8502 -0.1796
11077TIP3    H254647   3.549   5.722   2.762 -0.9223 -1.6622  0.9199
11078TIP3   OH254648   0.322   5.745  16.045 -0.3204 -0.3815  0.3338
11078TIP3    H154649   0.393   5.717  16.104 -0.0064 -0.9283 -0.2943
11078TIP3    H254650   0.366   5.763  15.962 -1.0456 -1.7538 -0.3769
11079TIP3   OH254651   5.000   0.056   5.580  0.4914 -0.0029 -0.3852
11079TIP3    H154652   4.940   0.119   5.540  0.4368 -0.2267 -0.6611
11079TIP3    H254653   5.084   0.101   5.585  0.5232 -0.0059 -0.8464
11080TIP3   OH254654   2.583   0.975   6.095 -0.2907  0.1800  0.2092
11080TIP3    H154655   2.654   0.920   6.060 -0.4805  0.5926 -0.8895
11080TIP3    H254656   2.554   1.026   6.019 -1.2654  0.5563  0.8229
11081TIP3   OH254657   6.577   2.118   4.980  0.3641  0.4378  0.0643
11081TIP3    H154658   6.505   2.180   4.980 -1.6564 -1.7200 -1.9902
11081TIP3    H254659   6.607   2.113   4.889  0.5033 -1.4725  0.1578
11082TIP3   OH254660   5.460   2.126   5.091  0.2401  0.4015  0.4302
11082TIP3    H154661   5.477   2.154   5.181  0.4748  0.4223  0.3809
11082TIP3    H254662   5.365   2.129   5.082  0.1073 -0.8740  1.0998
11083TIP3   OH254663   3.582   4.172  11.951 -0.4775  0.4413  0.0611
11083TIP3    H154664   3.605   4.092  11.904 -0.3048  0.8397 -0.5435
11083TIP3    H254665   3.665   4.216  11.965 -0.8239  2.1530 -2.6140
11084TIP3   OH254666   2.119   4.629   4.376 -0.0295  0.0876  0.1475
11084TIP3    H154667   2.200   4.583   4.400  0.7272  0.7547 -1.0569
11084TIP3    H254668   2.056   4.558   4.360  0.2462 -0.4353  1.2200
11085TIP3   OH254669   6.810   5.548   1.565 -0.7194  0.8267 -0.1159
11085TIP3    H154670   6.863   5.607   1.511 -0.1383 -0.0366 -0.5191
11085TIP3    H254671   6.801   5.594   1.649 -1.3365  2.0262 -0.8116
11086TIP3   OH254672   4.779   2.728   2.678  0.0174 -0.1652  0.3774
11086TIP3    H154673   4.737   2.648   2.710  0.7703 -0.5397  0.4538
11086TIP3    H254674   4.716   2.798   2.697 -1.3470 -0.9262 -1.1156
11087TIP3   OH254675   5.450   5.607  13.831 -0.0367  0.0942 -0.1161
11087TIP3    H154676   5.470   5.528  13.881 -0.4838  0.2486  0.3161
11087TIP3    H254677   5.359   5.595  13.801 -0.9153  1.3654  1.7991
11088TIP3   OH254678   1.250   1.950   2.961 -0.7590  0.2299  0.5303
11088TIP3    H154679   1.206   1.925   3.042 -1.8688  0.6065  0.0657
11088TIP3    H254680   1.206   2.030   2.933  1.9595  2.1976  1.3926
11089TIP3   OH254681   1.430   2.980  11.723 -0.0638  0.1858  0.7871
11089TIP3    H154682   1.391   2.912  11.668  0.2395 -0.0640  0.8786
11089TIP3    H254683   1.395   3.062  11.688  1.6660  0.1989 -1.0982
11090TIP3   OH254684   2.405   0.364  10.652  0.5137 -0.2485  0.4310
11090TIP3    H154685   2.361   0.367  10.568  1.7301 -1.8792 -0.3264
11090TIP3    H254686   2.485   0.415  10.639 -0.0687  0.8940  1.1423
11091TIP3   OH254687   1.193   3.060   3.135 -0.3980  0.9388 -0.2631
11091TIP3    H154688   1.100   3.046   3.153 -0.4038  1.8203  0.4894
11091TIP3    H254689   1.227   3.099   3.216  0.8801 -0.4312 -0.1097
11092TIP3   OH254690   0.213   1.664   0.874 -0.0288 -0.1979 -0.3335
11092TIP3    H154691   0.237   1.727   0.805 -0.5452  0.7690  0.3558
11092TIP3    H254692   0.272   1.685   0.946 -1.2753  0.5666  0.4806
11093TIP3   OH254693   0.579   0.955  15.870 -0.1125  0.0659  0.7485
11093TIP3    H154694   0.587   1.050  15.879  1.3553 -0.1068  1.6817
11093TIP3    H254695   0.489   0.936  15.897  0.0830  1.0349  2.2060
11094TIP3   OH254696   2.780   0.398  16.464 -0.5588  0.0064  1.0077
11094TIP3    H154697   2.774   0.374  16.372  0.7477  2.6341  0.1468
11094TIP3    H254698   2.690   0.409  16.493 -0.9429  0.6544 -0.3910
11095TIP3   OH254699   6.020   1.425  14.927 -0.4355 -0.4829 -0.7873
11095TIP3    H154700   6.089   1.491  14.926  2.6782 -3.3824  0.8054
11095TIP3    H254701   5.972   1.442  15.008 -2.0947  1.8478 -2.1346
11096TIP3   OH254702   6.712   3.990   0.453  0.6018 -0.2754  0.0994
11096TIP3    H154703   6.722   4.084   0.463 -2.2081  0.0002  1.4166
11096TIP3    H254704   6.768   3.953   0.521 -0.0022  0.5924  1.1023
11097TIP3   OH254705   0.305   1.155   3.488  0.4438 -0.2281  0.0447
11097TIP3    H154706   0.240   1.104   3.536  0.2001  0.6681  0.6955
11097TIP3    H254707   0.261   1.239   3.471  0.7675 -0.2898 -1.1680
11098TIP3   OH254708   5.742   4.832  14.770  0.2087 -0.9383 -0.0775
11098TIP3    H154709   5.792   4.849  14.850 -2.3317  0.4646  1.3479
11098TIP3    H254710   5.684   4.759  14.793  0.0898 -1.1354 -0.9709
11099TIP3   OH254711   2.995   3.356   5.434  0.2725  0.2474 -0.7545
11099TIP3    H154712   3.004   3.306   5.353  0.1297 -0.0511 -0.5889
11099TIP3    H254713   2.900   3.361   5.448  0.1746  2.3070 -1.8384
11100TIP3   OH254714   3.324   5.717  11.544  0.9942  0.1540  0.4874
11100TIP3    H154715   3.404   5.665  11.545  0.3091 -0.9313  1.7246
11100TIP3    H254716   3.297   5.723  11.636 -1.0528 -0.6709  0.0023
11101TIP3   OH254717   0.876   2.930   2.733  0.0437  0.1864  0.5843
11101TIP3    H154718   0.880   2.903   2.641  0.4865 -0.7570  0.8665
11101TIP3    H254719   0.783   2.931   2.755 -0.0098 -0.5193  0.3880
11102TIP3   OH254720   5.085   3.579  11.159 -0.2163  0.4911  0.2437
11102TIP3    H154721   5.003   3.553  11.200 -0.4912  1.5886  0.4045
11102TIP3    H254722   5.063   3.590  11.066  0.5313 -2.5634 -0.4066
11103TIP3   OH254723   5.224   5.733  14.986 -0.3834 -0.2554 -0.4215
11103TIP3    H154724   5.164   5.764  15.054 -1.5494 -0.6283 -1.2497
11103TIP3    H254725   5.189   5.649  14.960 -0.3569  0.1841 -1.9571
11104TIP3   OH254726   1.749   6.209   2.489  0.1410 -0.4139  0.2181
11104TIP3    H154727   1.842   6.187   2.489 -0.0821 -1.4832 -0.7612
11104TIP3    H254728   1.725   6.215   2.581  1.0717 -0.6116  0.4806
11105TIP3   OH254729   0.057   5.863   3.726  0.6761 -0.1254 -0.1271
11105TIP3    H154730   0.082   5.932   3.665  0.9988  0.9945  1.2190
11105TIP3    H254731   0.001   5.907   3.790 -2.4639 -1.9383 -1.4029
11106TIP3   OH254732   5.304   1.730  10.907  0.1163 -0.1276 -0.2764
11106TIP3    H154733   5.263   1.812  10.934 -0.5423 -0.6592  0.3724
11106TIP3    H254734   5.341   1.749  10.820  0.0979  0.8859 -0.0743
11107TIP3   OH254735   5.994   1.898   5.426 -0.0559 -0.3627 -0.5893
11107TIP3    H154736   5.940   1.827   5.462  0.8447 -0.3746  0.8548
11107TIP3    H254737   6.084   1.867   5.438  0.3329  0.7128 -0.6033
11108TIP3   OH254738   4.586   2.080  16.292  1.0561  0.5008 -0.8630
11108TIP3    H154739   4.676   2.087  16.260  1.7760 -1.0373  0.6673
11108TIP3    H254740   4.573   2.158  16.347  1.5627  0.5744 -0.8507
11109TIP3   OH254741   3.093   0.624   4.371  0.0746  0.1706  0.1780
11109TIP3    H154742   3.016   0.632   4.427  0.4109  1.4145  0.4933
11109TIP3    H254743   3.135   0.543   4.400 -0.8472 -0.2733  0.3189
11110TIP3   OH254744   1.879   2.000   4.939  0.2283  0.2298 -0.0152
11110TIP3    H154745   1.948   1.978   5.001  1.1274  0.7020 -0.8303
11110TIP3    H254746   1.811   1.934   4.955  0.7258 -0.0562  1.0013
11111TIP3   OH254747   6.363   0.258  16.772  0.1820  0.6231  0.1717
11111TIP3    H154748   6.290   0.291  16.720  0.8380  0.4090 -0.9276
11111TIP3    H254749   6.363   0.163  16.757 -0.7333  0.2842  2.0563
11112TIP3   OH254750   6.298   4.178  13.289  0.1905 -0.1944 -0.2402
11112TIP3    H154751   6.279   4.268  13.313 -0.7638 -0.4346 -0.0283
11112TIP3    H254752   6.382   4.158  13.330 -0.7881 -0.2086  1.9042
11113TIP3   OH254753   2.676   3.926  15.124  0.2570 -0.8451 -0.0715
11113TIP3    H154754   2.766   3.898  15.141  1.2735  1.6210 -0.8986
11113TIP3    H254755   2.657   3.989  15.193 -1.0867 -1.7548  0.4271
11114TIP3   OH254756   4.497   2.037  13.928  0.2746  0.0341 -0.0528
11114TIP3    H154757   4.512   2.005  13.840 -1.2889  0.6473 -0.5921
11114TIP3    H254758   4.415   1.995  13.955  0.6083  0.0387  1.0066
11115TIP3   OH254759   3.391   1.396  16.261 -0.2658 -0.1247  0.9913
11115TIP3    H154760   3.358   1.331  16.199 -0.3177  0.0859  0.8008
11115TIP3    H254761   3.427   1.344  16.333 -1.0008 -0.3571  1.1948
11116TIP3   OH254762   2.305   1.758   0.213 -0.5450  0.1302 -0.4772
11116TIP3    H154763   2.294   1.667   0.184  0.5376 -0.0728 -0.2804
11116TIP3    H254764   2.336   1.751   0.303  0.7915  0.6601 -0.8736
11117TIP3   OH254765   1.745   6.281  10.511 -0.3416 -0.1329  0.1870
11117TIP3    H154766   1.661   6.312  10.476 -1.2411 -1.7221  0.8240
11117TIP3    H254767   1.723   6.248  10.599  0.7106 -1.6155 -0.0818
11118TIP3   OH254768   3.112   6.701   2.100  0.4766 -0.0696  0.2667
11118TIP3    H154769   3.193   6.660   2.131  0.4647  0.6212  1.2532
11118TIP3    H254770   3.054   6.701   2.176 -1.0307 -1.8896 -0.7815
11119TIP3   OH254771   1.821   4.937   0.308 -0.0012  0.0526 -0.7483
11119TIP3    H154772   1.820   4.841   0.299 -1.1449 -0.1644  1.2214
11119TIP3    H254773   1.838   4.953   0.400 -1.2822  1.7042 -0.7394
11120TIP3   OH254774   2.299   6.074  14.717  0.3488  0.4284 -0.5763
11120TIP3    H154775   2.373   6.115  14.671 -0.0583  0.5647 -1.1286
11120TIP3    H254776   2.245   6.147  14.746  1.2964  0.4081  1.3650
11121TIP3   OH254777   1.781   1.652  17.027 -0.5275  0.1270 -0.6955
11121TIP3    H154778   1.845   1.649  16.956  0.3417  1.6191 -0.0112
11121TIP3    H254779   1.727   1.574  17.013  2.4424 -2.1699 -0.3316
11122TIP3   OH254780   5.988   1.939   4.651 -0.0410  0.0243 -0.9873
11122TIP3    H154781   6.027   1.874   4.709 -0.9716  1.6116  1.6169
11122TIP3    H254782   5.902   1.904   4.630 -0.0915 -0.1163 -0.5555
11123TIP3   OH254783   4.950   1.224   5.101 -0.2384 -0.4012  0.1191
11123TIP3    H154784   4.902   1.252   5.023 -0.4717 -2.2301 -0.4382
11123TIP3    H254785   4.882   1.192   5.160  0.0936 -0.9064  0.2373
11124TIP3   OH254786   6.585   6.466   0.487 -0.1092  0.1666 -0.2853
11124TIP3    H154787   6.530   6.464   0.565  0.4339  1.4139  0.1581
11124TIP3    H254788   6.563   6.548   0.444  1.1926  0.5803 -0.2239
11125TIP3   OH254789   3.895   5.110  15.707 -0.3077 -0.1063  0.8478
11125TIP3    H154790   3.878   5.204  15.713  0.3698  0.0804  0.0524
11125TIP3    H254791   3.909   5.082  15.797  2.2700  1.1125  0.9109
11126TIP3   OH254792   3.959   5.636   5.820  0.5778 -0.4304 -0.2592
11126TIP3    H154793   3.984   5.625   5.912 -1.8393 -4.0136  0.1709
11126TIP3    H254794   3.869   5.668   5.823  0.9560  0.8404 -1.4696
11127TIP3   OH254795   3.850   6.322   4.749  0.0842 -0.3584  0.1477
11127TIP3    H154796   3.849   6.418   4.756  2.5115 -0.0925 -1.6939
11127TIP3    H254797   3.927   6.295   4.798  0.4323 -1.1583 -0.8050
11128TIP3   OH254798   0.193   0.321   5.373 -0.4798  0.6862  0.5337
11128TIP3    H154799   0.110   0.339   5.328 -1.3087  0.7005  2.0194
11128TIP3    H254800   0.226   0.407   5.397 -0.0581  0.6755  0.0116
11129TIP3   OH254801   6.335   6.658  11.138 -0.6165 -0.5010 -0.0322
11129TIP3    H154802   6.262   6.623  11.190 -2.0076 -1.2408 -2.3406
11129TIP3    H254803   6.293   6.697  11.061  1.3829  0.0037 -0.9157
11130TIP3   OH254804   1.846   6.168  12.539 -0.0563  0.8377  0.1839
11130TIP3    H154805   1.860   6.074  12.536  0.8683  0.9393  0.9443
11130TIP3    H254806   1.932   6.206  12.521  0.1046  1.5124  2.1697
11131TIP3   OH254807   4.225   6.206   0.239 -0.4255  0.0086  0.2255
11131TIP3    H154808   4.145   6.257   0.228  0.3643  1.8011  2.1965
11131TIP3    H254809   4.237   6.200   0.334  0.0287 -3.1562  0.0902
11132TIP3   OH254810   2.844   2.965   5.863  0.2439  0.5914 -0.2116
11132TIP3    H154811   2.918   2.972   5.923 -0.1735 -0.2312  0.4394
11132TIP3    H254812   2.859   3.032   5.797  0.2330  2.2059  1.3464
11133TIP3   OH254813   3.710   2.599  15.769 -0.0404 -0.0625  0.1529
11133TIP3    H154814   3.626   2.554  15.761  0.0430 -0.3046  0.5914
11133TIP3    H254815   3.748   2.565  15.850  1.0216 -0.8411 -0.6407
11134TIP3   OH254816   4.489   1.152  17.044 -0.1408  0.0102  0.9643
11134TIP3    H154817   4.566   1.105  17.077  0.7202  0.8534  0.2041
11134TIP3    H254818   4.489   1.134  16.950 -1.4252 -0.7478  1.0929
11135TIP3   OH254819   1.317   6.392   3.990  0.3875 -0.5125 -0.0010
11135TIP3    H154820   1.376   6.461   4.019  0.9281 -1.2061  0.5984
11135TIP3    H254821   1.335   6.382   3.897 -0.8247  1.2237 -0.4745
11136TIP3   OH254822   0.942   0.359  13.576  0.3048  0.0957 -0.0775
11136TIP3    H154823   0.882   0.308  13.630 -2.0580  2.0642 -0.6550
11136TIP3    H254824   0.960   0.437  13.628  2.7772 -0.5925  0.2300
11137TIP3   OH254825   1.125   4.855   2.414 -0.4548  0.2249  0.0555
11137TIP3    H154826   1.036   4.865   2.446 -1.0204 -1.2742 -0.9312
11137TIP3    H254827   1.118   4.794   2.341  1.6759 -2.0327  1.5555
11138TIP3   OH254828   5.785   4.978   3.847  0.0010  0.5316 -0.0442
11138TIP3    H154829   5.730   4.941   3.917 -0.3126 -0.9187 -1.0267
11138TIP3    H254830   5.875   4.967   3.879 -0.1724  0.6340  0.4857
11139TIP3   OH254831   2.343   5.240   0.294  0.0047  0.3008  0.3925
11139TIP3    H154832   2.436   5.226   0.310 -0.0927 -0.1004  0.6274
11139TIP3    H254833   2.299   5.188   0.362 -0.3899  0.4360  0.2435
11140TIP3   OH254834   2.206   2.139  16.816 -0.4143  0.1398 -0.0088
11140TIP3    H154835   2.211   2.095  16.731 -1.1442 -0.1864  0.1151
11140TIP3    H254836   2.298   2.152  16.841 -0.0624 -3.4402  1.0599
11141TIP3   OH254837   2.083   2.405   5.776 -0.0371 -0.0533  0.4717
11141TIP3    H154838   2.104   2.353   5.698  0.3274 -2.5342  2.1034
11141TIP3    H254839   2.107   2.494   5.752  2.9578 -1.1744 -1.2586
11142TIP3   OH254840   2.511   4.949   1.078  0.4917 -0.5699  0.1264
11142TIP3    H154841   2.599   4.973   1.049  0.5393 -1.2845 -0.3198
11142TIP3    H254842   2.452   4.993   1.017  0.5716 -1.2686 -0.4593
11143TIP3   OH254843   6.393   0.367  16.035  0.3775  0.1169 -0.3462
11143TIP3    H154844   6.372   0.337  16.124  0.3788  0.2297 -0.3062
11143TIP3    H254845   6.488   0.379  16.035  0.2578  1.1384 -0.0369
11144TIP3   OH254846   4.225   3.839   0.227 -0.6720  0.3377 -0.3340
11144TIP3    H154847   4.281   3.895   0.174  0.2265 -0.1066  0.1285
11144TIP3    H254848   4.238   3.751   0.191 -0.4456  0.1092  0.2910
11145TIP3   OH254849   6.118   1.221   4.243  0.6566 -0.1896 -0.3374
11145TIP3    H154850   6.202   1.264   4.230  1.4699 -1.4053  0.7047
11145TIP3    H254851   6.122   1.184   4.331  0.3379 -3.0232 -1.4056
11146TIP3   OH254852   6.017   0.264  11.449  0.0623  0.0267 -0.0637
11146TIP3    H154853   6.048   0.304  11.530 -0.2331 -0.3486  0.2395
11146TIP3    H254854   6.096   0.230  11.407  0.0857 -0.9340  0.7101
11147TIP3   OH254855   6.111   6.717  13.639 -0.0212  0.0930 -0.3785
11147TIP3    H154856   6.170   6.774  13.688  1.4029 -1.2639 -0.4105
11147TIP3    H254857   6.148   6.716  13.550 -0.5800 -0.1314 -0.6094
11148TIP3   OH254858   0.169   5.949  16.853  0.1225  0.0555  0.1497
11148TIP3    H154859   0.241   6.010  16.838 -0.0658  0.3133  0.2965
11148TIP3    H254860   0.208   5.862  16.840 -0.0717  0.2594 -2.0224
11149TIP3   OH254861   3.471   5.456  13.380  0.0848  0.0754 -0.3390
11149TIP3    H154862   3.459   5.479  13.287 -2.2277  1.7528  0.2670
11149TIP3    H254863   3.404   5.390  13.397 -0.3499  0.6763  0.3784
11150TIP3   OH254864   4.847   5.275   0.974  0.1650 -0.4528  0.7505
11150TIP3    H154865   4.817   5.281   0.884 -1.9646 -0.7498  1.3795
11150TIP3    H254866   4.837   5.182   0.997  0.5056 -0.3509  1.3492
11151TIP3   OH254867   3.034   6.451  14.456 -0.0839 -0.7668  0.2439
11151TIP3    H154868   2.955   6.491  14.419 -0.5826  0.9377  2.9152
11151TIP3    H254869   3.076   6.522  14.504  0.4606 -2.7648  2.9624
11152TIP3   OH254870   4.872   1.810   1.674 -0.0592 -0.2405 -0.0234
11152TIP3    H154871   4.895   1.902   1.687  0.5686 -0.5662  1.3712
11152TIP3    H254872   4.799   1.812   1.612  0.5251  1.1284 -0.7107
11153TIP3   OH254873   5.762   6.185  14.508  0.0504  0.7668  0.1604
11153TIP3    H154874   5.738   6.233  14.430  1.4316  1.3141  0.0316
11153TIP3    H254875   5.722   6.234  14.580 -0.2759  0.9130 -0.1185
11154TIP3   OH254876   3.905   0.013  15.325 -0.1676 -0.0520  0.4456
11154TIP3    H154877   3.861  -0.053  15.378  1.6800 -0.4708  1.5475
11154TIP3    H254878   3.841   0.038  15.259 -2.6662  0.5634  2.9025
11155TIP3   OH254879   3.536   2.081   1.183 -0.3995  0.2632  0.5380
11155TIP3    H154880   3.474   2.139   1.139  1.0161  0.4183 -1.3535
11155TIP3    H254881   3.610   2.137   1.205  0.2466 -0.4743  0.2767
11156TIP3   OH254882   2.385   0.540   4.447 -0.3576  0.2272  0.6801
11156TIP3    H154883   2.374   0.540   4.352  1.8396 -1.1487  0.3489
11156TIP3    H254884   2.435   0.460   4.465  0.0641  0.9293  2.9038
11157TIP3   OH254885   3.898   4.006  12.033 -0.7765 -0.4851  0.4043
11157TIP3    H154886   3.826   4.044  11.984  1.0988 -0.3131 -2.4346
11157TIP3    H254887   3.919   3.925  11.986  0.3870 -0.9432  1.6419
11158TIP3   OH254888   1.382   0.118   4.345 -0.0105  0.0202 -0.1553
11158TIP3    H154889   1.305   0.068   4.316 -0.9630  1.1892  0.2547
11158TIP3    H254890   1.354   0.209   4.340  1.6640  0.5237 -0.8166
11159TIP3   OH254891   1.726   3.448  12.153  0.1038  0.1576  0.0338
11159TIP3    H154892   1.644   3.480  12.114  0.8648  0.1260 -1.6481
11159TIP3    H254893   1.697   3.384  12.218 -1.2372  0.5321 -0.1497
11160TIP3   OH254894   2.249   3.999  16.291 -0.2958  0.5168 -0.9411
11160TIP3    H154895   2.229   4.048  16.211 -0.5250  0.5050 -0.8912
11160TIP3    H254896   2.283   4.066  16.351 -1.4917  0.7996 -0.5445
11161TIP3   OH254897   6.384   4.127   5.730  0.9163 -0.4815 -0.4841
11161TIP3    H154898   6.419   4.143   5.642 -1.4742 -2.4479 -1.9326
11161TIP3    H254899   6.290   4.143   5.722  0.6777 -0.3550  1.8514
11162TIP3   OH254900   6.678   0.588   2.032  0.1039  0.0275 -0.2094
11162TIP3    H154901   6.585   0.569   2.040  0.0655  0.8321  1.5858
11162TIP3    H254902   6.687   0.623   1.943 -1.4280  0.5657 -0.1890
11163TIP3   OH254903   3.301   1.927  13.973  0.8876 -0.3077  0.7313
11163TIP3    H154904   3.324   1.893  14.059 -1.7910  1.5542  2.3197
11163TIP3    H254905   3.221   1.881  13.949  1.1124 -0.1642 -0.3624
11164TIP3   OH254906   3.087   1.849   4.442 -0.3328 -0.4723  0.3950
11164TIP3    H154907   3.165   1.900   4.462  1.0266 -1.8301 -1.1223
11164TIP3    H254908   3.014   1.902   4.474  1.1900  0.8249  1.8927
11165TIP3   OH254909   4.807   2.277  13.110 -0.2818 -0.0150  0.1637
11165TIP3    H154910   4.757   2.339  13.164  0.3453  1.1739 -0.5636
11165TIP3    H254911   4.853   2.333  13.047  0.1495 -1.2586 -0.6518
11166TIP3   OH254912   3.182   1.322  13.130 -0.6037  0.5391 -0.3871
11166TIP3    H154913   3.205   1.351  13.218 -0.4183  2.0036 -0.8925
11166TIP3    H254914   3.209   1.230  13.127  0.8980  0.9284  0.5471
11167TIP3   OH254915   3.753   6.164   2.674 -0.1740  0.0256 -0.3965
11167TIP3    H154916   3.733   6.201   2.588  0.9701  2.5105  0.3238
11167TIP3    H254917   3.844   6.137   2.668  0.5757  2.1221  0.5653
11168TIP3   OH254918   5.341   2.389   4.364  0.0956  0.1005  0.4789
11168TIP3    H154919   5.323   2.467   4.310  0.1779  0.0363  0.3561
11168TIP3    H254920   5.262   2.337   4.358  0.3897 -0.2853 -0.2372
11169TIP3   OH254921   5.535   2.236  12.152 -0.2228  0.3662  0.1291
11169TIP3    H154922   5.582   2.262  12.073 -0.8828 -0.1385 -0.4360
11169TIP3    H254923   5.450   2.278  12.145  0.1794  1.4372  1.2469
11170TIP3   OH254924   5.136   3.052  14.151  0.1184 -0.3817  0.3874
11170TIP3    H154925   5.073   3.030  14.220 -0.3864 -0.3830 -0.0665
11170TIP3    H254926   5.097   3.126  14.106  0.4737 -0.3451  0.1345
11171TIP3   OH254927   0.645   1.188  12.648  0.5169  0.1502  0.0546
11171TIP3    H154928   0.576   1.130  12.680 -1.2659  1.5226 -1.0800
11171TIP3    H254929   0.599   1.252  12.593  2.8086  0.6251 -1.4632
11172TIP3   OH254930   0.232   1.183   5.156 -0.0939  0.0117  0.1955
11172TIP3    H154931   0.287   1.214   5.227 -0.2997  0.1286  0.3031
11172TIP3    H254932   0.197   1.262   5.115 -1.0409 -0.0805  0.8024
11173TIP3   OH254933   3.150   3.850   6.230 -0.2230 -0.1616  0.3262
11173TIP3    H154934   3.097   3.929   6.230  0.2483  0.2129 -1.7098
11173TIP3    H254935   3.230   3.875   6.276 -0.5717  0.1892  0.7430
11174TIP3   OH254936   5.502   4.333   2.523  0.2106  0.7419  0.4866
11174TIP3    H154937   5.419   4.381   2.517 -0.6009 -0.6123  0.3127
11174TIP3    H254938   5.553   4.362   2.447 -0.2740  1.2906  0.3674
11175TIP3   OH254939   4.648   0.527  14.037  0.0378 -0.3345 -0.4010
11175TIP3    H154940   4.624   0.599  14.095  2.9506 -1.0109  1.8385
11175TIP3    H254941   4.662   0.568  13.951 -0.5098  1.3606  0.2851
11176TIP3   OH254942   1.826   0.552   5.029  0.0350 -0.3313 -0.3542
11176TIP3    H154943   1.809   0.633   4.980  1.5942  0.5861  0.5465
11176TIP3    H254944   1.895   0.508   4.979  1.9356  0.8136  1.1660
11177TIP3   OH254945   3.125   6.002   3.114 -0.0663  0.9475  0.0409
11177TIP3    H154946   3.034   5.977   3.097 -0.1555  1.1369  0.2403
11177TIP3    H254947   3.124   6.097   3.122  0.3763  1.0821 -1.2908
11178TIP3   OH254948   6.179   0.651   0.921 -0.3777  0.3268  0.6711
11178TIP3    H154949   6.264   0.671   0.880  0.9895 -1.0197  2.6540
11178TIP3    H254950   6.133   0.598   0.856  1.5380 -1.3850  0.6153
11179TIP3   OH254951   0.495   0.521  11.804  0.2305 -0.3939  0.4735
11179TIP3    H154952   0.514   0.443  11.753  1.8624  0.2566  0.0233
11179TIP3    H254953   0.567   0.581  11.785 -1.9329  2.0411 -0.7834
11180TIP3   OH254954   0.888   5.450   2.636 -0.1897  0.0733 -0.0108
11180TIP3    H154955   0.939   5.404   2.569 -0.6020  1.4968 -1.3809
11180TIP3    H254956   0.951   5.511   2.676 -0.1435 -0.1848  0.3124
11181TIP3   OH254957   1.423   5.620   6.085 -0.2814  0.2462  0.0007
11181TIP3    H154958   1.339   5.608   6.130 -0.9960 -0.0998 -1.3448
11181TIP3    H254959   1.401   5.673   6.008  0.7625  0.2809 -0.2894
11182TIP3   OH254960   5.716   5.667   5.871 -0.5274 -0.5102 -0.0490
11182TIP3    H154961   5.750   5.674   5.961 -0.0356  1.4166 -0.3291
11182TIP3    H254962   5.683   5.755   5.852 -2.1944 -1.3358 -1.1802
11183TIP3   OH254963   0.787   3.223  13.745  0.1855 -0.3912 -0.2855
11183TIP3    H154964   0.746   3.306  13.722  0.6044 -0.4903 -1.4425
11183TIP3    H254965   0.787   3.172  13.664  1.7973 -0.7264 -0.1149
11184TIP3   OH254966   3.770   2.412   5.356 -0.0737  0.8083 -0.0747
11184TIP3    H154967   3.785   2.487   5.414  0.3849  1.5136 -1.0826
11184TIP3    H254968   3.676   2.397   5.361 -0.2273  1.6637 -0.0898
11185TIP3   OH254969   0.172   4.934  16.453  0.1845 -0.5836  0.1582
11185TIP3    H154970   0.199   4.895  16.536 -2.0282 -0.9318  0.7855
11185TIP3    H254971   0.081   4.962  16.468  0.4814  1.5058 -1.4202
11186TIP3   OH254972   6.721   1.911   1.594  1.0015  0.3080  0.2427
11186TIP3    H154973   6.789   1.844   1.594  1.2568  0.5410 -0.9499
11186TIP3    H254974   6.656   1.879   1.656  0.9139 -1.2646 -0.6003
11187TIP3   OH254975   6.113   1.206  14.564 -0.8516  0.2032 -0.0949
11187TIP3    H154976   6.193   1.199  14.511 -0.5850  1.0698  0.1854
11187TIP3    H254977   6.049   1.152  14.517  0.1432 -1.2923  0.1813
11188TIP3   OH254978   2.076   6.642   0.384 -0.0280  0.0186 -0.0044
11188TIP3    H154979   2.132   6.593   0.324 -0.8047 -0.2094 -0.5474
11188TIP3    H254980   2.102   6.733   0.371  0.2237 -0.0839 -0.2368
11189TIP3   OH254981   0.240   3.983  13.295 -0.2803 -0.3989  0.0529
11189TIP3    H154982   0.172   4.040  13.331  0.0927  1.3081 -1.7987
11189TIP3    H254983   0.322   4.019  13.329 -0.1574 -1.3603  0.8294
11190TIP3   OH254984   4.341   0.403   1.299  0.1915  0.1819  0.4111
11190TIP3    H154985   4.428   0.367   1.316  1.0658  1.5417 -0.8875
11190TIP3    H254986   4.342   0.425   1.206 -1.2446  1.0144  0.5590
11191TIP3   OH254987   2.789   4.139  10.909  0.4201  0.0558  0.1121
11191TIP3    H154988   2.777   4.228  10.878 -0.6133 -0.6218 -1.5486
11191TIP3    H254989   2.873   4.141  10.955  1.0982  1.5820 -1.0960
11192TIP3   OH254990   5.919   3.733  11.288  0.0217 -0.0441  0.4961
11192TIP3    H154991   5.849   3.738  11.354  0.0417 -0.7809  0.5754
11192TIP3    H254992   5.908   3.813  11.237  0.0422  0.5771  1.4286
11193TIP3   OH254993   5.352   1.627   0.451 -0.4844  0.3600 -0.5580
11193TIP3    H154994   5.377   1.711   0.413 -1.7431  0.7535 -0.5512
11193TIP3    H254995   5.328   1.573   0.377  0.6986 -0.1485 -0.5952
11194TIP3   OH254996   2.561   5.691  12.975  0.5453  0.1255 -0.1488
11194TIP3    H154997   2.635   5.746  13.003  0.9595 -0.4092 -0.1719
11194TIP3    H254998   2.484   5.736  13.010  0.9089  0.5037  0.1876
11195TIP3   OH254999   1.915   1.327   4.828 -0.2235 -0.1328 -0.2794
11195TIP3    H155000   1.985   1.342   4.765  0.0234  0.0836  0.0460
11195TIP3    H255001   1.906   1.409   4.876 -0.0163 -0.4719  0.3596
11196TIP3   OH255002   1.862   3.007   3.654  0.1351 -0.4536 -0.1325
11196TIP3    H155003   1.899   3.033   3.739  1.4918 -1.5295 -0.3572
11196TIP3    H255004   1.936   3.013   3.593 -0.7507  0.0277 -1.1956
11197TIP3   OH255005   6.199   3.155  16.675  0.1629 -0.9037 -0.1161
11197TIP3    H155006   6.214   3.076  16.726  1.9758 -1.7286 -1.7778
11197TIP3    H255007   6.277   3.163  16.620  1.7603  3.9318  2.2704
11198TIP3   OH255008   4.017   0.956   2.251  0.3145 -0.2644 -0.0153
11198TIP3    H155009   3.949   0.998   2.304 -0.1487 -0.4171 -0.4801
11198TIP3    H255010   4.094   1.011   2.264  0.1901 -0.2595  0.7571
11199TIP3   OH255011   0.846   6.332  13.318  0.1398  0.1213 -0.0975
11199TIP3    H155012   0.839   6.359  13.410 -2.3109  1.0096 -0.4619
11199TIP3    H255013   0.863   6.414  13.271 -0.4121 -0.0330 -0.5761
11200TIP3   OH255014   2.302   5.810  14.746 -0.4566  0.5803 -0.5655
11200TIP3    H155015   2.311   5.905  14.737  1.0434  0.6639  1.3162
11200TIP3    H255016   2.373   5.774  14.691  0.2103  0.6415  0.2352
11201TIP3   OH255017   4.412   4.863   4.452 -0.3545 -0.4361 -0.1266
11201TIP3    H155018   4.342   4.854   4.517  0.2031  2.1283  0.9279
11201TIP3    H255019   4.366   4.889   4.372 -0.7327  0.2598  0.3023
11202TIP3   OH255020   4.387   0.343  13.459 -0.3713  0.0503  0.2887
11202TIP3    H155021   4.403   0.374  13.370 -0.6447 -0.1368  0.1737
11202TIP3    H255022   4.458   0.280  13.475 -1.9663 -2.2114 -0.9160
11203TIP3   OH255023   5.034   4.864  13.264 -0.1415 -0.4212 -0.3532
11203TIP3    H155024   5.009   4.778  13.300 -0.7339 -0.2104 -0.2503
11203TIP3    H255025   5.126   4.853  13.238 -0.3389 -1.2211 -0.7538
11204TIP3   OH255026   0.756   5.599   2.409 -0.3965  0.2699  0.0504
11204TIP3    H155027   0.747   5.667   2.476 -2.5649 -0.1917  0.3191
11204TIP3    H255028   0.819   5.537   2.445 -0.7147  0.5842  1.1823
11205TIP3   OH255029   2.441   3.391  12.750  0.2258 -0.5774 -0.0669
11205TIP3    H155030   2.458   3.446  12.673 -2.8092 -1.4529 -1.5221
11205TIP3    H255031   2.525   3.350  12.769  1.3897  0.6622 -2.1120
11206TIP3   OH255032   0.285   2.820   5.190 -0.2420 -0.2859  0.3733
11206TIP3    H155033   0.256   2.839   5.101 -2.8574 -0.7099  1.0491
11206TIP3    H255034   0.335   2.739   5.183  2.0853  1.1766 -1.0581
11207TIP3   OH255035   0.022   5.349  13.558  0.2710 -0.0797  0.2162
11207TIP3    H155036  -0.012   5.372  13.472  0.6012  2.6133  0.7423
11207TIP3    H255037   0.115   5.331  13.543 -0.0275 -1.3633 -0.2277
11208TIP3   OH255038   4.299   5.363   2.036  0.3571 -0.1411 -0.5250
11208TIP3    H155039   4.235   5.309   1.989 -0.3384  0.5316 -0.3565
11208TIP3    H255040   4.334   5.304   2.103  0.7358 -0.8470 -1.3046
11209TIP3   OH255041   3.012   3.375  16.337  0.1002  0.3333 -0.3887
11209TIP3    H155042   3.070   3.448  16.356  0.6046  0.7417 -3.1385
11209TIP3    H255043   3.016   3.365  16.242 -3.0980 -0.6536 -0.5436
11210TIP3   OH255044   6.179   1.285   6.048 -0.3824  0.6190  0.1223
11210TIP3    H155045   6.126   1.205   6.043  1.4641 -0.7795  1.2557
11210TIP3    H255046   6.116   1.356   6.050 -2.1299 -0.8260 -0.5376
11211TIP3   OH255047   0.335   1.290  12.371 -0.2774 -0.3229 -0.1784
11211TIP3    H155048   0.332   1.228  12.445 -2.1025  0.0577  0.1363
11211TIP3    H255049   0.428   1.302  12.353  0.1620 -2.0828  0.6582
11212TIP3   OH255050   3.825   6.417  15.177 -0.5876 -0.4718 -0.6681
11212TIP3    H155051   3.731   6.410  15.190 -0.4258 -2.9801 -0.3996
11212TIP3    H255052   3.854   6.482  15.241 -2.1516  0.6923 -1.0848
11213TIP3   OH255053   2.776   3.872   6.390  0.1632 -0.4123 -0.5630
11213TIP3    H155054   2.829   3.799   6.357  1.3628  0.7039 -1.1629
11213TIP3    H255055   2.811   3.889   6.477  0.6793  0.1871 -0.8775
11214TIP3   OH255056   5.276   4.001   1.899 -0.4740 -0.0335 -0.0073
11214TIP3    H155057   5.326   3.968   1.825 -1.0557  0.1902 -0.5099
11214TIP3    H255058   5.287   4.096   1.895 -0.6777 -0.0063  0.0776
11215TIP3   OH255059   4.122   0.118   3.761  0.2546 -0.3192 -0.0581
11215TIP3    H155060   4.184   0.129   3.833 -1.1521  0.0829  1.1395
11215TIP3    H255061   4.132   0.026   3.735  1.8514 -0.0811 -0.4064
11216TIP3   OH255062   0.921   5.559  16.446 -0.1669  0.5524 -0.1165
11216TIP3    H155063   0.945   5.582  16.356  0.1521 -0.2367 -0.2371
11216TIP3    H255064   0.898   5.643  16.486  0.5355  1.0301 -0.6801
11217TIP3   OH255065   5.444   1.990   4.341 -0.0307 -0.5945  0.1513
11217TIP3    H155066   5.378   1.922   4.330  0.1206 -0.8640  0.8396
11217TIP3    H255067   5.396   2.063   4.382  0.1776 -0.9558  1.0702
11218TIP3   OH255068   1.375   0.914  13.688  0.1825  0.6635  0.5200
11218TIP3    H155069   1.322   0.913  13.609  0.3839 -0.5436  0.3791
11218TIP3    H255070   1.323   0.963  13.752 -0.5097  0.6161 -0.0024
11219TIP3   OH255071   5.817   2.064   1.956 -0.5468  0.0377 -0.2860
11219TIP3    H155072   5.795   1.984   1.909 -0.5454  0.3512 -0.8292
11219TIP3    H255073   5.738   2.117   1.951 -1.0600 -0.5089  1.3443
11220TIP3   OH255074   2.971   0.830  16.455  0.4930 -0.4639  0.5659
11220TIP3    H155075   2.999   0.764  16.393  0.3894 -0.3067  0.3511
11220TIP3    H255076   2.970   0.912  16.405  1.4611 -0.1453  1.0462
11221TIP3   OH255077   5.569   0.424  11.817  0.0930  0.1854  0.2190
11221TIP3    H155078   5.661   0.399  11.810  0.2873  0.9863 -0.1873
11221TIP3    H255079   5.531   0.397  11.733 -0.0271 -0.0548  0.3489
11222TIP3   OH255080   4.687   4.973  12.061 -0.4256 -0.1795 -0.2787
11222TIP3    H155081   4.603   4.990  12.019  0.0834 -1.3823 -1.8847
11222TIP3    H255082   4.718   4.892  12.021  1.1969 -0.1232  0.7665
11223TIP3   OH255083   1.528   0.615   2.828  0.9659  0.4330  0.2082
11223TIP3    H155084   1.548   0.709   2.821  2.0396  0.1789 -0.3150
11223TIP3    H255085   1.613   0.573   2.838  0.8303 -0.7645 -2.7004
11224TIP3   OH255086   4.137   1.944  16.138 -0.3215  0.0387  0.8184
11224TIP3    H155087   4.078   1.977  16.070 -0.1938 -0.6214  0.3741
11224TIP3    H255088   4.087   1.873  16.180  0.9652 -2.1734 -1.1372
11225TIP3   OH255089   5.063   0.813   2.384 -0.1414 -0.2200 -0.1048
11225TIP3    H155090   5.155   0.811   2.357  0.0658  0.1466  0.5604
11225TIP3    H255091   5.029   0.895   2.349  0.5532  1.0747  2.0228
11226TIP3   OH255092   1.444   0.468   1.968  0.7585 -0.2817 -0.1077
11226TIP3    H155093   1.440   0.550   1.920  1.3159  0.1199  0.5108
11226TIP3    H255094   1.453   0.401   1.900  0.7432  0.2047 -0.5961
11227TIP3   OH255095   4.214   1.026  17.059  0.3833 -0.0446 -0.0283
11227TIP3    H155096   4.166   1.103  17.089 -0.9587 -0.3631 -1.2454
11227TIP3    H255097   4.277   1.060  16.996 -1.3452 -0.0458 -1.8589
11228TIP3   OH255098   4.338   2.755  11.701 -0.8986  0.0193 -0.1274
11228TIP3    H155099   4.371   2.823  11.642  1.8291  0.8161  2.1183
11228TIP3    H255100   4.414   2.700  11.719 -1.1969  0.6245  3.6571
11229TIP3   OH255101   6.376   6.082  12.409  0.2818  0.0844 -0.4616
11229TIP3    H155102   6.403   5.994  12.434  0.2415 -0.2140 -1.4254
11229TIP3    H255103   6.360   6.077  12.315 -2.5300  0.3901 -0.0945
11230TIP3   OH255104   1.458   4.187  12.084 -0.6663  0.3815  0.9367
11230TIP3    H155105   1.485   4.140  12.163 -1.0811 -2.0565 -0.2866
11230TIP3    H255106   1.390   4.247  12.114 -1.2290 -0.8973  2.3726
11231TIP3   OH255107   0.840   6.086  14.302 -0.6200 -0.2298 -0.5158
11231TIP3    H155108   0.804   6.006  14.339 -0.0280 -0.6164 -0.7639
11231TIP3    H255109   0.818   6.082  14.209  2.7110 -2.0659 -1.4117
11232TIP3   OH255110   3.575   0.727  11.404 -0.2960 -0.0526  1.0439
11232TIP3    H155111   3.509   0.719  11.335 -0.7527  0.8004  1.3722
11232TIP3    H255112   3.656   0.693  11.364 -0.8674 -0.8898  0.5653
11233TIP3   OH255113   0.497   6.043   3.187  0.1240 -0.1248  0.5478
11233TIP3    H155114   0.419   6.015   3.236  0.3136  0.0793  0.9699
11233TIP3    H255115   0.553   6.084   3.252  0.4946 -0.0756  0.2032
11234TIP3   OH255116   5.984   3.649   2.732 -0.3502  0.1476 -0.4211
11234TIP3    H155117   5.911   3.711   2.727 -0.6474 -0.1999 -0.4267
11234TIP3    H255118   5.942   3.563   2.737  0.0544 -0.0256  0.0080
11235TIP3   OH255119   6.791   1.092   0.337  0.2384 -0.0385  0.1939
11235TIP3    H155120   6.721   1.028   0.329  1.1654 -1.0075 -0.3945
11235TIP3    H255121   6.780   1.129   0.425  0.9237 -2.5252  1.4093
11236TIP3   OH255122   1.732   2.096  11.054 -1.0194 -0.7662  0.6176
11236TIP3    H155123   1.766   2.033  10.991  0.2326  0.0015  0.5006
11236TIP3    H255124   1.723   2.178  11.005 -0.5810 -0.3066  1.2836
11237TIP3   OH255125   0.613   0.228  14.911  0.2257  0.5381 -0.1942
11237TIP3    H155126   0.703   0.250  14.885 -0.2935  0.8271 -1.8046
11237TIP3    H255127   0.624   0.161  14.979  1.6738  1.4466  0.5292
11238TIP3   OH255128   5.943   6.012  16.503 -0.0838 -1.1564  0.0836
11238TIP3    H155129   5.867   6.039  16.452 -0.8517 -2.7045  0.3479
11238TIP3    H255130   5.968   6.090  16.553 -0.2292 -0.0475 -1.4983
11239TIP3   OH255131   0.788   5.597   1.227  0.3881  0.1511 -0.2018
11239TIP3    H155132   0.873   5.560   1.250  0.7059  1.1505  0.2892
11239TIP3    H255133   0.784   5.680   1.275 -0.9822 -0.0115  0.0115
11240TIP3   OH255134   1.678   1.823   1.723 -0.0923  0.2201 -0.3558
11240TIP3    H155135   1.702   1.737   1.688 -0.6062 -0.1307  0.1537
11240TIP3    H255136   1.723   1.829   1.807  1.9023  1.4414 -1.4031
11241TIP3   OH255137   6.080   2.198   5.468  0.0925 -0.2127  0.1033
11241TIP3    H155138   6.133   2.132   5.423  0.5742 -0.6029  1.2032
11241TIP3    H255139   6.038   2.248   5.397 -0.1805 -1.6052 -0.7610
11242TIP3   OH255140   5.413   2.130  16.840  0.2229 -0.4121 -0.2506
11242TIP3    H155141   5.419   2.101  16.931  0.2230  1.7290  0.4712
11242TIP3    H255142   5.365   2.213  16.844 -2.5134 -1.6870 -2.5292
11243TIP3   OH255143   0.404   6.081   3.671  0.2586  0.0234  0.4995
11243TIP3    H155144   0.410   6.039   3.757  2.5208 -2.0214 -0.5320
11243TIP3    H255145   0.460   6.158   3.678  0.4471 -0.1450  0.8731
11244TIP3   OH255146   0.567   4.599  13.098  0.3199 -0.1188  0.3392
11244TIP3    H155147   0.606   4.597  13.011 -1.0623  1.6176 -0.3794
11244TIP3    H255148   0.541   4.508  13.115  1.0954 -0.5755 -0.7925
11245TIP3   OH255149   3.114   5.413   2.305 -0.0028 -0.7164  0.3949
11245TIP3    H155150   3.135   5.335   2.254  0.5096 -1.3281  1.5025
11245TIP3    H255151   3.058   5.380   2.376 -0.9768  0.1696  0.0691
11246TIP3   OH255152   5.701   3.366  11.654  0.2131 -0.2751 -0.4909
11246TIP3    H155153   5.732   3.366  11.563  1.2872 -0.2494 -0.1431
11246TIP3    H255154   5.620   3.316  11.651  1.1832 -1.8939 -1.1767
11247TIP3   OH255155   6.493   4.899  14.097  0.0612 -0.9356  0.2512
11247TIP3    H155156   6.545   4.833  14.051 -2.7586 -2.3160 -1.3070
11247TIP3    H255157   6.511   4.981  14.051 -2.4530 -2.2228 -3.5267
11248TIP3   OH255158   3.003   5.697  16.198 -0.3186 -0.4443 -0.7914
11248TIP3    H155159   3.022   5.710  16.291 -1.4069 -1.2829 -0.4355
11248TIP3    H255160   2.908   5.684  16.194 -0.4660  0.7690 -2.1697
11249TIP3   OH255161   2.479   6.783  14.233 -0.8307 -0.2401 -0.8124
11249TIP3    H155162   2.499   6.719  14.301  1.3237  0.3060 -0.8749
11249TIP3    H255163   2.492   6.735  14.151  2.2947  0.5529 -0.9028
11250TIP3   OH255164   3.442   5.886  13.141  0.0566  1.0570 -0.0875
11250TIP3    H155165   3.476   5.975  13.152  0.5099  0.9169 -0.3443
11250TIP3    H255166   3.353   5.890  13.177  0.6597  1.2026  1.4836
11251TIP3   OH255167   6.276   2.760  16.365 -0.0564  0.0454  0.4832
11251TIP3    H155168   6.250   2.679  16.408  0.0531  1.0139  2.5092
11251TIP3    H255169   6.370   2.766  16.382  0.1577  0.0474 -0.6481
11252TIP3   OH255170   0.662   1.953  15.508  0.1966  0.1656 -0.5150
11252TIP3    H155171   0.597   1.975  15.441  0.8464 -0.3258 -1.3324
11252TIP3    H255172   0.743   1.995  15.478  1.2757 -2.5090 -1.6976
11253TIP3   OH255173   5.634   5.977  12.484 -0.0953  0.0077 -0.4456
11253TIP3    H155174   5.625   5.919  12.559 -1.3162  1.8563  0.9153
11253TIP3    H255175   5.718   6.021  12.497 -0.0282 -0.1152 -0.4704
11254TIP3   OH255176   0.552   4.238  12.480  0.0406 -0.4726 -0.4351
11254TIP3    H155177   0.487   4.287  12.531 -1.1526 -0.3397 -2.0162
11254TIP3    H255178   0.589   4.176  12.543 -3.1784 -2.0786  0.1255
11255TIP3   OH255179   5.617   0.094   4.371 -0.5162 -0.3965  0.0576
11255TIP3    H155180   5.641   0.081   4.462 -0.1905  0.5702  0.1167
11255TIP3    H255181   5.654   0.017   4.326  0.3059 -0.3157  0.5680
11256TIP3   OH255182   3.646   4.194   3.745 -0.0088 -0.2296 -0.2879
11256TIP3    H155183   3.576   4.256   3.725  0.2969  0.8289  1.7152
11256TIP3    H255184   3.725   4.248   3.754  0.3015 -0.8820  1.2701
11257TIP3   OH255185   2.245   1.044   0.114  0.3027 -0.1731  0.6642
11257TIP3    H155186   2.291   0.976   0.066  1.8806  0.5268  1.1213
11257TIP3    H255187   2.314   1.105   0.142 -1.0352  1.5945  0.3012
11258TIP3   OH255188   2.661   2.246  12.168 -0.4628 -0.0040 -0.2818
11258TIP3    H155189   2.586   2.290  12.210 -0.3975  0.8709 -1.0382
11258TIP3    H255190   2.648   2.262  12.074  1.2663  1.1674 -0.3620
11259TIP3   OH255191   3.696   4.116  12.421 -0.3257  0.3698  0.5070
11259TIP3    H155192   3.711   4.047  12.486 -1.0112 -0.3798 -0.1061
11259TIP3    H255193   3.754   4.187  12.448  0.9312 -0.7118  0.7440
11260TIP3   OH255194   3.590   6.734  16.682  0.0401 -0.3274  0.5975
11260TIP3    H155195   3.560   6.799  16.620  0.8334  0.0160  0.5560
11260TIP3    H255196   3.538   6.656  16.663  1.7462 -0.9604 -2.0129
11261TIP3   OH255197   6.560   2.689  15.060 -0.3163  0.2644 -0.6327
11261TIP3    H155198   6.524   2.772  15.029 -0.3385  0.3582 -0.3585
11261TIP3    H255199   6.616   2.714  15.133  0.1181  0.0952 -0.9033
11262TIP3   OH255200   0.272   6.584  11.801 -0.3359 -0.2636 -0.2150
11262TIP3    H155201   0.231   6.514  11.851 -0.7502  0.1824  0.0853
11262TIP3    H255202   0.200   6.646  11.783 -0.0119  0.0065 -0.6018
11263TIP3   OH255203   5.458   4.201  14.416 -0.5691 -0.6222  0.2411
11263TIP3    H155204   5.485   4.245  14.497 -2.1068 -2.3468  1.7996
11263TIP3    H255205   5.539   4.165  14.380  0.1102 -0.1229  1.2084
11264TIP3   OH255206   3.272   6.462  13.692 -0.0520 -0.1897  0.0230
11264TIP3    H155207   3.212   6.434  13.760  0.7441 -2.2701 -0.0748
11264TIP3    H255208   3.305   6.547  13.722 -2.3758  0.6276  0.4484
11265TIP3   OH255209   3.859   0.659  11.280  0.1677 -0.1785 -0.1394
11265TIP3    H155210   3.951   0.632  11.284  0.0449 -0.4721  1.9511
11265TIP3    H255211   3.810   0.577  11.280 -0.1144 -0.0320  1.2185
11266TIP3   OH255212   6.649   5.245   2.539  0.1255  0.4698  0.3148
11266TIP3    H155213   6.556   5.263   2.547 -0.0606 -0.2343 -0.2178
11266TIP3    H255214   6.669   5.189   2.613  0.2636  1.1288  0.7839
11267TIP3   OH255215   0.831   4.336   3.949  0.2097 -0.5896 -0.2917
11267TIP3    H155216   0.795   4.265   3.896  0.7030 -0.9664 -0.1331
11267TIP3    H255217   0.873   4.292   4.023 -0.2247 -0.0841  0.2659
11268TIP3   OH255218   3.488   2.959  11.735 -0.5098 -0.5810 -0.4229
11268TIP3    H155219   3.482   2.885  11.675 -0.1229 -0.8135 -0.1715
11268TIP3    H255220   3.404   2.958  11.782 -0.7383 -0.5103 -0.8202
11269TIP3   OH255221   0.874   1.259  15.659  0.4381 -0.2144 -0.0541
11269TIP3    H155222   0.789   1.273  15.701  0.6374  1.0753 -0.0414
11269TIP3    H255223   0.863   1.178  15.610 -0.4452 -0.6673  0.8484
11270TIP3   OH255224   4.580   6.211  14.085  0.3659  0.2163  0.3917
11270TIP3    H155225   4.542   6.125  14.063  1.0134 -0.1261  0.5986
11270TIP3    H255226   4.638   6.230  14.011  2.1368 -0.6889  1.4807
11271TIP3   OH255227   6.492   3.473  15.631 -0.6759 -0.1801  0.5131
11271TIP3    H155228   6.412   3.526  15.631  0.2481  1.3107 -0.5887
11271TIP3    H255229   6.480   3.412  15.558 -1.6261 -1.3374  1.6046
11272TIP3   OH255230   1.335   3.879  10.986  0.5269  0.5168 -0.0362
11272TIP3    H155231   1.398   3.904  11.053  0.5388 -0.0616  0.1790
11272TIP3    H255232   1.386   3.824  10.926  0.2731  0.1770  0.0540
11273TIP3   OH255233   4.128   4.816   0.317  0.2841 -0.2864 -0.0853
11273TIP3    H155234   4.157   4.739   0.267 -0.7801 -0.4697 -0.4490
11273TIP3    H255235   4.093   4.780   0.398  0.5551 -0.1139  0.1090
11274TIP3   OH255236   2.827   4.474   3.479  0.2179  0.3561 -0.6910
11274TIP3    H155237   2.874   4.419   3.416  0.7171  0.4286 -0.3903
11274TIP3    H255238   2.876   4.556   3.480  0.2208  0.3524 -0.2103
11275TIP3   OH255239   0.339   4.306  13.335  0.7583 -0.2942  0.3801
11275TIP3    H155240   0.408   4.371  13.347  0.1057  0.3292  0.8036
11275TIP3    H255241   0.386   4.226  13.311  1.6389  0.0942  0.7568
11276TIP3   OH255242   3.635   4.377  14.802  0.1386  0.4321 -0.5608
11276TIP3    H155243   3.559   4.435  14.804 -0.9318 -0.8836 -1.2868
11276TIP3    H255244   3.613   4.306  14.862 -0.5750 -1.4812 -2.9006
11277TIP3   OH255245   5.302   0.879  16.054  0.7093  0.2149  0.2611
11277TIP3    H155246   5.233   0.920  16.001  1.3475 -0.6488 -1.2916
11277TIP3    H255247   5.255   0.836  16.125 -0.2225  0.8903  0.0766
11278TIP3   OH255248   3.276   4.462  13.150  0.5012  0.4403  0.0005
11278TIP3    H155249   3.255   4.475  13.243  1.0604  0.4955  0.1240
11278TIP3    H255250   3.327   4.539  13.126 -1.4314  1.4779 -0.9345
11279TIP3   OH255251   6.615   1.967   3.001 -0.0554 -0.6838 -0.1080
11279TIP3    H155252   6.673   1.947   3.075 -1.2493  0.0446  1.0602
11279TIP3    H255253   6.669   2.021   2.944  0.9452 -1.3944  0.1276
11280TIP3   OH255254   0.520   4.546  15.967 -0.2015 -0.1788  0.6252
11280TIP3    H155255   0.466   4.607  16.018 -0.0467  0.4861  0.0288
11280TIP3    H255256   0.579   4.603  15.917  0.1684 -0.8401  0.2900
11281TIP3   OH255257   6.522   1.141   2.642  0.4930  0.2708  0.2055
11281TIP3    H155258   6.432   1.164   2.620  0.3919  0.1238  0.4585
11281TIP3    H255259   6.517   1.050   2.671  1.2772 -1.0260 -3.2824
11282TIP3   OH255260   3.134   0.720  13.361  0.0087 -0.4289 -0.2047
11282TIP3    H155261   3.123   0.691  13.452 -2.3497 -2.2297 -0.9695
11282TIP3    H255262   3.225   0.698  13.339  0.3464 -0.7748  1.4224
11283TIP3   OH255263   2.573   5.398  13.996 -0.2840  0.1841 -0.2630
11283TIP3    H155264   2.607   5.467  14.052 -1.3342 -0.6551  1.4716
11283TIP3    H255265   2.651   5.359  13.956  0.5133  0.6424  0.8099
11284TIP3   OH255266   2.121   1.524  16.647 -0.0361  0.0538 -0.2773
11284TIP3    H155267   2.120   1.557  16.557  0.8917  1.0235  0.0488
11284TIP3    H255268   2.157   1.436  16.640 -0.6479 -0.1541 -0.9261
11285TIP3   OH255269   5.642   4.304  13.979  0.2840 -0.2982  0.0981
11285TIP3    H155270   5.732   4.337  13.981 -0.1675  0.9558  0.6011
11285TIP3    H255271   5.599   4.353  13.910 -0.5672  0.6836  1.2753
11286TIP3   OH255272   1.647   2.023  14.451 -0.2690  0.8567 -0.2815
11286TIP3    H155273   1.692   2.045  14.533 -1.7600  1.7932  0.3314
11286TIP3    H255274   1.603   1.940  14.470  0.4834  0.3854 -0.5893
11287TIP3   OH255275   0.922   1.182   0.417 -0.1184  0.1861  0.1516
11287TIP3    H155276   0.985   1.111   0.426 -3.8345 -3.9145 -2.2531
11287TIP3    H255277   0.866   1.175   0.494 -0.0189  1.1931  0.3345
11288TIP3   OH255278   6.734   3.929   2.114 -0.2274 -0.3750  0.3541
11288TIP3    H155279   6.794   3.931   2.039 -0.9268  0.4375 -0.2059
11288TIP3    H255280   6.740   3.839   2.147  1.4390 -0.2612  0.4523
11289TIP3   OH255281   3.828   3.635  17.008 -0.5751  0.6865 -0.1600
11289TIP3    H155282   3.909   3.683  17.023 -1.2815  1.7245  0.4407
11289TIP3    H255283   3.805   3.655  16.917 -0.7177  1.2879  0.0008
11290TIP3   OH255284   3.162   5.824  16.988  0.4302  0.1079 -0.1897
11290TIP3    H155285   3.132   5.738  17.015 -0.2044  0.3303 -0.1790
11290TIP3    H255286   3.198   5.863  17.069 -1.7036  0.8747  0.4668
11291TIP3   OH255287   5.570   2.063   3.555 -0.1647 -0.2816  0.2872
11291TIP3    H155288   5.604   2.048   3.467 -0.2851 -1.0810  0.3668
11291TIP3    H255289   5.576   1.977   3.598 -0.7973 -0.0737  0.8132
11292TIP3   OH255290   2.665   0.613   4.284  0.2560  0.1447 -0.2845
11292TIP3    H155291   2.742   0.575   4.327 -0.9471 -1.8576  0.2156
11292TIP3    H255292   2.618   0.658   4.354  0.2830  0.2170 -0.3126
11293TIP3   OH255293   5.362   1.681  14.089 -0.2981 -0.1136  0.2226
11293TIP3    H155294   5.321   1.599  14.116  1.1618 -1.0755 -0.3310
11293TIP3    H255295   5.357   1.737  14.167 -2.1875 -0.3329  0.3073
11294TIP3   OH255296   2.131   2.838   1.310  0.3654  0.0814  0.0097
11294TIP3    H155297   2.107   2.880   1.392 -0.7210 -0.1350 -0.1918
11294TIP3    H255298   2.097   2.749   1.317 -0.0841  0.1771 -0.8305
11295TIP3   OH255299   6.203   5.233   4.742  0.0870 -0.2319 -0.2229
11295TIP3    H155300   6.262   5.158   4.742  0.4964 -0.0205  2.3426
11295TIP3    H255301   6.126   5.203   4.790 -0.5219  0.4469 -0.7532
11296TIP3   OH255302   3.691   4.626  16.471  0.1221 -0.1113  0.2487
11296TIP3    H155303   3.666   4.640  16.380  0.8423  0.5660  0.1345
11296TIP3    H255304   3.622   4.667  16.522 -0.4662 -0.8079  0.0163
11297TIP3   OH255305   4.012   0.903   0.754 -0.2130  0.0107  0.0321
11297TIP3    H155306   4.047   0.922   0.667 -0.2127  0.1137  0.0545
11297TIP3    H255307   3.923   0.872   0.738 -0.2032  0.0023 -0.0066
11298TIP3   OH255308   1.280   5.596   6.360  0.2016 -0.3541  0.3598
11298TIP3    H155309   1.192   5.622   6.386  0.7615 -0.2629  2.3230
11298TIP3    H255310   1.280   5.501   6.366 -0.2413 -0.5049 -1.4092
11299TIP3   OH255311   3.035   4.113   3.373 -0.3105  0.2661  0.3394
11299TIP3    H155312   3.007   4.086   3.461 -0.3702 -1.4619 -0.1723
11299TIP3    H255313   2.993   4.050   3.314  1.2553  0.2273 -0.7809
11300TIP3   OH255314   0.170   1.741  16.758  0.0255 -0.4045  0.5961
11300TIP3    H155315   0.232   1.710  16.823  1.0725  1.2572  0.4547
11300TIP3    H255316   0.224   1.770  16.685 -0.9421  0.4149  0.1682
11301TIP3   OH255317   5.662   3.007   5.499 -0.4079 -0.5455  0.3163
11301TIP3    H155318   5.591   3.041   5.444  0.5500 -0.1917 -0.7427
11301TIP3    H255319   5.620   2.986   5.582 -1.5660  0.6007  0.0587
11302TIP3   OH255320   6.380   0.311  14.315  0.2460  0.4270 -0.3550
11302TIP3    H155321   6.471   0.299  14.291  0.4612 -0.5966  0.8487
11302TIP3    H255322   6.383   0.363  14.396 -0.3569  2.0507 -1.3161
11303TIP3   OH255323   2.320   2.250  11.355  0.1609 -0.2634 -0.1752
11303TIP3    H155324   2.256   2.315  11.327 -0.2139  0.0713  1.3879
11303TIP3    H255325   2.277   2.166  11.341 -0.1606 -0.0887 -0.2378
11304TIP3   OH255326   3.255   0.613   4.167  0.2864  0.0677 -0.4974
11304TIP3    H155327   3.213   0.643   4.248  0.8428 -0.8979  0.1731
11304TIP3    H255328   3.297   0.692   4.131 -0.6679  0.6827 -0.3004
11305TIP3   OH255329   2.041   6.494  13.932 -0.3271 -0.3747 -0.1787
11305TIP3    H155330   1.946   6.499  13.939 -0.2815 -0.4810  0.6744
11305TIP3    H255331   2.063   6.542  13.852 -1.1916 -1.4546 -1.0954
11306TIP3   OH255332   5.194   4.507   5.755 -0.0458 -0.2993  0.0506
11306TIP3    H155333   5.143   4.578   5.718  1.8297  0.6592 -0.8211
11306TIP3    H255334   5.209   4.447   5.682  0.7699 -0.1488  0.0910
11307TIP3   OH255335   4.316   0.727   5.178 -0.3772  0.0683  0.1989
11307TIP3    H155336   4.325   0.677   5.096 -1.2338  1.9083 -1.0779
11307TIP3    H255337   4.392   0.784   5.179 -1.6587  1.8795 -0.6910
11308TIP3   OH255338   5.965   0.952  11.591 -0.7515 -0.4302 -0.2412
11308TIP3    H155339   5.882   0.904  11.585 -1.6040  0.9654 -0.1128
11308TIP3    H255340   5.996   0.934  11.679 -0.7424 -1.2221 -0.3975
11309TIP3   OH255341   2.520   1.395   2.027 -0.7517  0.4891  0.4548
11309TIP3    H155342   2.556   1.473   2.070 -2.8143  1.0104  1.3591
11309TIP3    H255343   2.489   1.426   1.942  2.0874 -0.2628 -0.9708
11310TIP3   OH255344   4.444   5.109  15.756  0.0137  1.0075  0.5060
11310TIP3    H155345   4.531   5.086  15.724 -0.1798  0.7577  0.1445
11310TIP3    H255346   4.420   5.037  15.815 -1.6326 -1.2211 -2.5323
11311TIP3   OH255347   5.443   6.722   2.060  0.3819 -0.6073 -0.7290
11311TIP3    H155348   5.362   6.772   2.051  0.1060 -0.6869  0.9469
11311TIP3    H255349   5.431   6.645   2.005  0.2257  0.4198 -2.1942
11312TIP3   OH255350   5.560   1.743   1.930 -0.0093 -0.2245  0.3520
11312TIP3    H155351   5.492   1.793   1.976  0.7287 -0.1102  1.3392
11312TIP3    H255352   5.633   1.739   1.992  0.8776 -0.3759 -0.6880
11313TIP3   OH255353   4.624   3.592   6.440 -0.0192  0.1999  0.5716
11313TIP3    H155354   4.604   3.643   6.362 -0.9003 -0.5970  0.2633
11313TIP3    H255355   4.679   3.650   6.493  1.0843  0.5487 -0.8870
11314TIP3   OH255356   1.899   4.233   0.442 -0.1559 -0.7244 -0.0880
11314TIP3    H155357   1.968   4.189   0.492 -0.2486 -1.1797 -0.3503
11314TIP3    H255358   1.819   4.214   0.490 -0.0725  0.0335  0.3670
11315TIP3   OH255359   4.996   2.243   0.556  0.0041  0.0112 -0.3900
11315TIP3    H155360   4.938   2.257   0.630 -0.0745  1.7394 -0.7443
11315TIP3    H255361   5.033   2.329   0.537  1.7247 -0.7986 -0.9770
11316TIP3   OH255362   0.867   0.120  12.402  0.4349  0.0539 -0.4073
11316TIP3    H155363   0.962   0.112  12.396  0.4645 -0.4394  0.5327
11316TIP3    H255364   0.834   0.032  12.384  0.0312  0.6172 -2.6285
11317TIP3   OH255365   1.492   2.462   5.824  0.1481 -0.0458  0.0497
11317TIP3    H155366   1.503   2.367   5.822 -0.3085 -0.0940 -0.8059
11317TIP3    H255367   1.424   2.479   5.759 -0.3066  0.7992  0.7362
11318TIP3   OH255368   5.577   5.084   4.700 -0.1207  0.1540  0.2570
11318TIP3    H155369   5.515   5.098   4.628 -1.1179 -0.0581  1.0485
11318TIP3    H255370   5.620   5.001   4.679 -0.8015 -0.1832  0.1714
11319TIP3   OH255371   3.484   3.242   4.700 -0.2800 -0.3687 -0.2125
11319TIP3    H155372   3.566   3.239   4.651 -1.2703 -0.8609 -1.9017
11319TIP3    H255373   3.448   3.329   4.682 -0.6960 -0.5867 -0.4600
11320TIP3   OH255374   0.555   6.059   5.698  0.0692 -0.8176  0.5857
11320TIP3    H155375   0.582   6.141   5.657  2.0171 -1.1945  1.0328
11320TIP3    H255376   0.511   6.085   5.778 -0.3550 -0.1884  0.1571
11321TIP3   OH255377   3.971   3.952  15.564  0.4388 -0.3921 -0.1537
11321TIP3    H155378   3.935   3.987  15.646 -2.9397  0.6116 -1.9017
11321TIP3    H255379   4.059   3.990  15.559  0.0763  0.9670  2.1057
11322TIP3   OH255380   2.425   1.246  12.930 -0.2219 -0.6790  0.6083
11322TIP3    H155381   2.338   1.265  12.965 -0.9574 -4.1572  1.0903
11322TIP3    H255382   2.408   1.190  12.854  1.5957  0.2376 -0.5467
11323TIP3   OH255383   3.555   2.110   2.219 -0.2650 -0.0842  0.4218
11323TIP3    H155384   3.562   2.157   2.302 -0.3357 -0.8808  0.8933
11323TIP3    H255385   3.541   2.019   2.245 -0.4256 -0.3199 -0.4687
11324TIP3   OH255386   4.423   3.632   2.515  0.3081 -0.2181  0.1909
11324TIP3    H155387   4.498   3.577   2.538 -0.3363 -1.1356  0.1449
11324TIP3    H255388   4.347   3.584   2.547 -0.2917  0.5160 -0.1064
11325TIP3   OH255389   1.666   6.158   0.683  0.5696  0.0814  0.6948
11325TIP3    H155390   1.664   6.121   0.771 -0.7987  0.0688  0.6708
11325TIP3    H255391   1.674   6.252   0.697 -0.6014  0.1623  0.8612
11326TIP3   OH255392   2.881   6.594  14.295 -0.2261  0.3412  0.3632
11326TIP3    H155393   2.829   6.529  14.247 -0.2584 -1.0205  2.1532
11326TIP3    H255394   2.880   6.671  14.239 -2.2052 -0.4166 -0.7375
11327TIP3   OH255395   4.240   3.129  14.066  0.2539  0.3180 -0.1304
11327TIP3    H155396   4.153   3.164  14.045 -0.2583  1.2474  2.9466
11327TIP3    H255397   4.224   3.038  14.092  0.5606 -0.1439 -1.4578
11328TIP3   OH255398   4.252   4.585   5.342 -0.2621 -0.0312 -0.4943
11328TIP3    H155399   4.273   4.568   5.434 -1.5317  0.6493 -0.0674
11328TIP3    H255400   4.337   4.581   5.298  0.2466 -1.4180  0.5197
11329TIP3   OH255401   5.296   0.893   5.716  0.0837  0.3855 -0.7918
11329TIP3    H155402   5.374   0.889   5.772 -0.3068  1.3203 -0.1618
11329TIP3    H255403   5.330   0.880   5.627  0.8639  0.0781 -0.4587
11330TIP3   OH255404   1.620   6.005   4.714  0.1176 -0.1677  0.1123
11330TIP3    H155405   1.526   5.987   4.718 -0.1797  1.4113  1.4176
11330TIP3    H255406   1.654   5.978   4.799  0.3088  1.7900  0.7071
11331TIP3   OH255407   1.077   6.636   0.032 -0.7442  0.6116  0.0749
11331TIP3    H155408   1.032   6.555   0.054  0.3271  0.0518  0.2433
11331TIP3    H255409   1.028   6.704   0.078 -0.0662 -0.2401  2.1290
11332TIP3   OH255410   3.287   0.702  13.578 -0.0493  0.2513 -1.2325
11332TIP3    H155411   3.325   0.778  13.621 -1.4145  0.4769 -0.3696
11332TIP3    H255412   3.284   0.635  13.646 -1.7816  0.4517 -1.0792
11333TIP3   OH255413   4.516   3.512   3.844  0.2047  0.1703  0.1122
11333TIP3    H155414   4.447   3.577   3.832  0.2256  0.0838 -0.4803
11333TIP3    H255415   4.545   3.490   3.755 -0.1213 -0.9985  0.2786
11334TIP3   OH255416   4.907   3.253   0.336  0.2098  0.3921  0.3473
11334TIP3    H155417   4.837   3.210   0.385 -0.5352 -0.0053 -1.0274
11334TIP3    H255418   4.926   3.333   0.386 -0.6349  0.0789  1.1893
11335TIP3   OH255419   2.908   6.764   1.387  0.2956 -0.3040  0.4506
11335TIP3    H155420   2.856   6.729   1.460 -1.3614  1.2385  0.0872
11335TIP3    H255421   2.847   6.767   1.313  1.4024 -0.0498 -0.4924
11336TIP3   OH255422   2.382   0.141  10.272  0.5847 -0.5116 -0.3052
11336TIP3    H155423   2.473   0.142  10.299  0.5800  1.1200 -0.2549
11336TIP3    H255424   2.343   0.068  10.321  1.7377 -0.8872  0.0672
11337TIP3   OH255425   4.428   3.382  10.968 -0.0490  0.1223  0.0783
11337TIP3    H155426   4.378   3.311  10.927 -1.6169  0.8811  0.5710
11337TIP3    H255427   4.365   3.423  11.028  0.4898  2.5160 -0.8591
11338TIP3   OH255428   6.252   0.238  17.015  0.7874  0.1798  0.0366
11338TIP3    H155429   6.295   0.240  16.929 -0.5487  0.6561 -0.6582
11338TIP3    H255430   6.224   0.329  17.029 -5.4946 -0.8007 -2.5594
11339TIP3   OH255431   1.064   1.630  15.334 -0.0345  0.0846 -0.4454
11339TIP3    H155432   0.969   1.637  15.323 -0.0473 -1.3914 -1.7667
11339TIP3    H255433   1.077   1.548  15.382  0.5839 -0.4221 -1.4314
11340TIP3   OH255434   2.661   6.476   4.856 -0.5336 -0.1313 -0.2279
11340TIP3    H155435   2.612   6.477   4.938  0.9174  1.0073  0.6753
11340TIP3    H255436   2.613   6.535   4.798 -2.0705 -1.6313 -0.5574
11341TIP3   OH255437   3.429   6.782   0.499 -0.4825  0.3737 -1.0824
11341TIP3    H155438   3.472   6.852   0.548 -0.4981 -0.4718  0.1727
11341TIP3    H255439   3.365   6.746   0.560 -1.6104  0.3026 -2.2618
11342TIP3   OH255440   5.813   4.667   5.450 -0.3621 -0.5876  0.0796
11342TIP3    H155441   5.745   4.713   5.400 -0.2278 -0.7575 -0.2577
11342TIP3    H255442   5.766   4.632   5.527  0.0163  2.4107  1.8317
11343TIP3   OH255443   5.919   3.660  11.559 -0.0092  0.5906  0.2415
11343TIP3    H155444   5.991   3.707  11.602  0.7426  0.1994 -0.5672
11343TIP3    H255445   5.959   3.617  11.483 -0.7845 -0.8902  0.6238
11344TIP3   OH255446   5.442   0.466   2.292  0.1523 -0.3183 -0.5644
11344TIP3    H155447   5.435   0.374   2.268 -0.8580 -0.1130 -1.1177
11344TIP3    H255448   5.437   0.513   2.208  1.6632  0.2092 -0.3886
11345TIP3   OH255449   0.341   4.910  12.530 -0.0496 -0.0404  0.1928
11345TIP3    H155450   0.368   4.967  12.458 -3.5126  0.2305 -1.0895
11345TIP3    H255451   0.350   4.821  12.495 -0.8597  0.0543 -0.2891
11346TIP3   OH255452   0.957   3.535   3.068  0.5996  0.3299  0.0604
11346TIP3    H155453   0.906   3.572   3.139  0.3579  1.1273 -0.5173
11346TIP3    H255454   0.922   3.446   3.056 -0.1101  0.5870  0.1992
11347TIP3   OH255455   1.781   4.803  12.296  0.5734 -0.3850  0.4733
11347TIP3    H155456   1.699   4.758  12.279 -0.1638  0.5899  1.3294
11347TIP3    H255457   1.837   4.780  12.221 -0.5416 -0.8853 -0.2317
11348TIP3   OH255458   3.602   5.820  12.707  0.0569  0.2462 -0.1413
11348TIP3    H155459   3.675   5.757  12.706  0.0483  0.2382 -0.2646
11348TIP3    H255460   3.592   5.843  12.799 -0.9066 -1.0589  0.1181
11349TIP3   OH255461   6.297   5.009  11.412 -0.3865  0.6614  0.4674
11349TIP3    H155462   6.389   5.009  11.439 -0.5826  0.3083  1.1796
11349TIP3    H255463   6.253   5.061  11.479 -0.7240  0.7298  0.1946
11350TIP3   OH255464   5.484   5.272   3.441 -0.2049 -0.6390 -0.0065
11350TIP3    H155465   5.457   5.354   3.400  0.4174  0.0943  0.9934
11350TIP3    H255466   5.420   5.259   3.511  1.1521  0.3949  1.5022
11351TIP3   OH255467   4.318   6.294   6.175  0.4807  0.1198  0.2682
11351TIP3    H155468   4.237   6.304   6.225 -0.7342 -0.5841 -1.4517
11351TIP3    H255469   4.364   6.223   6.218 -0.1761  0.0270  0.8331
11352TIP3   OH255470   1.193   2.280  14.843  0.1361  0.7003 -0.5946
11352TIP3    H155471   1.281   2.272  14.809  0.6719  0.8571  0.6976
11352TIP3    H255472   1.155   2.355  14.795 -0.4686 -1.2762 -3.4539
11353TIP3   OH255473   1.103   3.511  14.342 -0.1811 -0.2379 -0.1012
11353TIP3    H155474   1.122   3.604  14.355 -0.4689 -0.1756 -0.1180
11353TIP3    H255475   1.177   3.478  14.291  0.7518 -0.3815  1.2873
11354TIP3   OH255476   1.918   6.404  11.295 -0.2649  0.5614 -0.3118
11354TIP3    H155477   1.948   6.333  11.237 -0.3369 -0.7377  1.1647
11354TIP3    H255478   1.832   6.428  11.260 -0.4444 -0.4168 -0.5884
11355TIP3   OH255479   6.784   3.640  16.584 -0.0362 -0.5306 -0.5309
11355TIP3    H155480   6.798   3.592  16.502  1.0826  0.0495 -0.6930
11355TIP3    H255481   6.778   3.571  16.650 -0.5831 -0.9903 -1.0469
11356TIP3   OH255482   4.661   2.860   0.443  0.2944 -0.0077 -0.1211
11356TIP3    H155483   4.734   2.831   0.498  1.0355  1.7229 -0.1379
11356TIP3    H255484   4.666   2.803   0.365  1.6017  0.0414 -0.1004
11357TIP3   OH255485   5.503   4.692  12.684  0.0456 -0.1163  0.5088
11357TIP3    H155486   5.524   4.736  12.602  1.7491 -1.2867  0.2573
11357TIP3    H255487   5.407   4.696  12.690 -0.1155  0.0194 -1.5138
11358TIP3   OH255488   1.708   5.055   6.515 -0.2625 -0.1365 -0.5602
11358TIP3    H155489   1.646   5.040   6.443 -2.1625  2.2963  0.4253
11358TIP3    H255490   1.676   4.999   6.586 -0.7943  0.4446 -0.3406
11359TIP3   OH255491   0.337   5.084  14.604  0.1756 -0.2904 -0.4618
11359TIP3    H155492   0.362   4.997  14.573  0.7559  0.0054 -0.8365
11359TIP3    H255493   0.328   5.136  14.525 -0.6790 -0.1289 -0.2745
11360TIP3   OH255494   5.823   0.026  13.383  0.0621 -0.5429  0.5096
11360TIP3    H155495   5.764   0.015  13.309  0.0455 -0.6805  0.5436
11360TIP3    H255496   5.867  -0.058  13.392  0.9937 -0.1435 -0.1490
11361TIP3   OH255497   2.167   3.209  13.549 -0.2011 -0.3866  0.3394
11361TIP3    H155498   2.234   3.232  13.613 -0.7014 -0.0526  0.7498
11361TIP3    H255499   2.084   3.219  13.596 -0.5109 -1.5702  0.0731
11362TIP3   OH255500   5.989   5.055  12.624 -0.4766 -0.1755  0.0987
11362TIP3    H155501   5.940   5.134  12.649 -0.5335 -0.3988  0.7211
11362TIP3    H255502   6.062   5.087  12.572 -0.2172  0.3367  0.7648
11363TIP3   OH255503   4.379   5.692  12.325 -0.0111 -0.6043  0.1016
11363TIP3    H155504   4.342   5.608  12.298 -1.2583 -0.8049  2.2058
11363TIP3    H255505   4.472   5.673  12.343  0.0764 -1.1570 -0.8738
11364TIP3   OH255506   1.822   1.973  15.328 -0.2719  0.3956  0.0118
11364TIP3    H155507   1.904   1.957  15.281 -0.4813 -0.5099 -0.0716
11364TIP3    H255508   1.843   1.953  15.420  1.0595  5.2195  1.0658
11365TIP3   OH255509   2.980   0.790  16.797  0.4994 -0.4797 -0.1303
11365TIP3    H155510   3.067   0.757  16.775  1.0613 -0.8777  2.3382
11365TIP3    H255511   2.922   0.715  16.782  0.7811 -0.6274 -0.5033
11366TIP3   OH255512   6.278   2.279  16.783 -0.3080  0.6713 -0.2639
11366TIP3    H155513   6.221   2.327  16.843  0.3403  1.5409 -0.3431
11366TIP3    H255514   6.366   2.307  16.805  0.2792 -1.8563  0.9332
11367TIP3   OH255515   2.599   6.007  11.166  0.9564  0.2556 -0.5527
11367TIP3    H155516   2.525   6.067  11.176  1.2005  0.3930  0.7089
11367TIP3    H255517   2.586   5.965  11.081 -1.0245 -0.3526  0.0056
11368TIP3   OH255518   0.156   2.811   1.495 -0.0639  0.0323 -0.2582
11368TIP3    H155519   0.228   2.763   1.535  0.9211  1.2442 -0.5441
11368TIP3    H255520   0.100   2.836   1.569 -1.0230 -2.1348 -0.1561
11369TIP3   OH255521   5.404   5.749  10.639  0.5732 -0.4801  0.0429
11369TIP3    H155522   5.404   5.830  10.690 -1.5875 -0.0993 -0.4644
11369TIP3    H255523   5.368   5.775  10.554  0.4636 -1.8530 -0.3415
11370TIP3   OH255524   6.092   1.569   5.271 -0.2077  0.7517 -0.2411
11370TIP3    H155525   6.144   1.639   5.231  0.9087  0.2683  0.3187
11370TIP3    H255526   6.001   1.595   5.257  0.1665  1.3319 -1.7816
11371TIP3   OH255527   0.674   3.296  14.229 -0.1170  0.2353 -0.0468
11371TIP3    H155528   0.609   3.278  14.161 -0.5621 -1.1699  0.7163
11371TIP3    H255529   0.748   3.240  14.207  0.0198  0.3093  0.2205
11372TIP3   OH255530   3.378   5.168   0.127  0.1045  0.1001 -0.1956
11372TIP3    H155531   3.397   5.261   0.137 -0.4054  0.2170 -0.2875
11372TIP3    H255532   3.375   5.134   0.216  0.9398  0.0317 -0.1823
11373TIP3   OH255533   0.847   0.358  12.518  0.0084 -0.4897 -0.0150
11373TIP3    H155534   0.942   0.366  12.527 -0.1536 -0.9261  4.8784
11373TIP3    H255535   0.835   0.277  12.468  2.0203  0.9446 -3.1352
11374TIP3   OH255536   4.659   5.749   3.083  0.0886  0.5867  0.2601
11374TIP3    H155537   4.577   5.704   3.059  0.8987 -0.7683 -0.0631
11374TIP3    H255538   4.652   5.762   3.177 -0.9878  1.5268  0.0747
11375TIP3   OH255539   3.067   2.464   5.423  0.4152 -1.0265 -0.4510
11375TIP3    H155540   3.107   2.377   5.426  0.4903 -1.0147 -0.8969
11375TIP3    H255541   3.053   2.480   5.329  2.0028  0.1457 -0.5289
11376TIP3   OH255542   5.226   0.789   2.639  0.2247  0.3424  0.1593
11376TIP3    H155543   5.270   0.704   2.647  1.7196  0.9390 -1.2788
11376TIP3    H255544   5.190   0.789   2.550  0.0222  1.1381  0.2338
11377TIP3   OH255545   0.582   0.048   0.719 -0.2519 -0.0338 -0.2120
11377TIP3    H155546   0.655   0.095   0.760 -0.3190  1.7935 -2.0310
11377TIP3    H255547   0.597   0.057   0.625 -1.8344 -1.2293 -0.6162
11378TIP3   OH255548   5.025   6.377   3.440  0.7087 -0.5350 -0.3566
11378TIP3    H155549   4.951   6.361   3.380  0.0948 -0.2191  0.2964
11378TIP3    H255550   5.091   6.314   3.414 -0.0251 -1.2357 -0.5759
11379TIP3   OH255551   3.999   3.641  11.180  0.6924 -0.5941 -0.3555
11379TIP3    H155552   3.931   3.593  11.228 -2.9217  3.0051 -1.2988
11379TIP3    H255553   4.064   3.663  11.247 -0.1970 -2.2311  1.1298
11380TIP3   OH255554   4.687   5.813  16.679  0.3382  0.2257 -0.0712
11380TIP3    H155555   4.646   5.750  16.620 -0.4420  0.0927  0.5822
11380TIP3    H255556   4.717   5.760  16.753  0.1648  0.5503  0.2336
11381TIP3   OH255557   1.144   5.149   3.410  0.0042  0.2293 -0.0386
11381TIP3    H155558   1.154   5.143   3.315 -0.9859 -0.3737 -0.1265
11381TIP3    H255559   1.049   5.146   3.424 -0.1123  3.7104  0.7936
11382TIP3   OH255560   6.164   3.358  16.831 -0.3200  0.1434  0.0046
11382TIP3    H155561   6.165   3.287  16.767  0.8380 -0.3510  0.5447
11382TIP3    H255562   6.229   3.420  16.799 -1.7083  1.2634 -0.7582
11383TIP3   OH255563   3.730   4.608  15.526  0.0258  0.3983 -0.3683
11383TIP3    H155564   3.681   4.533  15.493 -2.6344  2.0508 -0.4929
11383TIP3    H255565   3.779   4.574  15.601 -0.6954 -1.5447 -0.7242
11384TIP3   OH255566   0.307   1.456   1.977  0.1524  0.0603 -0.3936
11384TIP3    H155567   0.218   1.446   1.943 -1.5162  1.1240  3.2366
11384TIP3    H255568   0.334   1.367   2.000  0.0090 -0.2475 -1.3526
11385TIP3   OH255569   4.137   3.857  15.259  0.6895  0.6017  0.5319
11385TIP3    H155570   4.145   3.916  15.334 -0.2010  1.3920  0.0308
11385TIP3    H255571   4.203   3.888  15.197  0.0970  1.2103  0.1922
11386TIP3   OH255572   1.574   4.760   5.933 -0.4216  1.0383  0.3329
11386TIP3    H155573   1.552   4.676   5.894  2.0024  0.4862 -0.0001
11386TIP3    H255574   1.559   4.748   6.026 -3.8247  1.5648 -0.0154
11387TIP3   OH255575   3.035   1.123   5.626 -0.4918 -0.0987 -0.2321
11387TIP3    H155576   3.047   1.030   5.610  0.8100  0.0749 -0.4030
11387TIP3    H255577   3.071   1.136   5.715 -2.7081 -0.1277  0.7202
11388TIP3   OH255578   2.020   2.099   5.924 -0.3385 -0.0961  0.0185
11388TIP3    H155579   2.025   2.166   5.855 -0.2150 -3.1620 -3.2084
11388TIP3    H255580   2.112   2.082   5.946 -0.3218  0.0630  0.0759
11389TIP3   OH255581   2.705   1.048   5.366  0.0416  0.4379  0.1727
11389TIP3    H155582   2.782   0.992   5.374  0.4986  1.0982  0.5129
11389TIP3    H255583   2.727   1.126   5.417 -0.2139  1.3099 -1.0070
11390TIP3   OH255584   2.063   5.675  14.640 -0.4319 -0.0962 -0.2444
11390TIP3    H155585   2.152   5.685  14.675 -0.0977 -1.4185 -0.6606
11390TIP3    H255586   2.012   5.743  14.684  0.3415 -0.6336  1.5689
11391TIP3   OH255587   6.241   3.877  14.290  0.1890  0.2204  0.5560
11391TIP3    H155588   6.301   3.828  14.347 -0.0735 -0.4706  0.2407
11391TIP3    H255589   6.270   3.968  14.299 -0.0102  0.1662  1.9994
11392TIP3   OH255590   1.387   5.277  12.807  0.2523 -0.6009  0.7908
11392TIP3    H155591   1.364   5.359  12.850  2.2232 -0.2727  1.3445
11392TIP3    H255592   1.357   5.209  12.866  2.9831 -0.1598  2.8985
11393TIP3   OH255593   1.151   6.199   5.346  0.9885  0.7154  0.3561
11393TIP3    H155594   1.168   6.267   5.281 -0.9040  0.6582 -0.2753
11393TIP3    H255595   1.091   6.242   5.408 -0.5625 -0.4440 -0.2728
11394TIP3   OH255596   3.858   6.656   2.193  0.8134  0.3308  0.4011
11394TIP3    H155597   3.774   6.609   2.195  0.6442  0.6301  2.2972
11394TIP3    H255598   3.862   6.694   2.106  1.0153 -3.2590 -1.3431
11395TIP3   OH255599   3.962   1.992   4.463 -0.3113  0.2001 -0.2713
11395TIP3    H155600   3.886   2.043   4.437 -0.8979 -0.6071 -0.1742
11395TIP3    H255601   3.998   2.038   4.539 -1.4833 -0.1385  0.5049
11396TIP3   OH255602   5.114   2.589  11.916 -0.4334 -0.3591  0.1527
11396TIP3    H155603   5.127   2.629  11.830 -1.3368  0.4822  0.3897
11396TIP3    H255604   5.070   2.506  11.897 -0.5233 -0.2282 -0.2126
11397TIP3   OH255605   0.247   2.520   0.065 -0.1453  0.0517  0.2546
11397TIP3    H155606   0.255   2.425   0.056 -3.4399 -0.1655 -2.0390
11397TIP3    H255607   0.266   2.554  -0.022 -1.6060  1.2201  0.3580
11398TIP3   OH255608   2.660   6.736  15.328  0.6086  0.3166 -0.0235
11398TIP3    H155609   2.567   6.723  15.309  0.6009  0.7364 -0.2827
11398TIP3    H255610   2.704   6.714  15.245  0.5776  2.1439 -0.5626
11399TIP3   OH255611   5.099   0.309  15.195  0.2838 -0.0450 -0.0740
11399TIP3    H155612   5.137   0.261  15.269 -2.5458 -1.4743  0.5880
11399TIP3    H255613   5.018   0.345  15.230 -0.8470 -0.2754 -2.3309
11400TIP3   OH255614   6.407   6.606   4.482 -0.2204 -0.2028  0.4434
11400TIP3    H155615   6.476   6.548   4.449 -0.5138 -1.1218  1.3990
11400TIP3    H255616   6.455   6.672   4.533 -0.0589 -1.2321  1.6769
11401TIP3   OH255617   1.733   6.004   3.141  0.2423  0.2258  0.0981
11401TIP3    H155618   1.809   6.057   3.163  0.7351 -0.7545  0.8145
11401TIP3    H255619   1.751   5.971   3.053 -0.1883  1.4178 -0.4651
11402TIP3   OH255620   3.171   3.051   3.758  0.3555  0.2781 -0.1318
11402TIP3    H155621   3.083   3.078   3.733  0.1709 -0.6559 -0.5289
11402TIP3    H255622   3.212   3.023   3.676  0.0617 -1.9099  0.3878
11403TIP3   OH255623   2.299   4.990   5.319  0.0079 -0.7633 -0.6571
11403TIP3    H155624   2.239   4.918   5.299 -3.7244  1.6241  0.8400
11403TIP3    H255625   2.337   4.966   5.403  0.8475 -2.1143 -1.3970
11404TIP3   OH255626   2.959   1.389  10.440  0.1575 -0.0198 -0.5338
11404TIP3    H155627   3.005   1.466  10.474  1.1891 -0.8757  0.0928
11404TIP3    H255628   3.013   1.359  10.367 -0.8189  0.4634 -1.4727
11405TIP3   OH255629   0.942   0.448   4.744 -0.1179 -0.2337 -0.6148
11405TIP3    H155630   0.881   0.520   4.733 -1.0641 -0.9006  0.1045
11405TIP3    H255631   1.001   0.454   4.668 -0.5856  0.8831 -0.9003
11406TIP3   OH255632   5.244   3.953   4.587 -0.2973  0.1743 -0.0628
11406TIP3    H155633   5.252   3.879   4.527  3.2427 -0.2988  0.7628
11406TIP3    H255634   5.334   3.982   4.602 -1.1933  1.8612  3.0304
11407TIP3   OH255635   3.157   5.462   4.483 -0.3625 -0.6507  0.1710
11407TIP3    H155636   3.226   5.404   4.514  2.2866  0.7542 -2.5896
11407TIP3    H255637   3.106   5.409   4.422 -0.4602 -1.1314  0.6673
11408TIP3   OH255638   0.078   3.035  11.781  0.0629 -0.4286 -0.4185
11408TIP3    H155639   0.051   2.988  11.702 -0.4478  0.7863 -0.9896
11408TIP3    H255640   0.006   3.022  11.842 -0.1769 -0.2181 -0.6538
11409TIP3   OH255641   0.740   0.711   4.646 -0.2456  0.4666  0.2376
11409TIP3    H155642   0.691   0.772   4.702 -0.4022  0.4843  0.0837
11409TIP3    H255643   0.818   0.759   4.620 -0.3179  0.5639  0.2008
11410TIP3   OH255644   5.109   1.678   1.768 -0.3538 -0.0787 -0.1180
11410TIP3    H155645   5.015   1.673   1.747 -0.5932  0.2228  0.8251
11410TIP3    H255646   5.115   1.748   1.833  0.3826 -0.8232  0.6341
11411TIP3   OH255647   6.518   1.082  12.845  0.1708  0.4679 -0.7959
11411TIP3    H155648   6.559   1.043  12.768 -0.3330 -1.5602 -0.1021
11411TIP3    H255649   6.424   1.073  12.829  0.0636 -0.1597  0.1194
11412TIP3   OH255650   2.603   6.815   5.073  0.0784 -0.7414 -0.2095
11412TIP3    H155651   2.647   6.731   5.064  1.8809  0.0021  0.9051
11412TIP3    H255652   2.597   6.829   5.168  1.4523  1.1267 -0.3421
11413TIP3   OH255653   0.334   5.588   2.146  0.2641  0.4619 -0.2276
11413TIP3    H155654   0.328   5.645   2.069  3.8106 -0.3955 -1.3412
11413TIP3    H255655   0.391   5.635   2.206  1.6801 -0.9961 -0.3575
11414TIP3   OH255656   0.338   5.240  11.425 -0.1730 -0.0597 -0.0080
11414TIP3    H155657   0.244   5.224  11.410  0.2562 -0.9847 -2.0093
11414TIP3    H255658   0.369   5.278  11.343  1.1964  0.4257  0.6999
11415TIP3   OH255659   0.946   3.746  16.670 -0.7725  0.0193 -0.5138
11415TIP3    H155660   0.916   3.693  16.596 -0.7154 -2.1928  0.9278
11415TIP3    H255661   0.892   3.716  16.743  0.6266  0.5490  0.7867
11416TIP3   OH255662   0.938   2.493   1.725 -0.4282 -0.0264  0.7825
11416TIP3    H155663   0.898   2.522   1.643 -0.2221 -0.9145  0.3568
11416TIP3    H255664   0.980   2.572   1.760 -0.2880  0.3068 -0.0971
11417TIP3   OH255665   3.451   0.463   1.905 -0.5871  0.6473  0.2821
11417TIP3    H155666   3.422   0.401   1.972  0.6996  0.1008  0.3634
11417TIP3    H255667   3.536   0.429   1.876  0.2540  2.4644  0.4655
11418TIP3   OH255668   4.727   1.474  13.176 -0.6526  0.1727 -0.2755
11418TIP3    H155669   4.659   1.434  13.121  0.1775 -1.1640 -0.3800
11418TIP3    H255670   4.741   1.560  13.137 -2.1670  0.4305 -0.3423
11419TIP3   OH255671   4.924   4.712   3.424  0.1986 -0.2009 -0.0609
11419TIP3    H155672   4.918   4.623   3.458  0.4223 -0.0831  0.2998
11419TIP3    H255673   4.833   4.740   3.414  0.1279 -0.4786 -0.2026
11420TIP3   OH255674   2.907   1.633  13.058 -0.2737  0.2187 -0.0654
11420TIP3    H155675   2.883   1.709  13.005  0.7155  0.4882 -0.1457
11420TIP3    H255676   2.995   1.609  13.028  0.2646  0.3136  1.3787
11421TIP3   OH255677   5.583   4.513   2.010 -0.0658 -0.0649  0.3170
11421TIP3    H155678   5.583   4.599   2.053  1.0299  0.4047 -0.5604
11421TIP3    H255679   5.524   4.523   1.936 -0.5632 -0.3226  0.6753
11422TIP3   OH255680   5.294   3.969   5.481 -0.2213 -0.7924 -0.3467
11422TIP3    H155681   5.252   3.905   5.539  0.6297 -1.3683 -0.3461
11422TIP3    H255682   5.257   3.950   5.395 -1.0806 -0.2961 -0.0994
11423TIP3   OH255683   5.759   3.612   3.811 -0.6457 -0.4380  0.0346
11423TIP3    H155684   5.788   3.552   3.880 -0.5672  0.2168  0.5741
11423TIP3    H255685   5.818   3.687   3.818 -1.9229  0.5443  0.5957
11424TIP3   OH255686   0.169   1.615  13.880 -0.3825  0.4316 -0.4638
11424TIP3    H155687   0.229   1.576  13.817  0.7635 -0.9482  1.3836
11424TIP3    H255688   0.113   1.672  13.827  0.9429 -0.1226 -2.6025
11425TIP3   OH255689   3.485   6.312   0.468 -0.3060  0.0869 -0.3304
11425TIP3    H155690   3.570   6.294   0.428  0.0788 -1.3412  1.0305
11425TIP3    H255691   3.429   6.241   0.437 -0.5936  0.1940 -0.0584
11426TIP3   OH255692   2.025   4.081  15.465 -0.5332 -0.1701 -0.3377
11426TIP3    H155693   2.042   4.028  15.543  0.9278  0.0956 -0.4436
11426TIP3    H255694   1.974   4.024  15.408 -0.2656 -0.9273  0.1615
11427TIP3   OH255695   3.688   0.592  16.388 -0.3627  0.0527  0.2748
11427TIP3    H155696   3.634   0.557  16.459 -0.9861  0.9415  0.2595
11427TIP3    H255697   3.755   0.644  16.432  0.2546 -0.7412  0.2772
11428TIP3   OH255698   0.515   3.607   4.498 -0.1663 -0.0415  0.3678
11428TIP3    H155699   0.455   3.671   4.536 -0.6482 -0.8746  1.0754
11428TIP3    H255700   0.463   3.526   4.493  0.5573 -0.4963 -0.0745
11429TIP3   OH255701   6.241   5.016  10.887  0.1445  0.0409  0.8743
11429TIP3    H155702   6.181   4.971  10.826 -0.4780  1.5699  0.2926
11429TIP3    H255703   6.315   4.957  10.896 -0.9309 -1.3985  0.6913
11430TIP3   OH255704   4.405   2.122   6.096 -0.4046 -0.1559 -0.1298
11430TIP3    H155705   4.389   2.129   6.002 -0.0731 -1.2774 -0.2902
11430TIP3    H255706   4.377   2.033   6.118 -0.1485 -0.0234  0.7628
11431TIP3   OH255707   6.507   6.054   4.072 -0.3705 -0.4577  0.3851
11431TIP3    H155708   6.492   6.129   4.129  0.5119 -0.3327  0.4669
11431TIP3    H255709   6.440   6.062   4.004  0.3293  0.9873 -0.1789
11432TIP3   OH255710   4.060   0.454  11.758  0.2729 -0.1757 -0.5853
11432TIP3    H155711   4.048   0.397  11.834 -0.0914 -0.5817 -0.9417
11432TIP3    H255712   4.154   0.473  11.757  0.3420 -0.4823 -0.2531
11433TIP3   OH255713   0.712   6.349   2.871 -0.6130  0.4382 -0.0438
11433TIP3    H155714   0.641   6.294   2.905  0.0577 -1.3047 -1.2693
11433TIP3    H255715   0.697   6.351   2.776  0.8180  0.2052 -0.3047
11434TIP3   OH255716   4.863   3.081  13.112  0.2659 -0.5256 -0.3271
11434TIP3    H155717   4.923   3.042  13.048 -0.0564 -2.3336  0.3882
11434TIP3    H255718   4.788   3.021  13.114 -0.5508  0.4829  0.4080
11435TIP3   OH255719   0.973   3.578   3.742  0.2944  0.0968  1.3581
11435TIP3    H155720   0.947   3.645   3.679  0.3246 -1.2709 -0.1805
11435TIP3    H255721   1.054   3.542   3.707 -0.7623 -2.1127  1.0109
11436TIP3   OH255722   0.883   0.145  14.343 -0.1238  0.6952  0.0511
11436TIP3    H155723   0.948   0.078  14.362  1.4221  2.2977  0.6892
11436TIP3    H255724   0.803   0.114  14.385  0.8956 -0.1196  1.4617
11437TIP3   OH255725   3.647   1.983  10.852  0.5480 -0.1978 -0.1559
11437TIP3    H155726   3.609   1.965  10.766  2.0177 -1.5386 -0.5739
11437TIP3    H255727   3.573   1.980  10.912 -0.4683  0.4910 -1.3264
11438TIP3   OH255728   1.985   4.726  12.517  0.0654 -0.5799 -0.2342
11438TIP3    H155729   1.951   4.758  12.600  1.6550  2.2255 -0.5205
11438TIP3    H255730   1.929   4.767  12.451  0.7589 -0.1382 -0.5695
11439TIP3   OH255731   3.187   5.678  15.506 -0.1718  0.3685  0.3266
11439TIP3    H155732   3.221   5.589  15.497 -0.0062  0.3695  0.9511
11439TIP3    H255733   3.261   5.735  15.484 -0.5056  0.3609 -0.9141
11440TIP3   OH255734   3.534   1.789   3.560 -0.2167  0.1090  0.1672
11440TIP3    H155735   3.615   1.821   3.520  0.8030  0.0713  2.0608
11440TIP3    H255736   3.476   1.865   3.562  0.1854  0.4320 -0.2073
11441TIP3   OH255737   1.441   6.559  15.206  0.0813 -0.3083 -0.2052
11441TIP3    H155738   1.349   6.565  15.178 -0.6118 -0.3463  1.9107
11441TIP3    H255739   1.443   6.604  15.291  2.4442  1.3993 -1.0492
11442TIP3   OH255740   6.414   4.914  10.627 -0.3829  0.1359 -0.3508
11442TIP3    H155741   6.392   4.843  10.567 -1.6127  0.1793  0.0302
11442TIP3    H255742   6.509   4.923  10.619 -0.1993 -1.5613 -0.3907
11443TIP3   OH255743   0.370   1.006   3.235  0.3604  0.2943 -0.4448
11443TIP3    H155744   0.329   1.065   3.298 -0.6536  0.5874 -1.3635
11443TIP3    H255745   0.298   0.974   3.181  1.2406  0.2048 -1.5977
11444TIP3   OH255746   4.371   5.876   3.830  0.8670  0.4723  0.9209
11444TIP3    H155747   4.444   5.874   3.893  0.7989 -1.4200  0.9848
11444TIP3    H255748   4.309   5.812   3.864  0.5409 -0.1297 -0.7350
11445TIP3   OH255749   4.889   4.135  15.197 -0.0139  0.0100 -0.2818
11445TIP3    H155750   4.898   4.204  15.131  0.2126  0.1057 -0.1522
11445TIP3    H255751   4.839   4.066  15.154  0.4348 -0.0744 -0.6680
11446TIP3   OH255752   6.675   1.593   5.906 -0.2582  0.2096 -0.2155
11446TIP3    H155753   6.623   1.536   5.848  0.2839  0.1466 -0.6421
11446TIP3    H255754   6.638   1.680   5.893 -0.5229  0.1007 -0.2095
11447TIP3   OH255755   3.546   4.311  15.897  0.2386  0.3893 -0.3702
11447TIP3    H155756   3.453   4.333  15.899 -0.1066 -0.9912  1.0637
11447TIP3    H255757   3.566   4.300  15.804 -1.2643 -0.1577 -0.6565
11448TIP3   OH255758   4.064   4.898   6.543  0.0369  0.8644  0.0997
11448TIP3    H155759   4.029   4.867   6.460  2.3085 -2.2318  0.1514
11448TIP3    H255760   3.986   4.914   6.597 -1.4359 -1.2838 -1.2135
11449TIP3   OH255761   6.202   0.131   1.859 -0.1192 -0.3747 -0.2219
11449TIP3    H155762   6.208   0.144   1.954  0.8375  1.3085 -0.4802
11449TIP3    H255763   6.287   0.158   1.825 -0.2950 -1.3709 -1.5386
11450TIP3   OH255764   1.918   0.514   5.703  0.3006  0.7854  0.2511
11450TIP3    H155765   1.937   0.481   5.615  0.7815 -1.1430  1.0218
11450TIP3    H255766   1.963   0.598   5.707  0.6221  0.7135 -1.2015
11451TIP3   OH255767   4.345   4.407  16.412 -0.1013 -0.6268  0.1438
11451TIP3    H155768   4.307   4.336  16.361 -0.0691  0.9896 -2.3040
11451TIP3    H255769   4.291   4.413  16.490 -1.9176 -1.4359 -0.9940
11452TIP3   OH255770   2.259   5.798  15.349 -0.2689 -0.2881 -0.5010
11452TIP3    H155771   2.286   5.778  15.260  0.3932 -1.2259 -0.1188
11452TIP3    H255772   2.341   5.821  15.394 -0.8309  2.0533 -0.5659
11453TIP3   OH255773   3.561   4.769  11.993  0.7491  0.0186 -0.5415
11453TIP3    H155774   3.630   4.723  11.946  0.6042  0.5448 -1.2780
11453TIP3    H255775   3.595   4.857  12.007  0.5672  0.0309 -0.1472
11454TIP3   OH255776   1.530   1.379   2.122 -0.1058  0.2615 -0.1443
11454TIP3    H155777   1.597   1.406   2.185  1.9374 -2.8006 -0.7985
11454TIP3    H255778   1.452   1.363   2.176  1.2604 -1.1860  1.5054
11455TIP3   OH255779   5.468   2.789   3.332 -0.1799  0.1805  0.2414
11455TIP3    H155780   5.467   2.772   3.426  1.0440 -0.8405  0.1041
11455TIP3    H255781   5.376   2.801   3.308 -0.6303 -0.8474  1.3573
11456TIP3   OH255782   2.853   0.237   2.793 -0.1630 -0.7771  0.2701
11456TIP3    H155783   2.836   0.315   2.741 -0.4771 -0.1211  1.3371
11456TIP3    H255784   2.868   0.168   2.728 -0.2955  0.0681 -0.6830
11457TIP3   OH255785   5.308   6.087   0.331  0.0764  0.2245  0.5820
11457TIP3    H155786   5.290   6.092   0.237  1.5861 -0.5656  0.2160
11457TIP3    H255787   5.400   6.114   0.339 -0.2894  1.1882  1.9578
11458TIP3   OH255788   4.954   6.240   6.277 -0.0712 -0.3348 -0.1351
11458TIP3    H155789   5.004   6.312   6.316  1.4454 -0.2765 -2.0382
11458TIP3    H255790   4.986   6.162   6.322  0.6998 -0.1448 -0.3428
11459TIP3   OH255791   0.244   0.518   1.100  0.2719  0.5240 -0.2164
11459TIP3    H155792   0.338   0.501   1.099  0.6489  2.1754  1.0913
11459TIP3    H255793   0.204   0.435   1.124  1.1967 -0.7194 -2.6543
11460TIP3   OH255794   0.835   2.911   2.465  0.3052  0.6124  0.0933
11460TIP3    H155795   0.740   2.920   2.459  0.3209  1.2729  0.7202
11460TIP3    H255796   0.857   2.846   2.398 -0.7134 -0.5205  0.8236
11461TIP3   OH255797   4.019   0.727  14.801  0.0355  0.7257  0.2072
11461TIP3    H155798   4.063   0.662  14.855  1.2492  2.2251  1.1043
11461TIP3    H255799   4.057   0.715  14.714  1.7371  1.4792  0.7993
11462TIP3   OH255800   4.438   1.695   0.833  0.3324  0.2249 -0.1948
11462TIP3    H155801   4.351   1.671   0.803 -0.6014  1.6698  1.1548
11462TIP3    H255802   4.492   1.696   0.754 -0.7582 -1.0806 -0.9948
11463TIP3   OH255803   2.481   4.523   1.448  0.2606  0.2364 -0.1312
11463TIP3    H155804   2.405   4.568   1.484 -1.9452 -1.3289 -2.4901
11463TIP3    H255805   2.486   4.552   1.357  1.6861 -0.7038 -0.3843
11464TIP3   OH255806   0.288   1.770  12.406  0.3533 -0.5582 -0.9721
11464TIP3    H155807   0.364   1.775  12.463  0.2931 -0.5586 -0.8918
11464TIP3    H255808   0.264   1.862  12.389  0.7355 -0.5497 -1.4825
11465TIP3   OH255809   3.023   2.064  13.482 -0.1760 -0.4702  0.6151
11465TIP3    H155810   2.994   2.150  13.451  0.0114 -0.1598  1.2879
11465TIP3    H255811   2.945   2.009  13.472 -1.5507  0.6767  3.6856
11466TIP3   OH255812   3.654   1.529   2.291  0.4373  0.3073  0.1653
11466TIP3    H155813   3.582   1.553   2.351  0.2252 -1.4771  0.6705
11466TIP3    H255814   3.645   1.591   2.218 -2.2720 -0.4794 -0.3020
11467TIP3   OH255815   0.451   5.966   3.933  0.0288 -0.5934 -0.0129
11467TIP3    H155816   0.361   5.952   3.960 -0.4391 -0.7281 -1.5688
11467TIP3    H255817   0.474   6.053   3.968 -0.9395 -0.2547 -0.2042
11468TIP3   OH255818   4.415   1.654   3.903 -0.3857 -0.1996 -0.5666
11468TIP3    H155819   4.465   1.691   3.976  0.2614 -0.2220 -0.9929
11468TIP3    H255820   4.335   1.706   3.900 -0.3725 -0.1262  0.0902
11469TIP3   OH255821   1.765   3.168  16.359  0.2893 -0.0073  0.0356
11469TIP3    H155822   1.787   3.077  16.336  0.6092 -0.1470  0.8680
11469TIP3    H255823   1.797   3.219  16.284 -0.6141 -0.6420 -0.8153
11470TIP3   OH255824   6.595   1.690  12.261 -0.5154 -0.0328  1.1443
11470TIP3    H155825   6.634   1.728  12.183 -3.3718  1.8987  0.5084
11470TIP3    H255826   6.589   1.762  12.323 -1.2494 -0.7441  1.9378
11471TIP3   OH255827   3.599   4.041   3.233  0.0679  0.0184 -0.4290
11471TIP3    H155828   3.517   4.087   3.249  1.0144  1.0515  1.8974
11471TIP3    H255829   3.663   4.109   3.215  0.9310 -0.5527  0.3482
11472TIP3   OH255830   6.671   2.560  12.666 -0.3238  0.0292 -0.7681
11472TIP3    H155831   6.606   2.619  12.626 -0.9716 -0.6004 -0.6674
11472TIP3    H255832   6.708   2.611  12.738 -0.9326  0.2916 -0.6317
11473TIP3   OH255833   2.403   2.421  14.343 -0.0525  0.0924  0.0156
11473TIP3    H155834   2.352   2.343  14.320 -1.8443  1.2711 -0.1594
11473TIP3    H255835   2.464   2.390  14.410 -0.2129 -1.6172 -0.5717
11474TIP3   OH255836   5.877   3.978   4.815  0.5154 -0.5791 -0.0136
11474TIP3    H155837   5.832   4.061   4.800 -0.0724 -0.8556  0.1769
11474TIP3    H255838   5.889   3.974   4.910 -3.0758 -2.4919  0.5452
11475TIP3   OH255839   6.503   5.019  16.967  0.3586  0.4524  0.0073
11475TIP3    H155840   6.584   5.008  16.917 -0.1742 -1.1106 -0.5953
11475TIP3    H255841   6.454   4.938  16.951 -0.5260  0.5709  1.8348
11476TIP3   OH255842   6.076   5.524  16.855  0.2742  0.0272 -0.8610
11476TIP3    H155843   6.052   5.617  16.849 -0.5614  0.0393  1.6347
11476TIP3    H255844   6.104   5.512  16.946  4.9756 -1.1799 -2.1676
11477TIP3   OH255845   4.327   1.763   3.477  0.2617  0.0417 -0.2061
11477TIP3    H155846   4.401   1.782   3.534 -1.5825  2.6431  1.5323
11477TIP3    H255847   4.266   1.836   3.490 -1.9147 -1.1042 -2.7922
11478TIP3   OH255848   2.220   2.983   1.069  0.1043 -0.0959  0.3549
11478TIP3    H155849   2.208   2.933   1.150  2.3250 -0.0030  0.7919
11478TIP3    H255850   2.314   2.987   1.057 -0.1379  1.1489 -1.4800
11479TIP3   OH255851   5.188   3.298   3.835 -0.1619  0.0221 -0.8862
11479TIP3    H155852   5.153   3.346   3.760 -1.5127  0.7507  0.1661
11479TIP3    H255853   5.124   3.229   3.850 -0.3380  0.3933  0.1003
11480TIP3   OH255854   1.316   2.451  11.515  0.3529  0.1305  0.2909
11480TIP3    H155855   1.372   2.442  11.438 -0.0976 -1.4833  0.1100
11480TIP3    H255856   1.227   2.432  11.483  0.3226 -1.9376  1.4014
11481TIP3   OH255857   2.686   0.274   0.474 -0.0647  0.5719  0.5548
11481TIP3    H155858   2.694   0.247   0.382  0.2072  0.5771  0.5758
11481TIP3    H255859   2.732   0.206   0.522  2.0419  1.8742  0.4873
11482TIP3   OH255860   0.865   0.871   0.437  0.0505  0.6529  0.3324
11482TIP3    H155861   0.821   0.875   0.352 -0.7201  2.3601  0.7710
11482TIP3    H255862   0.951   0.911   0.421 -0.9048  3.0456  0.7665
11483TIP3   OH255863   0.543   6.571  13.165 -0.3797 -0.3383  0.2519
11483TIP3    H155864   0.490   6.640  13.203 -0.6773 -0.7291  0.5650
11483TIP3    H255865   0.582   6.610  13.087 -0.1691  0.3214  0.6779
11484TIP3   OH255866   6.784   2.092  10.712  0.2478  0.5792  0.4276
11484TIP3    H155867   6.749   2.028  10.650  1.7089 -1.0472  1.2132
11484TIP3    H255868   6.870   2.114  10.679  0.5467  0.6267  1.2107
11485TIP3   OH255869   3.018   3.434  13.961 -0.2967  0.4504 -0.0630
11485TIP3    H155870   3.043   3.420  13.869 -0.2629  2.1817 -0.3407
11485TIP3    H255871   3.008   3.345  13.996 -0.1658 -0.2522 -1.6915
11486TIP3   OH255872   5.750   4.783  12.456  0.2432 -0.0009 -0.1065
11486TIP3    H155873   5.760   4.708  12.514 -0.6844  0.6881  0.9822
11486TIP3    H255874   5.838   4.819  12.448  0.5933 -0.8421 -0.1668
11487TIP3   OH255875   1.332   3.582  15.150  0.8104 -0.0423 -0.8616
11487TIP3    H155876   1.314   3.661  15.100  2.3991  0.5418 -0.5592
11487TIP3    H255877   1.256   3.570  15.206  1.6246  2.7875  1.0179
11488TIP3   OH255878   0.885   3.840  16.347 -0.6953  0.1079  0.3632
11488TIP3    H155879   0.958   3.869  16.402  0.0399 -0.6991 -0.1618
11488TIP3    H255880   0.816   3.817  16.409 -1.5814  3.4408  0.8341
11489TIP3   OH255881   6.339   2.288   3.182 -0.4208  0.9879 -0.0303
11489TIP3    H155882   6.382   2.239   3.252 -0.5183  0.6490 -0.2005
11489TIP3    H255883   6.263   2.328   3.223 -1.6427 -0.8652 -0.3406
11490TIP3   OH255884   5.610   4.768   5.320 -0.0237 -0.0488  0.1755
11490TIP3    H155885   5.550   4.800   5.252  0.5092  0.9975  0.1761
11490TIP3    H255886   5.568   4.791   5.402  0.5511  1.0691  0.1752
11491TIP3   OH255887   2.362   3.494  16.398 -0.8999 -0.2912 -0.3912
11491TIP3    H155888   2.376   3.458  16.486 -1.1881  0.7511  0.0969
11491TIP3    H255889   2.297   3.563  16.411 -1.3698 -0.5114 -1.5266
11492TIP3   OH255890   1.314   0.880  14.285  0.1105 -0.3126 -0.5143
11492TIP3    H155891   1.294   0.883  14.191  0.2991 -0.8482 -0.5731
11492TIP3    H255892   1.232   0.854  14.326  0.4535 -1.7229 -0.6833
11493TIP3   OH255893   0.255   5.370   2.885 -0.2782  0.6035  0.3502
11493TIP3    H155894   0.261   5.303   2.817  0.3672  0.1341  0.8472
11493TIP3    H255895   0.204   5.328   2.955  0.2617  0.5588  0.7272
11494TIP3   OH255896   3.902   5.191  11.368  0.4094 -0.1621  0.0993
11494TIP3    H155897   3.870   5.103  11.352  1.1148 -0.6565  1.2575
11494TIP3    H255898   3.981   5.198  11.313  0.1554 -0.1168 -0.2633
11495TIP3   OH255899   4.454   6.126  13.142  0.5412  0.3982  0.2906
11495TIP3    H155900   4.496   6.116  13.057 -0.2371 -0.8982  0.0270
11495TIP3    H255901   4.397   6.050  13.150  0.0043  0.9003  1.6398
11496TIP3   OH255902   4.254   2.525  15.963  0.3974 -0.0376  1.0732
11496TIP3    H155903   4.187   2.462  15.936  1.0931 -0.7333  0.9311
11496TIP3    H255904   4.217   2.611  15.940 -0.3414 -0.4240  0.7870
11497TIP3   OH255905   2.970   1.146   1.832  0.2649 -0.6382 -0.8994
11497TIP3    H155906   2.919   1.225   1.850  0.1900 -1.2418  2.0087
11497TIP3    H255907   2.905   1.081   1.807 -0.3581 -1.0949  1.6840
11498TIP3   OH255908   5.549   4.560   1.520  0.0329 -0.4677 -0.3191
11498TIP3    H155909   5.578   4.604   1.600  1.0651  2.0086 -1.9275
11498TIP3    H255910   5.472   4.610   1.493  0.3531 -0.5557 -1.4230
11499TIP3   OH255911   1.642   5.637   4.389 -0.4050 -0.1615  0.6262
11499TIP3    H155912   1.614   5.546   4.391  1.8212 -0.8803  2.1751
11499TIP3    H255913   1.722   5.639   4.440  0.7608  2.2994 -1.0961
11500TIP3   OH255914   1.070   0.700  11.724  0.3569 -0.9087 -0.5803
11500TIP3    H155915   1.061   0.795  11.731 -1.4838 -1.1631  3.1105
11500TIP3    H255916   0.994   0.673  11.673 -1.7821 -0.5937  2.2213
11501TIP3   OH255917   1.297   1.174  13.278  0.7112 -0.4047  0.5537
11501TIP3    H155918   1.275   1.124  13.199  2.2093 -0.9987  0.4828
11501TIP3    H255919   1.377   1.134  13.311  2.0556  1.9869  0.4488
11502TIP3   OH255920   5.128   5.658   1.031 -0.0428  0.1018  0.0920
11502TIP3    H155921   5.086   5.647   1.116  1.5606  0.7748  1.0177
11502TIP3    H255922   5.152   5.569   1.004  0.5195 -0.0105  0.9395
11503TIP3   OH255923   3.699   0.437  11.359 -0.8179  0.4865 -0.7146
11503TIP3    H155924   3.732   0.410  11.445  0.0559  0.0602 -1.1728
11503TIP3    H255925   3.606   0.413  11.361 -0.0580 -3.0039 -1.2249
11504TIP3   OH255926   6.138   1.225   3.435 -0.3279  0.0964  0.2654
11504TIP3    H155927   6.130   1.224   3.340 -0.5940  0.9302  0.2681
11504TIP3    H255928   6.175   1.140   3.457  0.0626  0.0292 -0.6105
11505TIP3   OH255929   5.384   1.275  14.246 -0.7394  0.1543 -0.1895
11505TIP3    H155930   5.311   1.289  14.306  0.2919 -0.9534  1.4042
11505TIP3    H255931   5.452   1.336  14.276 -0.4568  0.0856 -0.6839
11506TIP3   OH255932   2.796   0.003  14.156  0.5005  0.5096 -0.1402
11506TIP3    H155933   2.708   0.003  14.193 -0.8146  3.3350 -2.8100
11506TIP3    H255934   2.842   0.073  14.202  0.3718  0.9364 -0.6444
11507TIP3   OH255935   1.124   1.652  17.079 -0.4380  0.3008  0.0130
11507TIP3    H155936   1.135   1.604  17.160  0.3549  0.9722  0.3179
11507TIP3    H255937   1.042   1.618  17.041  0.6283 -2.0537 -0.3378
11508TIP3   OH255938   5.913   2.059  12.130 -0.1425 -0.3345 -0.3225
11508TIP3    H155939   5.958   2.125  12.183 -1.9955  0.4029  0.4449
11508TIP3    H255940   5.908   2.099  12.043 -0.7469  0.3171 -0.0027
11509TIP3   OH255941   4.440   2.646  14.939  0.3053  0.2733  0.4526
11509TIP3    H155942   4.379   2.675  15.007 -0.7262  0.5097 -0.5372
11509TIP3    H255943   4.393   2.577  14.893  1.8274 -1.4060  1.3024
11510TIP3   OH255944   3.127   2.396   5.044  0.1484 -0.0470  0.3670
11510TIP3    H155945   3.166   2.335   4.981  0.9924  0.5896  0.2493
11510TIP3    H255946   3.188   2.394   5.119 -0.5908 -0.4346  0.9717
11511TIP3   OH255947   3.949   5.574  10.687 -0.0256  0.1144 -0.3600
11511TIP3    H155948   3.893   5.649  10.711  0.9280  0.9228 -0.6180
11511TIP3    H255949   4.030   5.614  10.657  0.1649 -1.0109 -1.3790
11512TIP3   OH255950   6.378   0.308   1.337 -0.5440 -0.5148  0.1548
11512TIP3    H155951   6.329   0.364   1.277  0.8543  1.2142  0.5540
11512TIP3    H255952   6.374   0.221   1.297  1.8076  0.8287 -3.5065
11513TIP3   OH255953   1.936   4.563  16.777  0.4298 -0.1624 -0.0884
11513TIP3    H155954   1.995   4.488  16.780  0.7897  0.0396 -1.4429
11513TIP3    H255955   1.992   4.638  16.757 -0.4281 -0.2787 -3.6861
11514TIP3   OH255956   1.321   0.382  12.461  0.8044 -0.7233 -0.5907
11514TIP3    H155957   1.271   0.330  12.398 -1.1078 -0.9456  1.0004
11514TIP3    H255958   1.379   0.437  12.407 -0.3562 -1.2719 -2.4885
11515TIP3   OH255959   6.728   1.462  16.727 -0.6444 -0.1537 -0.0293
11515TIP3    H155960   6.705   1.386  16.781  1.6855 -1.1265 -0.3048
11515TIP3    H255961   6.774   1.520  16.788  2.3178 -1.4134 -0.9037
11516TIP3   OH255962   0.624   1.146   0.292  0.1143  0.3280  0.3616
11516TIP3    H155963   0.620   1.066   0.240 -0.5419  0.7121 -0.2024
11516TIP3    H255964   0.710   1.184   0.273  0.0144  0.2858 -0.1738
11517TIP3   OH255965   4.359   1.034  10.059 -0.4536 -0.4936  0.6876
11517TIP3    H155966   4.449   1.008  10.037  0.1563  2.0463 -0.1341
11517TIP3    H255967   4.342   1.111  10.005 -2.5858  0.0302  1.9733
11518TIP3   OH255968   1.728   6.457   0.661 -0.5708 -0.1681  0.3408
11518TIP3    H155969   1.649   6.485   0.615 -0.3324 -0.9190 -0.5547
11518TIP3    H255970   1.798   6.466   0.596 -0.3350 -1.8666  0.3125
11519TIP3   OH255971   1.249   5.853   4.220 -0.0030 -0.1247 -0.1335
11519TIP3    H155972   1.303   5.925   4.254 -0.6458 -0.3105  1.3847
11519TIP3    H255973   1.283   5.775   4.264 -0.1165 -0.5638 -0.8190
11520TIP3   OH255974   6.253   0.982   3.790 -0.3929 -0.2604  0.3249
11520TIP3    H155975   6.249   1.077   3.800  0.0068 -0.2524  0.4437
11520TIP3    H255976   6.238   0.967   3.696  1.5737  0.0746 -0.0894
11521TIP3   OH255977   0.135   5.554  15.951  0.6403  1.1213 -0.1709
11521TIP3    H155978   0.047   5.547  15.987 -0.0513  0.9594 -1.8017
11521TIP3    H255979   0.175   5.627  15.998  0.2049  0.2318  1.6690
11522TIP3   OH255980   6.492   3.390   4.033 -0.3003 -0.4173 -0.6358
11522TIP3    H155981   6.482   3.440   3.952  0.7496  0.3662 -0.2872
11522TIP3    H255982   6.412   3.407   4.082 -1.2740 -1.4567 -1.7835
11523TIP3   OH255983   5.027   5.707  12.983 -0.5215  0.5524  0.2641
11523TIP3    H155984   4.995   5.702  12.893 -0.4687  0.8534  0.2277
11523TIP3    H255985   5.066   5.621  12.999  2.6175  1.5600 -1.1869
11524TIP3   OH255986   1.475   2.474  14.223 -0.1739 -0.0572 -0.8140
11524TIP3    H155987   1.524   2.400  14.188  1.6990  0.6114  0.2148
11524TIP3    H255988   1.403   2.434  14.272 -1.2118 -1.0512 -3.0508
11525TIP3   OH255989   2.366   4.155  12.971  0.6439  0.2475 -0.0003
11525TIP3    H155990   2.301   4.205  12.921  0.3857  0.7051  0.7670
11525TIP3    H255991   2.327   4.068  12.980  0.4291  0.3312 -0.1071
11526TIP3   OH255992   6.255   4.934   0.845 -0.8138 -0.5855 -0.5745
11526TIP3    H155993   6.175   4.951   0.796 -0.9575 -1.1511 -0.5459
11526TIP3    H255994   6.243   4.846   0.882 -0.2433 -0.6202 -0.4508
11527TIP3   OH255995   1.752   6.315  13.019 -0.5111 -0.0912  0.6749
11527TIP3    H155996   1.695   6.345  12.949  1.1252  1.3945 -0.0863
11527TIP3    H255997   1.710   6.345  13.099 -1.7633 -0.7274  0.2751
11528TIP3   OH255998   1.710   1.190   2.701 -0.3854 -0.0165 -0.0141
11528TIP3    H155999   1.797   1.211   2.668 -0.6662 -0.7044 -1.2381
11528TIP3    H256000   1.724   1.163   2.792  0.7085 -0.4324 -0.2960
11529TIP3   OH256001   0.529   1.618  14.450  0.3332 -0.5607 -0.0058
11529TIP3    H156002   0.598   1.584  14.393  1.3436  0.2369  0.6832
11529TIP3    H256003   0.553   1.710  14.463  0.1678 -0.7237  1.7101
11530TIP3   OH256004   2.783   2.378   4.002  0.3618 -0.0665  0.5471
11530TIP3    H156005   2.805   2.403   4.092  2.0472  0.9805 -0.1008
11530TIP3    H256006   2.866   2.348   3.965  0.0652  1.0187 -1.1225
11531TIP3   OH256007   3.219   1.524  13.312  0.2700 -0.4987  0.0234
11531TIP3    H156008   3.275   1.581  13.259  3.0033  1.1151  4.1717
11531TIP3    H256009   3.273   1.448  13.332  1.2377  1.0161  3.9772
11532TIP3   OH256010   6.331   2.386  11.752 -0.1117  0.0778 -0.2621
11532TIP3    H156011   6.331   2.455  11.685  0.6777  0.9651  0.6155
11532TIP3    H256012   6.390   2.418  11.819 -1.5678 -0.3786  1.3021
11533TIP3   OH256013   0.183   4.565   5.646  0.9347 -0.0242  0.2079
11533TIP3    H156014   0.238   4.516   5.707  1.3184  0.0429 -0.0806
11533TIP3    H256015   0.135   4.626   5.701 -0.1175 -1.2186  0.6718
11534TIP3   OH256016   1.903   2.884  14.643  0.1919  0.5361 -0.4373
11534TIP3    H156017   1.848   2.893  14.565 -2.0987  0.3694  1.0708
11534TIP3    H256018   1.882   2.961  14.695 -0.4790 -0.7284  1.2533
11535TIP3   OH256019   2.013   5.941   3.804  0.4835 -0.1791  0.3961
11535TIP3    H156020   1.973   6.013   3.852  0.5469 -1.1085  1.8980
11535TIP3    H256021   1.976   5.862   3.843  0.2003 -0.9937 -1.3934
11536TIP3   OH256022   5.013   6.534   0.939  0.0558 -0.2315  0.1682
11536TIP3    H156023   4.956   6.468   0.980 -1.8229  0.8522 -0.5535
11536TIP3    H256024   5.037   6.592   1.011 -0.2153 -0.3863  0.3856
11537TIP3   OH256025   6.494   6.790  14.402 -0.4917 -0.8397  0.0270
11537TIP3    H156026   6.506   6.698  14.426 -0.3237 -1.3619 -1.8552
11537TIP3    H256027   6.399   6.800  14.393 -0.5725 -0.5693  1.1331
11538TIP3   OH256028   5.601   1.468   0.998  0.0739 -0.2055 -0.1133
11538TIP3    H156029   5.604   1.452   1.093  0.8864 -0.4178 -0.1646
11538TIP3    H256030   5.519   1.516   0.984  0.0379 -0.0119  0.7228
11539TIP3   OH256031   5.887   4.625   3.193 -0.2748  0.1275 -0.0945
11539TIP3    H156032   5.878   4.719   3.209  0.5023  0.5702 -1.9403
11539TIP3    H256033   5.798   4.594   3.180 -0.5325  0.6057  0.4621
11540TIP3   OH256034   4.267   1.247   1.725 -0.5024 -0.1680  0.3314
11540TIP3    H156035   4.212   1.169   1.737 -1.7318  0.3301 -1.6042
11540TIP3    H256036   4.339   1.217   1.670 -1.5993  0.2584 -1.4065
11541TIP3   OH256037   4.814   1.965   2.497  0.4036  0.4791  0.6119
11541TIP3    H156038   4.792   2.044   2.546 -0.4410 -0.0350  1.0812
11541TIP3    H256039   4.898   1.938   2.533  0.1414  0.5197  1.2607
11542TIP3   OH256040   0.227   6.807  12.191 -0.3920  0.3276 -0.7165
11542TIP3    H156041   0.265   6.846  12.270  0.3636 -0.7043 -0.5413
11542TIP3    H256042   0.273   6.849  12.119 -0.5728  0.7553 -0.5858
11543TIP3   OH256043   3.918   2.585  12.368  0.1117 -0.1160 -0.4897
11543TIP3    H156044   4.009   2.589  12.340  0.1313  1.0951 -0.3266
11543TIP3    H256045   3.914   2.644  12.444 -1.1740  1.3341 -1.6211
11544TIP3   OH256046   3.464   6.768  11.464 -0.0128  0.3236  0.0741
11544TIP3    H156047   3.390   6.713  11.489  0.9524 -0.7166  0.7200
11544TIP3    H256048   3.525   6.708  11.421  1.0143  0.8980  0.6903
11545TIP3   OH256049   5.343   1.165  14.542  0.2186 -0.0828 -0.7771
11545TIP3    H156050   5.275   1.139  14.480 -0.1723  0.0009 -0.3818
11545TIP3    H256051   5.329   1.258  14.556  0.3731 -0.0800 -0.6430
11546TIP3   OH256052   1.765   1.984   5.961 -0.2574  0.2256 -0.1252
11546TIP3    H156053   1.843   2.041   5.960 -1.9558  2.7403 -0.8548
11546TIP3    H256054   1.778   1.926   6.035  1.3351  2.0758  1.1471
11547TIP3   OH256055   4.977   5.206   2.326 -0.1461 -0.3859  0.0911
11547TIP3    H156056   4.921   5.145   2.375 -0.4662 -0.6354 -0.5763
11547TIP3    H256057   5.063   5.164   2.325  0.0855  0.0173  1.1572
11548TIP3   OH256058   4.042   6.448   2.167 -0.1282  0.7949 -0.3563
11548TIP3    H156059   3.975   6.484   2.226 -0.6062  1.2134 -1.1374
11548TIP3    H256060   4.012   6.359   2.149 -1.4232  1.5185 -2.0444
11549TIP3   OH256061   0.902   5.223  15.265 -0.0251  0.8908  0.2864
11549TIP3    H156062   0.954   5.183  15.196 -0.8134  0.5623 -0.1288
11549TIP3    H256063   0.966   5.270  15.319  0.8452 -0.4506  0.4607
11550TIP3   OH256064   5.140   1.408  16.801 -0.1585 -0.0809 -0.0659
11550TIP3    H156065   5.143   1.356  16.721  1.2387 -1.0128  0.5316
11550TIP3    H256066   5.115   1.495  16.773  1.9487  0.0630 -1.8000
11551TIP3   OH256067   3.046   1.638   0.157  0.1035 -0.1286  0.3078
11551TIP3    H156068   3.102   1.668   0.085 -0.8467  2.5818  0.5980
11551TIP3    H256069   3.077   1.550   0.176  2.6632  0.3695 -1.1302
11552TIP3   OH256070   3.571   5.490  11.829  0.1187 -0.2691  0.0949
11552TIP3    H156071   3.505   5.531  11.886 -1.4054 -0.6316 -1.3226
11552TIP3    H256072   3.647   5.549  11.835 -0.3047  0.1803  1.7611
11553TIP3   OH256073   5.327   0.581   3.568 -0.0918  0.4737  0.0890
11553TIP3    H156074   5.262   0.628   3.620  0.1851  0.5644  0.3556
11553TIP3    H256075   5.283   0.562   3.486 -0.8636 -0.4953  0.7001
11554TIP3   OH256076   2.575   4.329  16.114  0.0590 -0.2797 -0.6958
11554TIP3    H156077   2.612   4.401  16.165 -2.4704  0.6373  0.0062
11554TIP3    H256078   2.570   4.364  16.025  1.8016 -0.8238 -1.0427
11555TIP3   OH256079   5.283   2.149  16.585 -0.0310  0.1970 -0.2389
11555TIP3    H156080   5.245   2.236  16.579 -1.3375 -0.3753 -0.4814
11555TIP3    H256081   5.345   2.154  16.658  0.2579  1.4390 -0.5464
11556TIP3   OH256082   6.239   2.089   0.760  0.3158 -0.0722 -0.3505
11556TIP3    H156083   6.268   2.009   0.717  1.6962  0.7015 -0.9253
11556TIP3    H256084   6.209   2.060   0.846 -0.6486 -1.3865 -1.0877
11557TIP3   OH256085   6.032   2.028   3.802 -0.0746  0.7200  0.0050
11557TIP3    H156086   5.956   2.066   3.847  0.8856  2.9638 -0.1790
11557TIP3    H256087   6.046   2.083   3.726 -0.0851 -1.5081 -1.7008
11558TIP3   OH256088   4.880   1.365  15.511  0.0491 -0.0738  0.1832
11558TIP3    H156089   4.830   1.356  15.430 -1.8999 -0.4821  1.3599
11558TIP3    H256090   4.968   1.336  15.489 -0.0199  1.2824 -2.1454
11559TIP3   OH256091   4.323   5.917   5.425  0.0589  0.7727 -0.1538
11559TIP3    H156092   4.287   5.950   5.343  3.1998  1.1070 -1.5495
11559TIP3    H256093   4.309   5.823   5.423 -1.2381  0.9554 -0.3061
11560TIP3   OH256094   5.831   3.737   1.981 -0.0059  0.2112 -0.4424
11560TIP3    H156095   5.816   3.642   1.975  0.8937  0.0223  0.1993
11560TIP3    H256096   5.771   3.767   2.049  1.1589 -0.2513  0.8322
11561TIP3   OH256097   3.736   0.408   4.094 -0.6074 -1.0170 -0.6491
11561TIP3    H156098   3.772   0.387   4.008 -3.3518  0.6150 -2.3306
11561TIP3    H256099   3.647   0.437   4.077 -1.4468 -1.0711  2.8376
11562TIP3   OH256100   0.388   1.769   0.161 -0.2579 -0.5809  0.4578
11562TIP3    H156101   0.436   1.688   0.178  0.5319 -0.5935 -1.5272
11562TIP3    H256102   0.358   1.760   0.070 -2.4001  0.2690  1.0010
11563TIP3   OH256103   4.560   4.535  12.406  0.5271  0.4173  0.5363
11563TIP3    H156104   4.627   4.566  12.345  0.5071 -0.6765 -0.0652
11563TIP3    H256105   4.500   4.485  12.351  0.6464 -0.8039  1.4963
11564TIP3   OH256106   0.985   3.735   4.213 -0.9342  0.3410 -0.2496
11564TIP3    H156107   0.949   3.678   4.281 -0.8386  1.4399  0.7532
11564TIP3    H256108   1.040   3.677   4.161 -2.1084 -0.8266 -0.2592
11565TIP3   OH256109   1.688   3.024   2.224 -0.4102 -0.5211  0.6916
11565TIP3    H156110   1.644   3.033   2.139  1.5717  1.5910 -0.2285
11565TIP3    H256111   1.628   2.972   2.277 -1.4143 -2.6106 -2.2148
11566TIP3   OH256112   3.747   6.407  13.067 -0.2599  0.1273  0.0906
11566TIP3    H156113   3.769   6.372  13.153 -0.1671  1.6120  0.6911
11566TIP3    H256114   3.726   6.329  13.014  2.5738 -1.1102  0.5682
11567TIP3   OH256115   2.166   2.591  12.304 -0.4574  0.5632 -0.1183
11567TIP3    H156116   2.134   2.635  12.383  0.5233  1.1091 -0.0142
11567TIP3    H256117   2.185   2.662  12.242  2.3536  0.4740  0.4962
11568TIP3   OH256118   6.377   6.484  11.400  0.2092 -0.1821 -0.0640
11568TIP3    H156119   6.291   6.488  11.358 -0.1426  0.2411  0.6873
11568TIP3    H256120   6.389   6.570  11.441  2.1756  0.8046 -2.4066
11569TIP3   OH256121   4.499   5.435   2.490  0.2270  0.6242 -0.3234
11569TIP3    H156122   4.408   5.412   2.469 -0.6461  2.3377  1.2941
11569TIP3    H256123   4.520   5.380   2.566  0.2083  0.9352 -0.0951
11570TIP3   OH256124   4.309   4.629   4.173 -0.1630  0.1286  0.0985
11570TIP3    H156125   4.359   4.598   4.249  0.7492  0.6502 -0.2676
11570TIP3    H256126   4.229   4.577   4.174 -0.6077  0.7939  1.9560
11571TIP3   OH256127   1.114   1.180  14.578 -0.2935  0.1189  0.3598
11571TIP3    H156128   1.036   1.234  14.564 -1.1205 -1.2202 -0.5068
11571TIP3    H256129   1.161   1.185  14.495  0.0952  0.2147  0.5840
11572TIP3   OH256130   5.096   0.157  14.893 -0.2577 -0.0910 -0.1550
11572TIP3    H156131   5.154   0.230  14.915 -0.8634  0.5051 -0.4619
11572TIP3    H256132   5.125   0.129  14.806  1.4505 -1.7479  0.8948
11573TIP3   OH256133   3.073   4.255  14.554 -0.4070 -0.9187  0.1392
11573TIP3    H156134   3.167   4.246  14.536 -0.2423 -0.2461  0.6507
11573TIP3    H256135   3.056   4.192  14.624  0.4006  1.3412  2.5206
11574TIP3   OH256136   6.373   2.592   5.513 -0.0108 -0.1669 -0.5731
11574TIP3    H156137   6.463   2.569   5.490  0.2522 -1.7411  1.6138
11574TIP3    H256138   6.340   2.513   5.556 -2.5399  0.3012 -1.5380
11575TIP3   OH256139   4.270   6.164   3.242  0.0794  0.3973  0.2400
11575TIP3    H156140   4.204   6.152   3.310  0.1606 -0.8493  0.1117
11575TIP3    H256141   4.220   6.191   3.164  0.0681  2.7223  0.9721
11576TIP3   OH256142   6.699   4.141   3.599  0.4113  0.3072 -0.6174
11576TIP3    H156143   6.644   4.062   3.608  0.3507  0.4812  0.7953
11576TIP3    H256144   6.673   4.179   3.515 -1.2714  0.0973 -0.2309
11577TIP3   OH256145   1.777   3.259  12.518 -0.3771  0.0764 -0.1491
11577TIP3    H156146   1.730   3.223  12.593 -1.3048  2.2209  0.3765
11577TIP3    H256147   1.866   3.274  12.549 -0.4528 -0.1261  0.1633
11578TIP3   OH256148   4.312   5.934   4.918 -0.7825 -0.3736  0.1272
11578TIP3    H156149   4.263   5.975   4.847 -0.9922 -1.6291 -0.4846
11578TIP3    H256150   4.383   5.887   4.875  0.6840  0.9556  0.9672
11579TIP3   OH256151   1.682   2.713   4.305  0.4838 -0.0381  0.6852
11579TIP3    H156152   1.612   2.680   4.361  0.0016  1.8471  1.2480
11579TIP3    H256153   1.645   2.709   4.216  0.0893 -0.1086  0.8496
11580TIP3   OH256154   6.523   0.136   2.675 -0.7216 -0.3245 -0.0708
11580TIP3    H156155   6.522   0.120   2.581  1.6827 -1.1989 -0.0327
11580TIP3    H256156   6.548   0.051   2.713  1.2181  0.6821  1.0854
11581TIP3   OH256157   1.592   5.647   0.494 -0.2788  0.0233 -0.2146
11581TIP3    H156158   1.546   5.730   0.486 -0.0467  0.0060 -2.5563
11581TIP3    H256159   1.685   5.670   0.500  0.0920  0.0271 -3.7647
11582TIP3   OH256160   3.059   6.639   5.379  0.2554  0.3688 -0.5260
11582TIP3    H156161   3.128   6.704   5.363  0.3115  0.1601 -1.1646
11582TIP3    H256162   3.104   6.566   5.422  0.4209  0.2660 -0.8696
11583TIP3   OH256163   4.703   5.234  16.242 -0.1389 -0.6180 -0.0012
11583TIP3    H156164   4.746   5.318  16.228  0.5367 -0.9696 -0.0837
11583TIP3    H256165   4.737   5.202  16.326  0.0583 -1.0753 -0.2505
11584TIP3   OH256166   2.279   5.338   2.569 -0.3617 -0.1150 -0.0252
11584TIP3    H156167   2.318   5.290   2.642 -2.4013 -0.3140  1.0107
11584TIP3    H256168   2.354   5.364   2.515  1.4757  1.6090  3.0322
11585TIP3   OH256169   5.376   4.992   1.564  0.1948 -0.6049 -0.0867
11585TIP3    H156170   5.427   5.073   1.572  0.5509 -0.8218 -0.1430
11585TIP3    H256171   5.381   4.952   1.650 -0.5530 -0.2379  0.1406
11586TIP3   OH256172   6.499   0.538   6.146  0.0055  0.1780 -0.0081
11586TIP3    H156173   6.592   0.561   6.151  0.2511  0.0087 -2.5983
11586TIP3    H256174   6.493   0.452   6.187  0.6503  0.9266  1.7370
11587TIP3   OH256175   1.190   0.445  14.333 -0.4085 -0.7056  0.0325
11587TIP3    H156176   1.200   0.529  14.378 -0.4673 -0.0841 -1.0675
11587TIP3    H256177   1.279   0.416  14.315 -0.3501  0.4903 -1.9712
11588TIP3   OH256178   5.460   5.512  14.712  0.5478  0.7900  0.2714
11588TIP3    H156179   5.396   5.553  14.654 -0.4273  1.3738  1.7028
11588TIP3    H256180   5.408   5.450  14.764  1.4968 -0.1328  0.1486
11589TIP3   OH256181   5.086   3.322   2.718 -0.3574 -0.1280  0.1092
11589TIP3    H156182   5.105   3.292   2.807  1.9313  0.7069 -0.0311
11589TIP3    H256183   5.158   3.288   2.665  0.7804  3.0064 -0.5694
11590TIP3   OH256184   3.197   6.133  16.332  0.3938 -0.1842  0.1567
11590TIP3    H156185   3.221   6.042  16.350  0.0972 -0.1812  0.5852
11590TIP3    H256186   3.118   6.127  16.278 -1.4462 -0.2192  2.6351
11591TIP3   OH256187   1.088   2.012   0.754  0.3491  0.1323  0.4156
11591TIP3    H156188   1.014   2.063   0.720  0.6106 -0.4797 -1.1580
11591TIP3    H256189   1.159   2.029   0.692  1.1022 -0.4141  1.1158
11592TIP3   OH256190   0.405   3.394  11.926  0.4143 -0.5395 -0.0852
11592TIP3    H156191   0.438   3.342  11.853  1.2328  0.0228 -0.1334
11592TIP3    H256192   0.476   3.456  11.945 -0.5430  0.6010 -0.0810
11593TIP3   OH256193   4.415   6.625   2.280 -0.2028 -0.6641 -0.6960
11593TIP3    H156194   4.510   6.623   2.278 -0.1958 -0.1963 -0.7482
11593TIP3    H256195   4.389   6.668   2.199 -0.4965 -1.8183 -1.2447
11594TIP3   OH256196   2.190   0.139   3.287 -0.3606 -0.4395  0.0252
11594TIP3    H156197   2.191   0.044   3.273 -0.5508 -0.3719 -0.4833
11594TIP3    H256198   2.137   0.173   3.214 -2.6297 -0.1722  1.6989
11595TIP3   OH256199   0.581   1.771   4.834 -0.1732  0.8634  0.3668
11595TIP3    H156200   0.661   1.798   4.880  1.1056 -0.5362 -0.9232
11595TIP3    H256201   0.584   1.675   4.836 -0.8092  0.7732 -1.3540
11596TIP3   OH256202   4.629   0.743   3.314 -0.5757  0.0414 -0.2075
11596TIP3    H156203   4.538   0.748   3.343 -1.0256  2.1483 -1.6742
11596TIP3    H256204   4.678   0.714   3.391 -2.3908 -0.4479  0.8116
11597TIP3   OH256205   0.812   6.687  11.831  0.2218 -0.3475  0.1714
11597TIP3    H156206   0.734   6.637  11.806 -0.4020  0.5458  0.2909
11597TIP3    H256207   0.781   6.746  11.900  1.0446 -0.0895  0.3224
11598TIP3   OH256208   4.419   0.792  14.880  0.7503  0.3937  0.5395
11598TIP3    H156209   4.324   0.779  14.874  0.7949  0.7741 -1.2911
11598TIP3    H256210   4.432   0.884  14.856  1.6596  0.0965 -0.1250
11599TIP3   OH256211   4.419   3.095   3.429  0.4990  0.6967  0.4919
11599TIP3    H156212   4.512   3.086   3.406  0.6234  2.8422 -0.0209
11599TIP3    H256213   4.372   3.075   3.348  0.0937 -4.7149  1.6628
11600TIP3   OH256214   2.014   3.936  16.871 -0.2747 -0.0369 -0.1492
11600TIP3    H156215   2.081   3.929  16.938  0.1943  3.5515 -0.0540
11600TIP3    H256216   2.062   3.950  16.789 -0.8498  0.9515 -0.3393
11601TIP3   OH256217   4.472   6.715  16.222  0.1414 -0.0193 -0.3128
11601TIP3    H156218   4.483   6.731  16.128  1.8624 -1.6321 -0.4409
11601TIP3    H256219   4.561   6.706  16.255 -0.4570 -3.1477  0.7532
11602TIP3   OH256220   4.329   1.011   3.709 -0.3151 -0.1087  0.5364
11602TIP3    H156221   4.394   1.046   3.648  0.5611 -1.8441  0.4029
11602TIP3    H256222   4.302   0.927   3.669 -3.1052  0.7847  0.2728
11603TIP3   OH256223   0.597   5.463  11.931 -0.3876  0.3310  0.1135
11603TIP3    H156224   0.692   5.476  11.928 -0.1822 -1.2236 -1.3969
11603TIP3    H256225   0.584   5.370  11.911 -2.2218  0.4796  0.4261
11604TIP3   OH256226   3.653   2.168  14.137 -0.8226 -0.4747  0.3286
11604TIP3    H156227   3.566   2.185  14.102 -0.3065  1.3516 -0.2084
11604TIP3    H256228   3.702   2.249  14.120  1.2271 -1.7202 -0.1158
11605TIP3   OH256229   4.674   5.202  12.615  0.6978 -0.0674  0.3821
11605TIP3    H156230   4.621   5.192  12.694  1.9371  1.5812  1.5092
11605TIP3    H256231   4.751   5.252  12.644  0.6854  1.5577 -2.0623
11606TIP3   OH256232   0.557   3.616  16.263  0.2806 -0.4370 -0.5973
11606TIP3    H156233   0.470   3.592  16.231 -0.1241 -0.7090  0.6604
11606TIP3    H256234   0.603   3.532  16.274  0.5327 -0.3255 -0.7733
11607TIP3   OH256235   1.073   1.673   3.048  0.7261  0.6201  0.1470
11607TIP3    H156236   0.995   1.693   2.998  1.8187 -0.6704 -2.2475
11607TIP3    H256237   1.081   1.744   3.111 -1.8018  1.2809 -0.1867
11608TIP3   OH256238   1.502   6.325  10.387  0.2732 -0.4184  0.2705
11608TIP3    H156239   1.493   6.420  10.398 -1.9191 -0.3359 -1.4250
11608TIP3    H256240   1.444   6.287  10.454 -0.4406 -0.4533 -0.3481
11609TIP3   OH256241   4.789   3.437   5.415 -0.2440  0.7446  0.7044
11609TIP3    H156242   4.829   3.410   5.497 -0.4434  0.2967  0.6579
11609TIP3    H256243   4.734   3.363   5.389 -1.8530  1.6806  1.2580
11610TIP3   OH256244   3.740   0.161  11.232 -0.8014 -0.7132 -0.8368
11610TIP3    H156245   3.730   0.152  11.327 -1.9365  0.2049 -0.8436
11610TIP3    H256246   3.675   0.227  11.208  0.2407 -0.1082 -2.1028
11611TIP3   OH256247   2.483   5.431   1.424  0.7366 -0.4420 -0.1822
11611TIP3    H156248   2.392   5.433   1.396  0.5850  0.5307  0.3161
11611TIP3    H256249   2.512   5.341   1.409  0.1786 -0.3727 -1.8330
11612TIP3   OH256250   1.413   1.004  15.571 -0.1425 -0.2180 -0.5330
11612TIP3    H156251   1.346   0.937  15.576 -1.4252  1.1023  2.3928
11612TIP3    H256252   1.366   1.086  15.587  1.8173  1.0152 -0.7483
11613TIP3   OH256253   4.234   6.080  15.832 -0.2559 -0.1376  0.7440
11613TIP3    H156254   4.206   6.016  15.767  1.0450  0.1317 -0.1109
11613TIP3    H256255   4.312   6.120  15.795 -1.2228  2.2381  1.0619
11614TIP3   OH256256   0.657   0.806  14.712  0.9715 -0.0681  0.7081
11614TIP3    H156257   0.675   0.753  14.789  0.8917  1.2636  1.6585
11614TIP3    H256258   0.575   0.850  14.731  1.3445  0.8823  0.2084
11615TIP3   OH256259   4.383   3.027  16.864  0.1377 -0.3116 -0.4084
11615TIP3    H156260   4.417   3.009  16.776  1.3448 -1.3629  0.2451
11615TIP3    H256261   4.320   3.098  16.851 -0.1192 -0.8150 -2.2006
11616TIP3   OH256262   6.126   0.968  11.267 -0.1616  0.3015 -0.6771
11616TIP3    H156263   6.187   0.962  11.193  0.5376  0.5241 -0.1233
11616TIP3    H256264   6.097   1.059  11.266 -0.0110  0.3501 -0.5618
11617TIP3   OH256265   6.506   1.406  15.368  0.4174  0.2136  0.3269
11617TIP3    H156266   6.601   1.404  15.354  0.2791  0.2808 -0.6759
11617TIP3    H256267   6.478   1.317  15.350  0.1681  0.4211 -0.3382
11618TIP3   OH256268   2.539   4.921   6.045  0.4278  0.4122 -0.2121
11618TIP3    H156269   2.611   4.897   6.104 -1.5717  0.0449  2.2407
11618TIP3    H256270   2.472   4.855   6.060 -0.1144  0.1160 -3.2244
11619TIP3   OH256271   4.631   2.118   5.189  0.8597 -0.2309  0.0198
11619TIP3    H156272   4.590   2.204   5.174  0.5644  0.2990  3.2612
11619TIP3    H256273   4.725   2.137   5.196  0.8868 -0.3168 -0.1039
11620TIP3   OH256274   0.321   2.613  13.298  0.4556 -0.1539  0.1391
11620TIP3    H156275   0.310   2.578  13.209 -0.0049 -0.7340  0.4155
11620TIP3    H256276   0.378   2.550  13.342 -1.5273 -1.3889  1.0770
11621TIP3   OH256277   4.676   1.294   5.024 -0.1815 -0.3856 -0.1679
11621TIP3    H156278   4.602   1.268   5.078  0.7194  1.4188  2.0701
11621TIP3    H256279   4.642   1.364   4.968  0.1237  1.5368  1.9497
11622TIP3   OH256280   5.251   2.398  15.265 -0.0307  0.2478 -0.0082
11622TIP3    H156281   5.202   2.316  15.263 -0.4603  0.4656  0.8685
11622TIP3    H256282   5.217   2.449  15.191  1.6386 -1.1017 -1.8178
11623TIP3   OH256283   1.724   5.824   2.136 -0.4998  0.6690  0.6789
11623TIP3    H156284   1.777   5.747   2.152  0.6593  1.3687  0.3760
11623TIP3    H256285   1.669   5.801   2.060 -1.5687 -0.4897  1.7596
11624TIP3   OH256286   0.936   2.563   3.760  0.1564 -0.4980  0.1648
11624TIP3    H156287   0.862   2.507   3.785  0.0856 -0.5799 -0.2336
11624TIP3    H256288   0.907   2.608   3.681 -0.5156  1.5287  1.4921
11625TIP3   OH256289   3.988   1.748  12.084 -0.0325  0.0345 -0.0124
11625TIP3    H156290   4.081   1.732  12.069 -0.2814 -1.2473 -0.3107
11625TIP3    H256291   3.956   1.669  12.128 -1.0648  0.2721 -0.2906
11626TIP3   OH256292   2.291   1.363  15.941 -0.4767  0.1621 -0.8569
11626TIP3    H156293   2.250   1.318  15.868 -0.2259 -1.4181 -0.0652
11626TIP3    H256294   2.219   1.384  16.000 -0.2772 -2.7405  0.6021
11627TIP3   OH256295   4.394   0.227   4.434  0.6363  0.4303  0.3357
11627TIP3    H156296   4.444   0.294   4.387  0.3463  0.0821 -0.4770
11627TIP3    H256297   4.454   0.152   4.439 -0.1941 -0.4334 -1.7368
11628TIP3   OH256298   2.124   3.132  11.438 -0.3258 -0.1057 -0.2562
11628TIP3    H156299   2.044   3.088  11.466  0.5505 -1.0853  0.7837
11628TIP3    H256300   2.094   3.200  11.377 -1.8578 -1.0546 -0.6103
11629TIP3   OH256301   0.028   2.651   3.732 -0.6601 -0.1645  0.3560
11629TIP3    H156302   0.081   2.647   3.811 -0.1442 -0.9194 -0.0166
11629TIP3    H256303   0.084   2.693   3.667 -0.4010 -1.2185 -0.1200
11630TIP3   OH256304   4.217   1.310   5.520  0.2785 -0.0308  1.2907
11630TIP3    H156305   4.252   1.399   5.513 -1.5941  0.7827  1.4015
11630TIP3    H256306   4.283   1.261   5.569  1.7571  1.0486  0.4593
11631TIP3   OH256307   2.372   1.063  12.706  0.5528  0.1102  0.6590
11631TIP3    H156308   2.292   1.072  12.757  1.4534  2.7291  1.8140
11631TIP3    H256309   2.350   1.002  12.636 -1.5259 -1.5544  2.6168
11632TIP3   OH256310   6.017   2.804  16.723  0.3002  0.3394  0.5824
11632TIP3    H156311   6.028   2.830  16.632 -1.0930  0.7635  0.5127
11632TIP3    H256312   6.090   2.845  16.769  0.6131  0.7142 -0.2277
11633TIP3   OH256313   4.723   4.820   3.045  0.2711  0.3785  0.1031
11633TIP3    H156314   4.691   4.759   3.112 -2.7052 -1.9669 -3.0600
11633TIP3    H256315   4.771   4.765   2.983  0.1790  1.7743 -1.2970
11634TIP3   OH256316   0.259   6.318  13.205 -0.2852  0.4609 -0.7551
11634TIP3    H156317   0.342   6.350  13.169 -1.5579  1.7279 -2.7221
11634TIP3    H256318   0.217   6.395  13.242  1.1810 -0.8374  4.3026
11635TIP3   OH256319   3.762   2.447   1.894 -0.8412 -0.2223 -0.5173
11635TIP3    H156320   3.772   2.541   1.880 -0.7366 -0.1270  0.1882
11635TIP3    H256321   3.668   2.431   1.882 -0.8576 -0.0319 -0.6466
11636TIP3   OH256322   6.090   3.003   2.956 -0.5336 -0.6694 -0.5340
11636TIP3    H156323   6.077   3.063   2.882  0.0007 -0.4806 -0.4820
11636TIP3    H256324   6.171   3.033   2.997 -1.8315  0.5098  1.3544
11637TIP3   OH256325   2.902   6.635   2.466 -0.5959  0.6674 -0.6528
11637TIP3    H156326   2.818   6.682   2.470 -0.4336  0.8996  1.1574
11637TIP3    H256327   2.949   6.666   2.543  1.1133  0.4259 -1.5645
11638TIP3   OH256328   3.784   5.348  10.406  0.4651 -0.3903  0.0171
11638TIP3    H156329   3.726   5.373  10.479  0.9325 -0.0906  0.2925
11638TIP3    H256330   3.724   5.328  10.334 -0.0105 -0.8123  0.5178
11639TIP3   OH256331   5.805   6.237   0.185 -0.0935  0.4740  0.7721
11639TIP3    H156332   5.835   6.146   0.177  1.3272  0.7714  2.2588
11639TIP3    H256333   5.804   6.254   0.279  0.4123  2.2222  0.4876
11640TIP3   OH256334   0.036   4.352   2.262  0.4620  0.5190  0.1088
11640TIP3    H156335   0.092   4.314   2.194  0.5615  0.0685  0.4379
11640TIP3    H256336  -0.025   4.282   2.284  0.4303  0.6648  0.4885
11641TIP3   OH256337   4.288   3.423   1.344 -0.5845  0.7625 -0.4360
11641TIP3    H156338   4.214   3.364   1.329  0.4693 -0.6978 -0.1271
11641TIP3    H256339   4.344   3.412   1.268 -0.0263  0.8212 -0.0430
11642TIP3   OH256340   3.108   4.508   3.971 -0.5010  0.0550  0.0741
11642TIP3    H156341   3.055   4.520   4.050 -0.4158  0.2366  0.1040
11642TIP3    H256342   3.045   4.513   3.899 -0.3478  1.8032  0.0057
11643TIP3   OH256343   4.050   2.757  13.875 -0.2361  0.0516  0.2276
11643TIP3    H156344   3.963   2.757  13.837  0.3009 -0.9242 -1.0410
11643TIP3    H256345   4.052   2.680  13.932 -0.4767  0.5615  0.9394
11644TIP3   OH256346   0.550   2.209   3.850 -0.1792 -0.0489  0.4820
11644TIP3    H156347   0.584   2.120   3.840 -0.3306 -0.0095 -0.4806
11644TIP3    H256348   0.473   2.199   3.907 -1.7135 -0.9303 -1.6386
11645TIP3   OH256349   3.782   6.791   5.404  0.1183 -0.4169 -0.2422
11645TIP3    H156350   3.821   6.789   5.491 -1.2487 -0.6358  0.3800
11645TIP3    H256351   3.692   6.820   5.418  0.2603  0.8535 -1.7325
11646TIP3   OH256352   2.518   3.446   5.110  0.2158  0.3291  0.3651
11646TIP3    H156353   2.602   3.406   5.133 -0.2217 -1.2086 -0.5830
11646TIP3    H256354   2.455   3.406   5.171  0.2890  2.2095  1.7366
11647TIP3   OH256355   1.656   4.299  11.052 -0.2220 -0.5285 -0.0264
11647TIP3    H156356   1.743   4.310  11.090 -0.3748  1.2329 -0.1004
11647TIP3    H256357   1.669   4.309  10.958 -0.6921  1.3480  0.0766
11648TIP3   OH256358   4.549   6.723   4.001 -0.3997  0.2048 -0.2522
11648TIP3    H156359   4.643   6.714   4.017 -0.3931 -1.0950 -0.8450
11648TIP3    H256360   4.510   6.716   4.088  0.1141  2.3187  0.1904
11649TIP3   OH256361   6.389   0.663  15.455 -0.3749  0.1309  0.1778
11649TIP3    H156362   6.407   0.741  15.509 -2.6153  0.2239  0.9028
11649TIP3    H256363   6.432   0.681  15.372  1.5926  0.8317  1.2717
11650TIP3   OH256364   3.644   5.733   2.908 -0.4501  0.1429  0.0960
11650TIP3    H156365   3.685   5.814   2.937  0.0706  1.0018 -2.6859
11650TIP3    H256366   3.673   5.667   2.971  0.6915  1.7530  1.3360
11651TIP3   OH256367   2.983   1.174  16.124  0.0982 -0.1847 -0.0154
11651TIP3    H156368   2.918   1.206  16.186 -0.1698 -0.7978  0.0274
11651TIP3    H256369   2.956   1.084  16.105  0.8908 -0.4223 -0.0533
11652TIP3   OH256370   6.333   1.295  10.541 -0.5769 -0.2138 -0.0048
11652TIP3    H156371   6.371   1.375  10.580 -1.5623  0.1938  0.1388
11652TIP3    H256372   6.241   1.317  10.525 -0.6631 -1.0489 -0.7390
11653TIP3   OH256373   2.720   6.113  12.357  0.2012 -0.2601 -0.3393
11653TIP3    H156374   2.713   6.074  12.270  2.1284 -1.8785  0.1449
11653TIP3    H256375   2.814   6.122  12.372 -0.0260 -0.9939  1.9499
11654TIP3   OH256376   5.334   6.660   5.293 -0.0871  0.1271  0.2567
11654TIP3    H156377   5.266   6.608   5.250  0.7165  1.3933 -2.8304
11654TIP3    H256378   5.308   6.751   5.279  1.4813  0.6259  0.3315
11655TIP3   OH256379   5.379   6.731   4.053 -0.4199  0.7787 -0.3861
11655TIP3    H156380   5.427   6.807   4.020 -0.5380  0.9052 -0.2657
11655TIP3    H256381   5.326   6.765   4.125  0.9085  0.2528  0.8970
11656TIP3   OH256382   0.135   5.260   3.108  0.4209 -0.2410  0.3826
11656TIP3    H156383   0.104   5.290   3.194 -1.4216 -1.3192  0.1612
11656TIP3    H256384   0.136   5.165   3.116  1.1340 -0.3072 -0.5102
11657TIP3   OH256385   3.866   3.860   0.366 -0.2550  0.4566  0.4885
11657TIP3    H156386   3.770   3.855   0.364 -0.4321  1.8497  2.5381
11657TIP3    H256387   3.885   3.941   0.413  1.9341 -0.2633  0.9519
11658TIP3   OH256388   5.317   5.839  16.436 -0.1038 -0.5554  0.2048
11658TIP3    H156389   5.236   5.889  16.447  0.1608 -0.1325  0.2563
11658TIP3    H256390   5.370   5.892  16.376  0.1219 -0.8420  0.1515
11659TIP3   OH256391   2.032   4.099   5.450  0.3178 -0.3084 -0.3103
11659TIP3    H156392   2.021   4.116   5.543 -0.5316 -1.0323 -0.2664
11659TIP3    H256393   2.090   4.022   5.446  0.5886 -0.1010 -0.3875
11660TIP3   OH256394   1.847   0.665  11.551  0.4022 -0.2962  0.2050
11660TIP3    H156395   1.933   0.625  11.548  0.7126  0.4061 -1.2609
11660TIP3    H256396   1.794   0.605  11.603  1.2586 -1.7371 -0.5363
11661TIP3   OH256397   2.291   2.610   0.575 -0.0075  0.2820  0.4578
11661TIP3    H156398   2.288   2.515   0.580 -1.3581  0.2676 -0.1394
11661TIP3    H256399   2.367   2.629   0.520  1.0367 -0.3707  1.6204
11662TIP3   OH256400   3.503   0.443   4.324  0.6008  0.4659  0.0823
11662TIP3    H156401   3.458   0.404   4.400  1.2636 -0.6350 -0.0660
11662TIP3    H256402   3.593   0.411   4.331  0.1891 -1.5084 -2.3497
11663TIP3   OH256403   4.717   4.242   3.648 -0.0786 -0.5230 -0.4812
11663TIP3    H156404   4.781   4.186   3.692  0.1002  1.3593  1.9482
11663TIP3    H256405   4.767   4.284   3.578  1.4321  0.7351  1.2173
11664TIP3   OH256406   1.137   3.671  11.955  0.2725  0.5706  0.1226
11664TIP3    H156407   1.065   3.653  11.895 -0.4772 -0.0736  1.1820
11664TIP3    H256408   1.206   3.707  11.900 -0.2932 -0.2412 -1.1571
11665TIP3   OH256409   6.112   2.407  14.886  0.0192 -0.2802 -0.3302
11665TIP3    H156410   6.086   2.452  14.967  0.5956 -0.0292 -0.2824
11665TIP3    H256411   6.095   2.314  14.904 -0.2945 -0.1806 -0.0944
11666TIP3   OH256412   3.180   0.628   5.140 -1.1127  0.0670 -0.0445
11666TIP3    H156413   3.275   0.631   5.136 -0.8993 -1.3015  2.1218
11666TIP3    H256414   3.161   0.591   5.227 -3.5322 -2.5381 -1.5205
11667TIP3   OH256415   5.849   4.890  13.163  0.5211 -0.1274 -0.1091
11667TIP3    H156416   5.862   4.810  13.214  0.0515 -1.0888 -1.4284
11667TIP3    H256417   5.917   4.887  13.096  0.6485  0.7117 -0.0309
11668TIP3   OH256418   4.476   3.246   1.773  0.4959  0.0945  0.8640
11668TIP3    H156419   4.489   3.151   1.781 -0.6668 -0.0772  1.0079
11668TIP3    H256420   4.426   3.269   1.852  1.0818  0.8915  1.0060
11669TIP3   OH256421   5.589   3.754  16.746  0.2128 -0.2476 -0.2276
11669TIP3    H156422   5.603   3.824  16.810  0.9037  0.6956 -1.3495
11669TIP3    H256423   5.494   3.750  16.735  0.1488  0.3414  0.0611
11670TIP3   OH256424   5.243   0.114   2.446 -0.3203  0.8764  0.1624
11670TIP3    H156425   5.234   0.144   2.536  0.0870  0.5024  0.3368
11670TIP3    H256426   5.155   0.089   2.419 -0.9702  3.6357 -0.5189
11671TIP3   OH256427   1.214   2.475   5.292  0.2158  0.5267  0.0556
11671TIP3    H156428   1.290   2.482   5.234 -0.2148  0.1702 -0.5646
11671TIP3    H256429   1.235   2.400   5.349  1.5999  2.1693  1.8532
11672TIP3   OH256430   1.563   3.581   2.196  0.1509  0.0994  0.7784
11672TIP3    H156431   1.558   3.486   2.189 -0.1243  0.0913  1.0677
11672TIP3    H256432   1.595   3.610   2.110  0.3738 -0.2615  0.7369
11673TIP3   OH256433   1.077   2.234  12.168 -0.1532 -0.8979 -0.3775
11673TIP3    H156434   1.170   2.250  12.149 -0.3527  1.0605  0.0904
11673TIP3    H256435   1.076   2.208  12.260 -0.2107  1.1235  0.2345
11674TIP3   OH256436   2.538   6.019  14.520  0.1318  0.0427  0.5946
11674TIP3    H156437   2.580   6.025  14.606 -0.8864 -0.8222  1.1774
11674TIP3    H256438   2.472   6.087  14.522  2.0604  2.0753 -0.7016
11675TIP3   OH256439   1.428   6.489   5.248 -0.5510  0.1158  0.1589
11675TIP3    H156440   1.358   6.518   5.190 -1.7185 -0.9138  0.9950
11675TIP3    H256441   1.390   6.493   5.336  0.3123 -0.7857  0.5987
11676TIP3   OH256442   0.322   6.052  12.969  0.2168  0.6132 -0.4938
11676TIP3    H156443   0.257   6.072  13.036 -1.6069  0.2735 -2.0800
11676TIP3    H256444   0.327   6.132  12.915  1.0862  0.6141 -0.4314
11677TIP3   OH256445   4.650   4.692   4.740  0.5079  0.2923  0.9836
11677TIP3    H156446   4.727   4.667   4.791  0.3240  1.0841  1.6775
11677TIP3    H256447   4.681   4.764   4.685  0.8991 -1.0440 -0.6052
11678TIP3   OH256448   5.091   6.370  11.743 -0.2714  0.3400 -0.3367
11678TIP3    H156449   5.034   6.418  11.803 -1.2761  0.1609 -1.1214
11678TIP3    H256450   5.032   6.314  11.693  0.8724 -1.8675  0.6475
11679TIP3   OH256451   4.702   5.043   6.058 -0.4717 -0.3430 -0.1923
11679TIP3    H156452   4.750   4.968   6.093 -0.2264  1.1440  2.9748
11679TIP3    H256453   4.612   5.030   6.088 -0.6095  0.2098 -0.3593
11680TIP3   OH256454   3.193   1.237   5.094 -0.1614 -0.0155 -0.0610
11680TIP3    H156455   3.243   1.183   5.155  2.1684  1.8373 -0.1860
11680TIP3    H256456   3.180   1.319   5.141 -2.2354 -0.0789 -0.4595
11681TIP3   OH256457   1.385   6.469   0.284 -0.3127  0.1400 -0.5902
11681TIP3    H156458   1.338   6.456   0.202  0.1199  1.3511 -1.0425
11681TIP3    H256459   1.316   6.490   0.348 -0.5012  0.6979 -0.9769
11682TIP3   OH256460   4.117   0.495  12.291  0.0655  0.4834  0.2217
11682TIP3    H156461   4.147   0.498  12.200 -0.0766 -0.6640  0.1266
11682TIP3    H256462   4.143   0.409  12.323  0.3710  0.9852  1.3731
11683TIP3   OH256463   4.403   3.048  13.652 -0.4817 -0.5043  0.1020
11683TIP3    H156464   4.334   3.098  13.610 -0.3228  0.3921  0.8760
11683TIP3    H256465   4.360   2.999  13.721 -0.2973  0.3960  0.8736
11684TIP3   OH256466   6.360   6.774   3.057 -0.0339 -0.0199 -0.4310
11684TIP3    H156467   6.350   6.708   2.988  0.5535 -1.1152  0.4826
11684TIP3    H256468   6.434   6.742   3.108 -1.5263 -0.1945  1.7391
11685TIP3   OH256469   4.600   2.640   2.483 -0.2648 -0.3668  0.1879
11685TIP3    H156470   4.682   2.689   2.483  0.6376 -1.6115 -2.8083
11685TIP3    H256471   4.534   2.703   2.455  0.4831 -0.2399 -1.4336
11686TIP3   OH256472   2.769   1.220   2.775 -0.0071  0.1500  0.0963
11686TIP3    H156473   2.801   1.211   2.685 -1.3895  0.8002 -0.5008
11686TIP3    H256474   2.846   1.244   2.826  0.3714  2.2759 -1.3675
11687TIP3   OH256475   0.940   2.162  16.077  0.0410  0.0095 -0.2666
11687TIP3    H156476   0.852   2.164  16.038 -0.0676 -1.1172 -0.1164
11687TIP3    H256477   0.968   2.071  16.067  0.2474 -0.1896  1.7307
11688TIP3   OH256478   6.734   0.104   2.494  0.1236 -0.1358 -0.0241
11688TIP3    H156479   6.753   0.157   2.572 -1.0749 -0.4946  0.5427
11688TIP3    H256480   6.645   0.130   2.469 -0.8465 -2.4089  0.7642
11689TIP3   OH256481   0.358   0.012   4.962 -0.2306  0.1871 -0.2722
11689TIP3    H156482   0.418  -0.016   4.893  0.3116  0.6911 -0.0138
11689TIP3    H256483   0.279   0.041   4.915  1.0049  2.8696 -0.9208
11690TIP3   OH256484   4.759   3.946   4.562 -0.1054  0.3362 -0.1142
11690TIP3    H156485   4.732   3.856   4.579 -0.2624  0.1595 -1.2421
11690TIP3    H256486   4.846   3.939   4.523 -0.3103  0.6369 -0.6373
11691TIP3   OH256487   4.255   0.054  13.959 -0.0540 -0.3844 -0.6301
11691TIP3    H156488   4.234  -0.030  13.919 -1.8686 -0.6311  0.7361
11691TIP3    H256489   4.236   0.043  14.052  0.2229  1.3577 -0.3168
11692TIP3   OH256490   6.415   2.851  15.888 -0.4698  0.2073  0.1786
11692TIP3    H156491   6.499   2.893  15.869 -1.3103  2.0421  0.2603
11692TIP3    H256492   6.411   2.848  15.983  0.3810 -1.8405  0.1938
11693TIP3   OH256493   5.468   4.969  15.043 -0.2293  0.5465 -0.0425
11693TIP3    H156494   5.546   5.012  15.007 -0.1856  2.5996  2.2469
11693TIP3    H256495   5.404   5.039  15.053 -1.9157 -0.8439 -0.5437
11694TIP3   OH256496   3.981   5.079  10.263 -0.5583 -0.1351  0.0490
11694TIP3    H156497   4.032   5.010  10.306 -2.9768 -1.4034  1.0469
11694TIP3    H256498   4.032   5.159  10.278  3.0837 -1.7363 -2.3863
11695TIP3   OH256499   1.650   6.571  16.389 -0.0671  0.3029 -0.9120
11695TIP3    H156500   1.672   6.549  16.480  0.7654  1.2042 -0.8808
11695TIP3    H256501   1.612   6.491  16.353 -2.3015  0.4987  0.8104
11696TIP3   OH256502   2.273   2.945   3.396  0.1656 -0.3018  0.2167
11696TIP3    H156503   2.205   2.997   3.439  0.2213 -0.8886  1.0304
11696TIP3    H256504   2.275   2.862   3.445  0.7503 -0.6916 -0.4474
11697TIP3   OH256505   0.542   0.846   1.591 -0.7490  0.5476  0.7681
11697TIP3    H156506   0.596   0.843   1.670 -0.8260 -2.6220  0.8126
11697TIP3    H256507   0.480   0.774   1.601 -3.0944  2.1938 -0.6741
11698TIP3   OH256508   4.950   1.387   4.618  0.5640 -0.2495 -0.5596
11698TIP3    H156509   4.888   1.446   4.574  0.2273 -0.9225 -0.9983
11698TIP3    H256510   4.993   1.443   4.683 -0.7396  0.1600  0.0002
11699TIP3   OH256511   0.042   2.747  16.197  0.2213  0.1744 -0.3153
11699TIP3    H156512  -0.002   2.663  16.187  1.2459 -0.3212 -0.8089
11699TIP3    H256513  -0.017   2.810  16.155 -0.2678 -0.3869 -0.4797
11700TIP3   OH256514   0.312   5.906  12.543  0.2462  0.6533  0.2253
11700TIP3    H156515   0.217   5.912  12.554 -0.0504 -2.1148 -0.0156
11700TIP3    H256516   0.324   5.882  12.451  1.2305  1.3525  0.1524
11701TIP3   OH256517   2.683   4.268   0.102 -0.4898 -0.2796  0.6132
11701TIP3    H156518   2.769   4.292   0.135 -0.7587  0.1812  0.9928
11701TIP3    H256519   2.648   4.207   0.167 -0.4641 -0.4422  0.4757
11702TIP3   OH256520   1.868   1.228   3.927 -0.0055  0.3916 -0.2958
11702TIP3    H156521   1.915   1.287   3.868 -0.7681  1.5615  0.2180
11702TIP3    H256522   1.810   1.178   3.870 -0.4071  1.1859 -0.5965
11703TIP3   OH256523   5.284   2.881  14.706 -0.2684 -0.0854  0.3379
11703TIP3    H156524   5.363   2.854  14.753  0.3852  1.1264 -0.0110
11703TIP3    H256525   5.216   2.883  14.774  0.5151  1.0106  1.1301
11704TIP3   OH256526   0.096   6.023  14.274 -0.2467  0.0409 -0.2286
11704TIP3    H156527   0.128   5.934  14.290  1.5566  0.5781 -0.6088
11704TIP3    H256528   0.082   6.060  14.361  2.2135  0.4315  0.0963
11705TIP3   OH256529   2.041   6.629   5.076 -0.0841  0.2761 -0.2892
11705TIP3    H156530   2.036   6.666   4.987 -0.1551  1.7771  0.3022
11705TIP3    H256531   1.952   6.599   5.095 -0.0857  0.0182 -0.6921
11706TIP3   OH256532   2.985   6.456   2.261  0.3322 -0.1788  0.9569
11706TIP3    H156533   2.904   6.424   2.221  1.3178 -1.0655 -0.4431
11706TIP3    H256534   2.957   6.503   2.340 -1.6680  1.1980 -0.4945
11707TIP3   OH256535   4.331   3.350   0.290  0.0549  0.3148  0.1616
11707TIP3    H156536   4.352   3.257   0.290 -0.6097  0.1496  1.0712
11707TIP3    H256537   4.413   3.394   0.312  0.2776 -0.0849  0.1250
11708TIP3   OH256538   3.503   0.041  14.964 -0.2993 -0.4364  0.1933
11708TIP3    H156539   3.575   0.066  14.907  1.1717  0.7085  2.3928
11708TIP3    H256540   3.519  -0.052  14.984  1.7472  0.2627  2.1450
11709TIP3   OH256541   0.224   1.986   0.152  0.4097  0.0763 -0.4111
11709TIP3    H156542   0.250   2.052   0.216  0.5207  0.1640 -0.5460
11709TIP3    H256543   0.283   1.912   0.168 -0.5158 -0.4806  0.5646
11710TIP3   OH256544   5.732   4.302  12.047 -0.3405  0.8904  0.0595
11710TIP3    H156545   5.639   4.285  12.029 -0.3877  0.6804  0.4958
11710TIP3    H256546   5.732   4.370  12.114 -0.1765  0.7537  0.1974
11711TIP3   OH256547   1.289   5.745   3.928 -0.3723 -0.0086 -0.4335
11711TIP3    H156548   1.315   5.831   3.962 -0.1312 -0.1342 -0.2964
11711TIP3    H256549   1.257   5.698   4.004 -2.0553  0.5220 -0.7835
11712TIP3   OH256550   4.746   2.379  11.302  0.1477 -0.2218  0.1616
11712TIP3    H156551   4.806   2.415  11.237  0.1524 -0.1073  0.2294
11712TIP3    H256552   4.686   2.451  11.322  1.2827  0.3540  1.6554
11713TIP3   OH256553   5.636   3.615  12.342  0.4437  0.5428  0.0842
11713TIP3    H156554   5.724   3.579  12.337 -0.0775 -1.2475  2.4047
11713TIP3    H256555   5.610   3.604  12.433 -1.6619  2.3524 -0.2117
11714TIP3   OH256556   1.522   0.053  16.018 -0.5124 -0.0148 -0.0987
11714TIP3    H156557   1.586   0.072  15.950  0.0437  0.8202  0.6274
11714TIP3    H256558   1.442   0.098  15.989  0.2721  2.0084  0.7044
11715TIP3   OH256559   6.791   5.888  13.003  0.0772 -0.1418 -0.3889
11715TIP3    H156560   6.795   5.978  13.034 -2.3916  0.1154 -0.5731
11715TIP3    H256561   6.878   5.870  12.969  1.5375  1.1458  2.3001
11716TIP3   OH256562   1.177   1.717   0.902  0.1421  0.1911  0.4815
11716TIP3    H156563   1.209   1.654   0.837 -0.1741 -0.6953  1.1579
11716TIP3    H256564   1.093   1.681   0.932  0.2525  0.6010  1.3299
11717TIP3   OH256565   2.035   4.595   5.101  0.1118 -0.0856 -0.2551
11717TIP3    H156566   2.079   4.680   5.092 -0.5141  0.2796  0.1230
11717TIP3    H256567   2.097   4.542   5.152  0.7496 -0.0437 -0.9627
11718TIP3   OH256568   5.742   1.718  14.402 -0.0575  0.2501  0.3263
11718TIP3    H156569   5.825   1.683  14.369  0.7191  1.0133  1.3809
11718TIP3    H256570   5.699   1.754  14.325  0.8646  0.3581 -0.1559
11719TIP3   OH256571   4.898   2.897  14.250 -0.2817  0.0896 -0.2223
11719TIP3    H156572   4.827   2.858  14.300 -0.0979  1.1612  0.9182
11719TIP3    H256573   4.855   2.939  14.176 -0.5644 -1.4286 -0.9608
11720TIP3   OH256574   1.137   1.121   1.995  0.3129 -0.5660  0.0530
11720TIP3    H156575   1.078   1.080   1.932 -0.0375 -0.4427  0.3010
11720TIP3    H256576   1.106   1.091   2.080  0.8144 -0.7663  0.1693
11721TIP3   OH256577   5.057   0.488   6.491 -0.0398  0.7730  0.0370
11721TIP3    H156578   4.992   0.450   6.432 -0.1305  0.4109  0.3679
11721TIP3    H256579   5.079   0.418   6.552 -2.7299  2.1023  2.8248
11722TIP3   OH256580   6.655   0.075   0.590 -0.4421 -0.3339  0.2652
11722TIP3    H156581   6.701   0.072   0.674 -1.0245 -0.7498  0.5801
11722TIP3    H256582   6.592   0.146   0.600 -1.8359 -1.5900  0.9125
11723TIP3   OH256583   4.278   3.859   5.769 -0.7420  0.0401  0.2450
11723TIP3    H156584   4.351   3.919   5.781 -0.4245 -0.1035 -0.8432
11723TIP3    H256585   4.200   3.916   5.770 -0.4678  0.4495 -0.4718
11724TIP3   OH256586   4.296   1.898  15.312 -0.7285  0.3022 -0.0400
11724TIP3    H156587   4.283   1.950  15.233 -1.8479  0.0142 -0.0664
11724TIP3    H256588   4.251   1.947  15.381 -0.4328  0.1635  0.2526
11725TIP3   OH256589   2.628   1.883  16.517  0.3847 -0.0317  0.2804
11725TIP3    H156590   2.642   1.792  16.543  2.0942 -0.0784 -0.6304
11725TIP3    H256591   2.705   1.929  16.550  0.9492  0.5252 -1.6654
11726TIP3   OH256592   2.407   2.509   1.298 -0.0599  0.6026  0.1680
11726TIP3    H156593   2.391   2.602   1.315  0.9387  0.8965 -0.4210
11726TIP3    H256594   2.360   2.491   1.217 -0.8412  0.4030  0.6532
11727TIP3   OH256595   4.435   3.549   2.170 -0.4497  0.0210 -0.3782
11727TIP3    H156596   4.416   3.475   2.113  0.9455 -1.2942  0.7908
11727TIP3    H256597   4.527   3.540   2.192 -0.9997  0.2423  2.3627
11728TIP3   OH256598   1.208   5.423  11.445 -0.0400  0.8433 -0.0939
11728TIP3    H156599   1.149   5.453  11.514  0.9528  0.7797  0.8247
11728TIP3    H256600   1.155   5.367  11.390 -0.6772  0.2376  1.1004
11729TIP3   OH256601   2.885   0.766  11.125 -0.8032 -0.0262  0.5127
11729TIP3    H156602   2.796   0.801  11.121  0.0732  2.5600  1.2275
11729TIP3    H256603   2.910   0.752  11.034 -1.6921 -0.1279  0.2724
11730TIP3   OH256604   6.474   6.079   1.133  0.0013  0.1712  0.4555
11730TIP3    H156605   6.446   5.988   1.144 -0.9543  0.4775  0.5776
11730TIP3    H256606   6.394   6.130   1.136  0.3614  0.8944 -1.1159
11731TIP3   OH256607   3.958   3.105  11.864  0.2766 -0.3616 -0.2629
11731TIP3    H156608   3.880   3.123  11.916  0.7752  0.9281  0.0782
11731TIP3    H256609   3.925   3.064  11.784 -0.9781  1.7654 -0.9415
11732TIP3   OH256610   1.072   6.186   2.772  0.4368 -0.1121  0.3149
11732TIP3    H156611   1.083   6.214   2.863 -0.5105 -1.5140  0.9094
11732TIP3    H256612   1.132   6.241   2.722  0.9612  0.7082  1.7802
11733TIP3   OH256613   1.067   4.448  15.293 -0.0621 -0.8800  0.3249
11733TIP3    H156614   0.974   4.470  15.290 -0.4427 -2.2899  1.0744
11733TIP3    H256615   1.090   4.427  15.203 -0.0440  1.0082 -0.1550
11734TIP3   OH256616   5.790   3.846  12.648 -0.3867  0.1875 -0.0091
11734TIP3    H156617   5.854   3.865  12.579 -0.5807 -0.3372 -0.3368
11734TIP3    H256618   5.774   3.752  12.641 -1.4576  0.3660 -0.1680
11735TIP3   OH256619   3.334   3.058   4.565  0.1521 -0.1156 -0.6055
11735TIP3    H156620   3.256   3.101   4.531 -0.1753 -0.5255 -0.3950
11735TIP3    H256621   3.364   3.115   4.636 -0.0765 -0.0534 -0.5571
11736TIP3   OH256622   5.049   3.960   4.798  0.4513 -0.0631 -0.1033
11736TIP3    H156623   5.075   4.028   4.859 -0.8436 -0.9459  1.5191
11736TIP3    H256624   5.112   3.965   4.727  0.2062  3.0388 -0.2259
11737TIP3   OH256625   4.139   5.243  11.246 -0.2022  0.0932  0.0568
11737TIP3    H156626   4.106   5.314  11.191 -2.2635 -1.0754 -0.3055
11737TIP3    H256627   4.197   5.193  11.189  0.7608  1.0739  0.1330
11738TIP3   OH256628   1.180   2.082   0.079  0.1793  0.9119  0.3583
11738TIP3    H156629   1.205   2.009   0.022 -0.0964  1.0116  0.1124
11738TIP3    H256630   1.112   2.046   0.136 -1.1239  1.4155 -0.8350
11739TIP3   OH256631   1.186   6.721   6.239 -0.0332  0.0364  0.5873
11739TIP3    H156632   1.127   6.670   6.296  0.8569  0.1719  1.6628
11739TIP3    H256633   1.273   6.701   6.272  0.8644 -2.5020 -2.8019
11740TIP3   OH256634   3.673   2.939  12.020 -0.3210 -0.4323 -0.7908
11740TIP3    H156635   3.606   3.006  12.037 -3.5356 -3.6890  0.9067
11740TIP3    H256636   3.639   2.890  11.945  0.8788 -1.4288 -0.7148
11741TIP3   OH256637   1.585   2.887  15.811 -0.1444  0.5633 -0.1017
11741TIP3    H156638   1.582   2.920  15.901  0.4124  0.1045  0.0871
11741TIP3    H256639   1.600   2.964  15.757 -0.9162  0.9049  0.1529
11742TIP3   OH256640   1.496   3.302  15.682  0.1155  0.8528 -0.0874
11742TIP3    H156641   1.590   3.310  15.663  0.2101  1.3436  0.5617
11742TIP3    H256642   1.491   3.282  15.775 -0.3564 -1.5501 -0.5654
11743TIP3   OH256643   3.052   4.624  15.758  0.8326  0.1966 -0.1516
11743TIP3    H156644   3.098   4.631  15.674  1.9973  0.5927  0.4927
11743TIP3    H256645   3.104   4.677  15.818  0.4018 -0.6261  0.9842
11744TIP3   OH256646   2.069   5.298   1.699 -0.2655 -0.4699 -0.0116
11744TIP3    H156647   2.148   5.281   1.749  0.6501 -0.2018 -1.3328
11744TIP3    H256648   2.013   5.222   1.716 -0.1761 -0.2044  1.7182
11745TIP3   OH256649   3.266   0.469  12.889 -0.4772 -0.1720 -0.2272
11745TIP3    H156650   3.272   0.448  12.796  0.6550 -1.5854  0.1168
11745TIP3    H256651   3.296   0.560  12.895  0.0919 -0.2779 -1.1786
11746TIP3   OH256652   5.480   4.237  16.114 -0.2873  0.0178  0.3615
11746TIP3    H156653   5.513   4.168  16.172  0.1697  0.3340  0.4856
11746TIP3    H256654   5.396   4.204  16.082 -1.8949  0.8887  3.2547
11747TIP3   OH256655   2.076   2.097  12.821 -0.1366 -0.1649 -0.0809
11747TIP3    H156656   2.143   2.103  12.754  0.3702  2.3259  0.5376
11747TIP3    H256657   2.120   2.058  12.897  0.2374  0.1605 -0.1297
11748TIP3   OH256658   3.663   2.260  12.089 -0.0729 -0.9672  0.8350
11748TIP3    H156659   3.723   2.285  12.159 -0.3027  1.1337  0.3268
11748TIP3    H256660   3.578   2.295  12.115  0.0633  0.9209 -0.9770
11749TIP3   OH256661   3.976   0.394  16.359 -0.2728 -0.2152  0.1418
11749TIP3    H156662   4.013   0.438  16.436  0.7434 -2.1476  0.8207
11749TIP3    H256663   3.889   0.366  16.388 -0.6495  0.7057 -0.0677
11750TIP3   OH256664   5.009   3.883  15.584 -0.5129  0.0210 -0.1576
11750TIP3    H156665   5.063   3.816  15.544  1.1905 -0.2129  2.3815
11750TIP3    H256666   5.039   3.965  15.543  1.0804 -0.2214  0.4620
11751TIP3   OH256667   1.443   2.384  10.751  0.1387  0.1594  0.0611
11751TIP3    H156668   1.423   2.363  10.660 -0.8901 -0.0856  0.3299
11751TIP3    H256669   1.539   2.388  10.754  0.1840  0.5047 -1.0994
11752TIP3   OH256670   0.506   2.376   1.824  0.2506  0.5212 -0.0787
11752TIP3    H156671   0.561   2.298   1.830  0.4053  0.7173  3.0367
11752TIP3    H256672   0.420   2.347   1.855 -0.9161  0.7272 -2.8154
11753TIP3   OH256673   0.896   1.249   1.366  0.1631 -0.3686  0.3908
11753TIP3    H156674   0.852   1.167   1.390  0.7451 -1.0329 -0.7284
11753TIP3    H256675   0.932   1.281   1.449  0.6478 -1.6965  0.7210
11754TIP3   OH256676   3.199   0.110  14.106 -0.0752  0.7211  0.2687
11754TIP3    H156677   3.203   0.021  14.073 -1.6745 -0.0286  1.8912
11754TIP3    H256678   3.142   0.156  14.044 -1.7338 -0.2307  1.0239
11755TIP3   OH256679   2.790   0.238   1.526 -0.5620  0.1501  0.0557
11755TIP3    H156680   2.884   0.218   1.521 -0.7318 -0.7451  0.2893
11755TIP3    H256681   2.786   0.333   1.527  0.2597  0.2413 -1.6916
11756TIP3   OH256682   6.194   3.345   0.432  0.1655 -0.1216 -0.2102
11756TIP3    H156683   6.149   3.351   0.348 -0.7964 -0.1703  0.2949
11756TIP3    H256684   6.196   3.436   0.464  1.5118  0.0790 -0.7667
11757TIP3   OH256685   1.208   0.359  13.695  0.1632  0.2747  0.5357
11757TIP3    H156686   1.266   0.312  13.634 -0.2920 -0.9653  1.0325
11757TIP3    H256687   1.152   0.291  13.732 -1.2002  1.3644  0.5366
11758TIP3   OH256688   6.166   0.051   4.764  0.2398  0.3420  0.2884
11758TIP3    H156689   6.206   0.131   4.731 -0.6219  0.7513  0.2187
11758TIP3    H256690   6.074   0.073   4.776 -0.5093 -1.3022 -1.9143
11759TIP3   OH256691   1.148   4.477  13.026 -0.5405 -0.0516 -0.4932
11759TIP3    H156692   1.054   4.463  13.019 -0.6789  0.3760  0.3740
11759TIP3    H256693   1.157   4.564  13.064  0.1799 -0.4798  0.3693
11760TIP3   OH256694   3.675   2.681  13.088  0.1922 -0.3464  0.0351
11760TIP3    H156695   3.764   2.697  13.055  0.9769  1.6238  2.6957
11760TIP3    H256696   3.640   2.612  13.032  2.4977  0.4739 -2.6486
11761TIP3   OH256697   0.898   1.158  14.820  0.7183 -0.3497  0.3190
11761TIP3    H156698   0.991   1.167  14.843  0.7306  0.5775 -0.0518
11761TIP3    H256699   0.895   1.082  14.762  0.8860 -1.8717  2.2074
11762TIP3   OH256700   6.250   3.702   0.055  0.3569  0.0020 -0.3450
11762TIP3    H156701   6.333   3.671   0.093  0.9128  1.4554 -0.3094
11762TIP3    H256702   6.188   3.631   0.071  1.8421 -1.5904 -1.3198
11763TIP3   OH256703   5.556   2.461  15.544 -0.7281 -0.5502 -0.5889
11763TIP3    H156704   5.495   2.486  15.474 -0.8386 -0.3195 -0.4122
11763TIP3    H256705   5.545   2.529  15.611 -0.2052 -0.4589 -0.5986
11764TIP3   OH256706   3.715   2.448  12.534 -0.0762 -0.3529  0.5266
11764TIP3    H156707   3.699   2.509  12.461  2.7875  2.5689  2.0704
11764TIP3    H256708   3.628   2.434  12.572 -1.3663 -0.3493 -2.1407
11765TIP3   OH256709   0.713   6.105  11.332 -0.0489  0.0406  0.0562
11765TIP3    H156710   0.792   6.071  11.292 -1.7606 -3.1769 -0.8860
11765TIP3    H256711   0.695   6.187  11.286  1.2638 -0.5520 -1.5658
11766TIP3   OH256712   2.283   4.622   1.840  0.7289 -0.2271  0.0492
11766TIP3    H156713   2.285   4.607   1.935 -0.3632  0.7777  0.2666
11766TIP3    H256714   2.342   4.556   1.803  0.5431 -1.1597  1.3559
11767TIP3   OH256715   0.765   6.286   5.891  0.4607  0.5696 -0.5882
11767TIP3    H156716   0.744   6.277   5.798  0.5018 -0.5932 -0.5003
11767TIP3    H256717   0.708   6.223   5.935  2.7446 -1.3617 -0.1686
11768TIP3   OH256718   5.784   3.482  15.125 -0.4769  0.2204 -0.6420
11768TIP3    H156719   5.856   3.479  15.188 -0.0670  2.6702 -0.8672
11768TIP3    H256720   5.823   3.456  15.042  0.4299  2.2833 -0.9202
11769TIP3   OH256721   4.660   3.216  10.813 -0.4329 -0.2335 -0.6728
11769TIP3    H156722   4.651   3.305  10.779 -1.1912 -0.5471 -1.3123
11769TIP3    H256723   4.587   3.168  10.775 -1.0720 -0.7103  1.0726
11770TIP3   OH256724   3.499   2.288  15.924  0.1238 -0.8654  0.7977
11770TIP3    H156725   3.427   2.298  15.987  0.5249  0.0066  1.1335
11770TIP3    H256726   3.562   2.355  15.949  0.6754 -1.0645 -0.0239
11771TIP3   OH256727   3.527   0.137  12.120  0.0996  0.0889 -0.6164
11771TIP3    H156728   3.593   0.089  12.071  1.0838  1.0026 -0.2338
11771TIP3    H256729   3.484   0.193  12.055  1.3561  1.2500 -0.5002
11772TIP3   OH256730   3.764   4.008   4.000 -0.5044  0.0468 -0.3625
11772TIP3    H156731   3.711   3.995   3.921 -3.1425 -0.5383  1.3660
11772TIP3    H256732   3.737   4.093   4.034  0.6106  0.3058 -0.0894
11773TIP3   OH256733   3.844   0.410  15.647  0.7142 -0.3167  0.3593
11773TIP3    H156734   3.790   0.434  15.571  0.3393 -1.0821  0.3765
11773TIP3    H256735   3.860   0.316  15.637  0.4334 -0.4862  1.3649
11774TIP3   OH256736   4.722   5.900  12.479 -0.5869  0.1158 -0.4190
11774TIP3    H156737   4.764   5.986  12.477 -2.1065  0.8743 -0.4835
11774TIP3    H256738   4.706   5.879  12.387  0.8130 -0.7998 -0.4960
11775TIP3   OH256739   5.148   5.013  12.295 -0.7062  0.3517  0.4016
11775TIP3    H156740   5.086   5.040  12.228 -0.2151  2.6412  0.7669
11775TIP3    H256741   5.094   4.978  12.366 -1.5396  1.5804  0.3994
11776TIP3   OH256742   6.665   5.905   3.077  0.0102 -0.2530  0.5337
11776TIP3    H156743   6.624   5.991   3.084  1.2318  0.3330  0.8054
11776TIP3    H256744   6.677   5.877   3.168 -1.2692 -1.1762  0.4466
11777TIP3   OH256745   3.409   3.399   0.064  0.1093  0.4405 -0.2212
11777TIP3    H156746   3.448   3.429  -0.018  0.9008 -2.8056 -1.1420
11777TIP3    H256747   3.354   3.325   0.040 -3.0261  1.8956  1.7017
11778TIP3   OH256748   5.498   6.011  16.690 -0.6419 -0.2318 -0.2750
11778TIP3    H156749   5.511   6.056  16.606 -0.2911 -0.0761 -0.1375
11778TIP3    H256750   5.565   5.942  16.691  0.6876  1.0154  0.7420
11779TIP3   OH256751   6.253   6.247   1.048  0.2623  0.3448 -0.2690
11779TIP3    H156752   6.238   6.158   1.015  1.2470  0.1145 -0.1245
11779TIP3    H256753   6.245   6.303   0.971 -2.5276  0.4307 -0.0342
11780TIP3   OH256754   5.582   6.391  12.881 -0.1282  0.2006 -0.2889
11780TIP3    H156755   5.564   6.305  12.843  0.5435 -0.3488  0.5668
11780TIP3    H256756   5.637   6.435  12.817  0.0709 -0.2744 -0.4495
11781TIP3   OH256757   0.711   3.865  15.705  0.4752 -0.0186 -0.2304
11781TIP3    H156758   0.669   3.789  15.664 -1.3229  1.0993 -0.5725
11781TIP3    H256759   0.641   3.930  15.713  2.0692  1.8421 -0.4883
11782TIP3   OH256760   0.381   1.758  16.974 -0.2650 -0.6727 -0.2822
11782TIP3    H156761   0.372   1.666  16.949 -1.5855 -0.6089 -0.0697
11782TIP3    H256762   0.472   1.764  17.006 -0.9150 -2.5829  2.3643
11783TIP3   OH256763   1.966   1.601  11.077  0.3367 -0.8360  0.5396
11783TIP3    H156764   1.990   1.693  11.063 -1.2776 -0.0160  2.7139
11783TIP3    H256765   2.032   1.552  11.027  1.3123  1.4648 -0.6060
11784TIP3   OH256766   5.654   1.219  15.314  0.6124  0.0709 -0.2805
11784TIP3    H156767   5.679   1.172  15.235  0.9117 -1.6022  0.7369
11784TIP3    H256768   5.563   1.245  15.300  0.7311 -0.0094 -1.2366
11785TIP3   OH256769   6.682   5.178   3.510 -0.0212 -0.7490  0.8169
11785TIP3    H156770   6.655   5.203   3.599  1.0762  2.4879  0.3936
11785TIP3    H256771   6.603   5.185   3.458 -0.0621  0.5580  1.0195
11786TIP3   OH256772   3.426   3.891   2.260  0.1178  0.0752 -0.2842
11786TIP3    H156773   3.381   3.826   2.314 -0.1040 -0.3357 -0.9526
11786TIP3    H256774   3.514   3.854   2.247  0.0390 -0.0209 -0.5422
11787TIP3   OH256775   2.612   1.658   2.942 -0.2722 -0.4675  0.9324
11787TIP3    H156776   2.518   1.639   2.950 -0.8308  1.1660 -0.9636
11787TIP3    H256777   2.627   1.730   3.003  0.2860 -2.1186  2.8415
11788TIP3   OH256778   4.993   5.615   3.325 -0.1840  0.1318 -0.0866
11788TIP3    H156779   5.007   5.674   3.251 -0.9137  0.1475 -0.2160
11788TIP3    H256780   4.910   5.572   3.307 -0.4004  0.1784  0.7489
11789TIP3   OH256781   0.947   4.189   4.456  0.0298 -0.3421  0.0567
11789TIP3    H156782   1.014   4.194   4.524 -0.1405 -2.5389  0.4798
11789TIP3    H256783   0.885   4.257   4.478  0.2355 -0.6774  1.8377
11790TIP3   OH256784   4.494   5.938  13.510 -0.4172  0.4129 -0.7065
11790TIP3    H156785   4.450   5.854  13.500  0.4627 -0.1294 -0.1957
11790TIP3    H256786   4.561   5.939  13.441  1.2593 -0.4499  0.8155
11791TIP3   OH256787   3.696   1.003   3.513  0.0703 -0.4697 -0.4820
11791TIP3    H156788   3.698   1.018   3.607  0.2776 -0.3972 -0.4991
11791TIP3    H256789   3.637   0.929   3.502  0.7589 -1.0654 -0.2212
11792TIP3   OH256790   0.112   4.324   1.312 -0.4097 -0.3362  0.0735
11792TIP3    H156791   0.200   4.314   1.346 -0.6468  0.6988  1.0479
11792TIP3    H256792   0.088   4.414   1.334 -1.4012 -0.3395 -0.9007
11793TIP3   OH256793   4.773   4.172   5.795 -0.3086  0.7074  0.6647
11793TIP3    H156794   4.832   4.247   5.786  0.8176  0.1091  2.5082
11793TIP3    H256795   4.793   4.135   5.881 -0.5958 -1.8990 -0.2763
11794TIP3   OH256796   2.900   6.625  14.797 -0.4578 -0.6170  0.0166
11794TIP3    H156797   2.989   6.634  14.764  0.3002 -1.0394  1.8127
11794TIP3    H256798   2.862   6.712  14.789  0.2197 -0.3601 -0.4697
11795TIP3   OH256799   4.053   3.427   3.103 -0.6190  0.0487  0.4064
11795TIP3    H156800   4.106   3.351   3.079  0.9266  0.9308  0.8866
11795TIP3    H256801   4.066   3.437   3.197 -3.0310 -0.6903  0.8871
11796TIP3   OH256802   4.027   2.180  16.750  0.1442  0.3083  0.4439
11796TIP3    H156803   3.949   2.228  16.723 -0.0816 -0.8355 -1.0705
11796TIP3    H256804   4.004   2.088  16.738  0.4187 -0.2974  3.6549
11797TIP3   OH256805   4.104   6.143   2.394 -0.2841 -0.0015 -0.4010
11797TIP3    H156806   4.052   6.166   2.317  1.5220  2.5567 -1.0065
11797TIP3    H256807   4.191   6.122   2.359 -0.2788 -2.1067  0.7292
11798TIP3   OH256808   1.110   3.918  16.461  0.2916  0.8577  0.3712
11798TIP3    H156809   1.079   3.981  16.526 -0.0966 -0.9512  2.0499
11798TIP3    H256810   1.202   3.903  16.485  0.3462  0.7029  0.0651
11799TIP3   OH256811   0.033   3.192   0.249 -0.4736  0.5754 -0.2650
11799TIP3    H156812   0.015   3.125   0.314 -0.9014 -0.4851 -1.4337
11799TIP3    H256813   0.092   3.253   0.293  0.2740 -0.7977  0.7030
11800TIP3   OH256814   4.430   4.647   3.759  0.0761 -0.7522 -0.3736
11800TIP3    H156815   4.377   4.569   3.776  0.9594 -0.6390  3.8662
11800TIP3    H256816   4.519   4.614   3.751  0.8691 -0.2845  3.9697
11801TIP3   OH256817   5.909   0.653  11.734 -0.2216 -0.1361 -0.2903
11801TIP3    H156818   5.928   0.644  11.640  1.5174  0.3787 -0.0276
11801TIP3    H256819   5.849   0.727  11.738  1.7003  1.5678 -0.8712
11802TIP3   OH256820   0.788   2.649   5.125 -0.2374  0.5280  0.0582
11802TIP3    H156821   0.821   2.559   5.135 -1.0261  0.3466  1.2396
11802TIP3    H256822   0.866   2.700   5.105  0.4461 -0.2122  0.7424
11803TIP3   OH256823   5.494   6.569   0.234 -0.0364 -0.3876  0.4305
11803TIP3    H156824   5.581   6.608   0.241  0.2294 -0.5834 -1.3100
11803TIP3    H256825   5.508   6.476   0.254 -0.1312 -0.1606  1.6097
11804TIP3   OH256826   5.770   3.985   5.327 -0.2817  0.4357 -0.4001
11804TIP3    H156827   5.712   3.977   5.252 -1.1371 -2.2112  0.4328
11804TIP3    H256828   5.712   4.005   5.401  0.2018  0.4112 -0.0033
11805TIP3   OH256829   3.679   2.162   1.773 -0.3441 -0.1423 -0.1516
11805TIP3    H156830   3.685   2.240   1.718 -0.9563 -1.1473 -1.6895
11805TIP3    H256831   3.586   2.152   1.793 -0.1212  0.3030  1.2618
11806TIP3   OH256832   6.334   0.504   2.884 -0.3420  0.5165 -0.3262
11806TIP3    H156833   6.409   0.463   2.842 -0.3478 -0.3817  0.4889
11806TIP3    H256834   6.370   0.543   2.964 -0.4570  1.5549 -0.7659
11807TIP3   OH256835   1.274   5.871  12.672 -0.6685  0.4854  0.7320
11807TIP3    H156836   1.323   5.790  12.687  0.6400  1.1399  0.1166
11807TIP3    H256837   1.280   5.919  12.755 -3.6309 -1.0902  2.0175
11808TIP3   OH256838   4.302   6.505  16.873 -0.3047  0.0897  0.3143
11808TIP3    H156839   4.342   6.533  16.791 -0.3558 -1.9585 -0.4820
11808TIP3    H256840   4.375   6.470  16.924 -0.5710 -0.5988  0.2381
11809TIP3   OH256841   5.719   4.609  13.064 -0.1464  0.0772  0.3511
11809TIP3    H156842   5.722   4.655  13.148 -2.0231  0.3716  0.2834
11809TIP3    H256843   5.660   4.536  13.078 -1.6072  0.9246 -1.0620
11810TIP3   OH256844   4.111   2.089  15.747 -0.2437 -0.0775  0.3202
11810TIP3    H156845   4.176   2.042  15.798 -0.1702 -0.2707  0.0509
11810TIP3    H256846   4.041   2.024  15.732  0.1781 -0.3176 -0.6532
11811TIP3   OH256847   2.047   0.078  11.940 -0.1132 -0.4392  0.1853
11811TIP3    H156848   2.088  -0.007  11.922 -0.9397 -0.8025 -0.0314
11811TIP3    H256849   1.986   0.091  11.867 -0.5497 -0.0188  0.6167
11812TIP3   OH256850   4.296   2.309   0.893 -0.3526  0.1023 -0.2932
11812TIP3    H156851   4.364   2.275   0.835  0.0409 -1.2020  0.8867
11812TIP3    H256852   4.216   2.263   0.865 -0.7597  1.5253 -1.5817
11813TIP3   OH256853   1.143   5.332   1.741 -0.9834 -0.5999  0.7347
11813TIP3    H156854   1.069   5.356   1.797  0.8081 -0.4649  3.2215
11813TIP3    H256855   1.122   5.244   1.710 -1.0524 -1.7379  3.6693
11814TIP3   OH256856   1.423   4.421  13.006 -0.3574  0.2971 -0.3224
11814TIP3    H156857   1.468   4.470  13.075 -1.0434  2.5918 -1.4211
11814TIP3    H256858   1.331   4.420  13.034 -0.6327  1.2146 -1.1421
11815TIP3   OH256859   2.378   1.823   5.836  0.1180 -0.1775  0.0095
11815TIP3    H156860   2.294   1.847   5.874  0.0679 -0.1428 -0.1215
11815TIP3    H256861   2.355   1.777   5.755  0.2358  0.3248 -0.3138
11816TIP3   OH256862   6.136   6.674  14.461 -0.8796 -0.0603 -0.9158
11816TIP3    H156863   6.086   6.627  14.528 -0.1258 -1.2965 -1.1975
11816TIP3    H256864   6.149   6.761  14.498 -1.4680 -0.3664  0.0438
11817TIP3   OH256865   1.272   6.303   2.221  0.2191 -0.8003  0.2304
11817TIP3    H156866   1.277   6.208   2.210 -1.0325 -0.6334 -3.0521
11817TIP3    H256867   1.191   6.328   2.175  0.3792  1.8295  1.2161
11818TIP3   OH256868   1.469   5.125   3.512 -0.2009 -0.1550  0.5520
11818TIP3    H156869   1.515   5.042   3.502 -0.2793  0.0573 -2.9563
11818TIP3    H256870   1.503   5.180   3.442 -2.7158  1.4953  0.4764
11819TIP3   OH256871   1.947   3.699  11.848  0.0830  0.3736  0.2590
11819TIP3    H156872   1.974   3.635  11.914  0.8846 -0.3591 -0.7548
11819TIP3    H256873   1.856   3.719  11.870  0.0008 -0.6735  0.9343
11820TIP3   OH256874   1.198   6.677  15.931  0.1677  0.2569 -0.8495
11820TIP3    H156875   1.274   6.704  15.878  0.5425 -0.7213 -0.8195
11820TIP3    H256876   1.235   6.655  16.016 -0.4068  1.5873 -0.2288
11821TIP3   OH256877   2.906   0.808   4.584  0.2077 -0.4063 -0.3200
11821TIP3    H156878   2.989   0.839   4.547 -0.1953  0.7188 -0.2965
11821TIP3    H256879   2.840   0.866   4.547 -0.2871  0.3402  1.6667
11822TIP3   OH256880   5.855   0.317   4.590  0.3058  0.7143  0.0139
11822TIP3    H156881   5.872   0.242   4.532  1.3578  0.5025  0.5888
11822TIP3    H256882   5.774   0.356   4.555 -1.2531 -1.6856  0.7234
11823TIP3   OH256883   3.773   0.336  12.165 -0.4057 -0.1387  0.3484
11823TIP3    H156884   3.790   0.429  12.178  0.5193 -0.4830  1.8512
11823TIP3    H256885   3.686   0.332  12.127  0.4757  1.4537 -2.0884
11824TIP3   OH256886   5.331   2.361  11.999 -0.3579 -0.2594  0.3723
11824TIP3    H156887   5.288   2.292  11.947 -1.1569  0.9957 -0.6919
11824TIP3    H256888   5.384   2.409  11.936  2.1043 -1.2890  1.5289
11825TIP3   OH256889   5.241   6.389  12.336  0.4322  0.6409 -0.1450
11825TIP3    H156890   5.198   6.376  12.252  0.6662 -0.8460 -0.0549
11825TIP3    H256891   5.169   6.407  12.397  0.0054 -0.8454 -0.1807
11826TIP3   OH256892   4.213   4.030  15.492  0.6635  0.1733  0.0469
11826TIP3    H156893   4.284   4.047  15.431 -0.1341 -2.5984 -1.8662
11826TIP3    H256894   4.255   3.985  15.566  1.2390  0.9102  0.1721
11827TIP3   OH256895   1.379   3.473  15.506 -0.5215  0.7340  0.1543
11827TIP3    H156896   1.356   3.564  15.525 -1.1592  0.4819  0.6203
11827TIP3    H256897   1.379   3.431  15.592  3.2058  1.0327  0.4602
11828TIP3   OH256898   3.636   4.274  13.793  0.3805 -0.0760  0.1558
11828TIP3    H156899   3.702   4.260  13.861  0.3371 -1.0004  0.0156
11828TIP3    H256900   3.662   4.215  13.722  0.5261  1.0039 -0.7133
11829TIP3   OH256901   3.589   5.580   3.275 -0.0079  0.0815  0.1349
11829TIP3    H156902   3.556   5.507   3.328 -1.2910  0.5905  0.0677
11829TIP3    H256903   3.663   5.543   3.227  0.5974 -0.6486  1.5650
11830TIP3   OH256904   0.842   0.392  14.623  0.1247  0.2897  0.1185
11830TIP3    H156905   0.768   0.442  14.658  0.1183  0.1036  0.3725
11830TIP3    H256906   0.861   0.328  14.690  0.3733  0.1893 -0.0481
11831TIP3   OH256907   0.836   1.414  15.150  0.1356 -0.0255  0.0551
11831TIP3    H156908   0.755   1.435  15.103  0.5998  0.0997 -0.7112
11831TIP3    H256909   0.903   1.466  15.106  0.5094  0.4953  1.1983
11832TIP3   OH256910   3.885   5.935  17.007  0.3669  0.0294  1.0497
11832TIP3    H156911   3.901   5.924  17.100  0.5039  0.0826  1.0333
11832TIP3    H256912   3.890   6.030  16.992  0.5007  0.0094  0.9619
11833TIP3   OH256913   3.973   3.747  12.661 -0.0379  0.1788  0.1519
11833TIP3    H156914   4.029   3.700  12.599  0.0308  0.5465 -0.0693
11833TIP3    H256915   4.028   3.819  12.692  0.1643 -0.3676  1.1401
11834TIP3   OH256916   3.725   2.200  11.101  0.1416 -0.2323  0.0411
11834TIP3    H156917   3.700   2.141  11.030  0.5997 -0.9817  0.4939
11834TIP3    H256918   3.733   2.144  11.178 -0.4344  0.5827  0.7140
11835TIP3   OH256919   3.228   5.677   5.437  0.0191 -0.2755 -0.1341
11835TIP3    H156920   3.277   5.707   5.360 -0.0115  3.1106  0.9887
11835TIP3    H256921   3.139   5.710   5.424 -0.4452 -1.1850  0.5860
11836TIP3   OH256922   0.734   0.997  13.594 -0.2141  0.1455  0.0935
11836TIP3    H156923   0.753   0.982  13.687 -0.2302  0.5979  0.1697
11836TIP3    H256924   0.768   1.084  13.577 -1.4697  0.6360  0.0149
11837TIP3   OH256925   2.272   0.081  11.140 -0.1200  0.0253  0.2241
11837TIP3    H156926   2.222   0.100  11.219 -0.8806  1.3025 -0.5344
11837TIP3    H256927   2.208   0.090  11.069  1.0328  1.0982 -0.7213
11838TIP3   OH256928   3.203   5.804  12.579  0.3566 -0.3192  0.0361
11838TIP3    H156929   3.270   5.751  12.537  0.0046 -0.9124  0.2063
11838TIP3    H256930   3.127   5.799  12.521 -0.0208 -0.8664  0.5648
11839TIP3   OH256931   3.177   4.133   5.928 -0.3136  0.6094 -0.1300
11839TIP3    H156932   3.193   4.066   5.862 -0.4985  0.0060  0.4269
11839TIP3    H256933   3.230   4.208   5.899 -0.5452  0.4270 -1.0574
11840TIP3   OH256934   5.591   3.436   3.038 -0.7766 -0.0107  0.5155
11840TIP3    H156935   5.544   3.519   3.028  0.5428  0.9683  1.8336
11840TIP3    H256936   5.589   3.396   2.952  0.7104  2.6363 -0.8950
11841TIP3   OH256937   6.094   6.310   4.840  0.6846 -0.5237 -0.2289
11841TIP3    H156938   6.153   6.319   4.765  2.2406 -0.7176  0.9373
11841TIP3    H256939   6.054   6.397   4.849  2.8608  0.4477  0.6153
11842TIP3   OH256940   0.254   5.467  14.583  0.2732  0.3856  0.2697
11842TIP3    H156941   0.296   5.436  14.663  1.5133 -0.6388 -0.7319
11842TIP3    H256942   0.326   5.476  14.520 -0.7015  0.9546 -0.8086
11843TIP3   OH256943   1.205   5.580   1.643  0.1334 -0.4067  0.1027
11843TIP3    H156944   1.280   5.566   1.586  0.1338 -2.6906  0.5428
11843TIP3    H256945   1.182   5.492   1.674 -0.7487  0.5700  2.4907
11844TIP3   OH256946   6.543   4.743  12.886 -0.4228 -0.3615  0.4569
11844TIP3    H156947   6.571   4.664  12.933 -1.2169 -1.0183 -0.1348
11844TIP3    H256948   6.535   4.810  12.954 -1.4236 -1.2524  1.2554
11845TIP3   OH256949   3.883   2.510   4.446 -0.1505 -0.3983 -0.6862
11845TIP3    H156950   3.789   2.530   4.449  0.2824  1.9408 -0.8640
11845TIP3    H256951   3.915   2.534   4.533  0.8931  2.6577 -1.7920
11846TIP3   OH256952   4.325   3.036   2.261 -0.1586 -0.1043  0.0396
11846TIP3    H156953   4.244   2.984   2.257  0.5257 -1.1243 -2.4342
11846TIP3    H256954   4.298   3.125   2.241 -0.7509 -0.3526 -0.2910
11847TIP3   OH256955   6.761   1.699   2.850  0.4872  0.5155  0.9249
11847TIP3    H156956   6.705   1.757   2.798  1.6539  0.2855 -0.6637
11847TIP3    H256957   6.720   1.697   2.937 -1.0510  1.5962  0.2638
11848TIP3   OH256958   4.747   3.310   4.030 -0.2735  0.5549  0.0279
11848TIP3    H156959   4.779   3.226   3.997  1.7291  1.6461 -1.0638
11848TIP3    H256960   4.657   3.317   3.998  0.1709 -0.3584 -1.4938
11849TIP3   OH256961   3.486   4.839   5.411  0.1875  0.1665  0.1209
11849TIP3    H156962   3.468   4.880   5.496  1.3281 -1.1620  1.0597
11849TIP3    H256963   3.559   4.779   5.429  0.2914 -0.3183 -1.7596
11850TIP3   OH256964   3.555   2.250   4.632  0.0832 -0.1435 -0.1041
11850TIP3    H156965   3.516   2.253   4.719  1.2745 -0.0795  0.4419
11850TIP3    H256966   3.550   2.158   4.606  1.5632 -0.5280  0.9030
11851TIP3   OH256967   6.617   6.101   2.783  0.2238  0.2827  0.6878
11851TIP3    H156968   6.645   6.106   2.875 -0.0602 -4.3655  1.2460
11851TIP3    H256969   6.526   6.130   2.784  0.6011  1.5573  1.5468
11852TIP3   OH256970   2.354   0.606   0.421 -0.2672 -0.2544 -0.2952
11852TIP3    H156971   2.341   0.601   0.516 -0.7131  2.7785 -0.1099
11852TIP3    H256972   2.447   0.587   0.409 -0.1858 -0.5990  0.7368
11853TIP3   OH256973   5.684   0.556   1.394 -0.1796  0.2502 -0.1146
11853TIP3    H156974   5.699   0.647   1.367 -1.2936  0.1051 -1.3723
11853TIP3    H256975   5.635   0.517   1.321  1.1190 -1.6501 -0.0466
11854TIP3   OH256976   0.877   1.161  13.068 -0.1261  0.0762 -0.0065
11854TIP3    H156977   0.803   1.172  13.007 -0.5904 -0.0814  0.5238
11854TIP3    H256978   0.917   1.248  13.072 -2.9293  1.4295  3.0625
11855TIP3   OH256979   5.778   6.254  11.125 -0.0311 -0.2790  0.3594
11855TIP3    H156980   5.821   6.201  11.058  0.2651 -0.7915  0.9483
11855TIP3    H256981   5.742   6.191  11.187 -1.0924  0.1672  0.2159
11856TIP3   OH256982   2.563   1.182   2.204  0.0892 -0.2505 -0.6967
11856TIP3    H156983   2.555   1.262   2.257 -1.3502  0.0855 -1.3551
11856TIP3    H256984   2.536   1.209   2.116 -0.4093 -1.4641 -0.9357
11857TIP3   OH256985   0.025   1.832   2.427  0.1135  0.0513 -0.1601
11857TIP3    H156986  -0.056   1.859   2.471 -1.0243  1.2448 -2.7570
11857TIP3    H256987   0.029   1.738   2.441 -1.5281  0.0227  0.3674
11858TIP3   OH256988   5.716   1.858  15.397 -0.2770 -0.2989  0.2025
11858TIP3    H156989   5.723   1.949  15.423  0.6972 -0.7545  1.6275
11858TIP3    H256990   5.730   1.859  15.302  2.1100  0.7966  0.5061
11859TIP3   OH256991   5.695   0.948  15.918 -0.0295 -0.7317 -0.6927
11859TIP3    H156992   5.685   0.951  15.822 -0.2720 -0.0157 -0.6516
11859TIP3    H256993   5.646   0.871  15.945 -0.3941 -0.6432 -1.0945
11860TIP3   OH256994   2.321   0.143   5.667 -0.5406 -0.0029  0.4700
11860TIP3    H156995   2.409   0.133   5.630 -1.3072  0.7065 -1.7250
11860TIP3    H256996   2.292   0.228   5.634 -2.7226 -1.0123 -0.3984
11861TIP3   OH256997   0.676   5.777   0.920 -0.2097 -0.5026 -0.6769
11861TIP3    H156998   0.719   5.700   0.883 -0.0920 -0.7591 -0.0328
11861TIP3    H256999   0.584   5.768   0.894 -0.6347 -1.9881  1.1088
11862TIP3   OH257000   5.196   0.180   2.721 -0.2686 -0.4759  0.8805
11862TIP3    H157001   5.265   0.125   2.759 -0.3693 -1.0871  0.1922
11862TIP3    H257002   5.126   0.179   2.786 -0.5965 -1.8282  0.5444
11863TIP3   OH257003   5.427   0.855   6.636 -0.0982 -0.0397  0.0069
11863TIP3    H157004   5.422   0.785   6.700  1.2708  0.0799  0.2756
11863TIP3    H257005   5.343   0.899   6.642 -0.8516 -1.4364  0.0744
11864TIP3   OH257006   4.373   5.370   0.744  0.4168 -0.2661 -0.4770
11864TIP3    H157007   4.436   5.347   0.812  0.4964 -1.7423 -1.0113
11864TIP3    H257008   4.289   5.340   0.780  0.3218 -0.1659 -0.6170
11865TIP3   OH257009   6.492   2.895  10.386  0.0328 -0.3835  0.4600
11865TIP3    H157010   6.478   2.804  10.411 -0.7494  0.4504  3.5790
11865TIP3    H257011   6.587   2.906  10.386  0.1081 -0.9657  1.1508
11866TIP3   OH257012   1.509   0.980  11.468 -0.7044  0.2176  0.4157
11866TIP3    H157013   1.438   1.028  11.512 -0.1732  2.4425 -1.0128
11866TIP3    H257014   1.565   0.951  11.539 -1.4167  1.1629  1.4065
11867TIP3   OH257015   3.413   1.863  11.572 -0.1524 -0.0093  0.3857
11867TIP3    H157016   3.401   1.875  11.666 -3.3703  0.9320 -0.0056
11867TIP3    H257017   3.376   1.776  11.554 -2.3598  0.9978 -0.3036
11868TIP3   OH257018   4.897   2.312  16.599  0.0798  0.0058  0.7795
11868TIP3    H157019   4.916   2.221  16.618  0.2551  0.0869  0.9975
11868TIP3    H257020   4.953   2.333  16.524  1.8842  0.6139  2.2306
11869TIP3   OH257021   4.210   1.516   0.289  0.9713 -0.0809  0.0114
11869TIP3    H157022   4.297   1.477   0.294  0.7532 -0.4409  1.3097
11869TIP3    H257023   4.216   1.580   0.218  2.4478  0.2836  0.4376
11870TIP3   OH257024   1.012   2.835   5.480 -0.2824 -0.9058  0.1303
11870TIP3    H157025   0.932   2.878   5.511 -0.4949 -0.6214 -0.7845
11870TIP3    H257026   1.069   2.834   5.557 -0.7967 -0.2346  0.5413
11871TIP3   OH257027   3.962   4.521  16.857 -0.4187 -0.3020 -0.3809
11871TIP3    H157028   3.915   4.449  16.816 -1.5105  0.3144 -0.2540
11871TIP3    H257029   3.926   4.600  16.816  0.1368  0.2120  0.0974
11872TIP3   OH257030   3.331   2.411  11.398 -0.6011  0.1547  0.4683
11872TIP3    H157031   3.305   2.476  11.333  0.6063 -0.4349 -0.6687
11872TIP3    H257032   3.258   2.350  11.401  0.7286 -2.0348 -3.3925
11873TIP3   OH257033   3.628   5.969  13.722  0.0426  0.4924  0.6067
11873TIP3    H157034   3.539   5.988  13.752  0.5386  1.2807  1.6444
11873TIP3    H257035   3.670   6.055  13.714  0.2751  0.2511 -1.3854
11874TIP3   OH257036   1.287   5.331  15.330 -0.2294  0.4402 -0.9510
11874TIP3    H157037   1.232   5.401  15.295 -1.3080 -0.0454 -0.2706
11874TIP3    H257038   1.298   5.353  15.423  1.5481  1.0434 -1.2643
11875TIP3   OH257039   3.369   0.800  15.139  0.1854 -0.5900 -0.5632
11875TIP3    H157040   3.417   0.866  15.188  0.4290 -1.2851  0.1483
11875TIP3    H257041   3.390   0.819  15.047  0.7475 -0.0752 -0.3378
11876TIP3   OH257042   0.499   5.840  14.999  0.1803 -0.1658 -0.3689
11876TIP3    H157043   0.549   5.903  15.052  1.1795  0.3035 -1.7965
11876TIP3    H257044   0.450   5.895  14.937  0.1243 -0.7398 -0.8395
11877TIP3   OH257045   3.858   1.179   5.179  0.4069  0.0442 -0.5073
11877TIP3    H157046   3.873   1.272   5.163  0.3841 -0.1317 -1.6069
11877TIP3    H257047   3.851   1.172   5.274 -0.1628  1.2503 -0.4471
11878TIP3   OH257048   1.545   3.860  15.750  0.3756  0.0037 -0.7794
11878TIP3    H157049   1.499   3.923  15.805  0.2233  0.4353 -1.3897
11878TIP3    H257050   1.568   3.788  15.810  0.1434  0.4212 -0.1762
11879TIP3   OH257051   5.070   5.765   5.162 -0.0163  0.3150  0.2956
11879TIP3    H157052   4.979   5.755   5.134  0.1674 -0.2276 -0.1242
11879TIP3    H257053   5.116   5.800   5.086 -0.0119  1.3164  0.7433
11880TIP3   OH257054   0.969   0.307  13.008 -0.5312  0.2430 -0.5464
11880TIP3    H157055   0.918   0.370  12.959 -0.8483 -0.7826 -1.5719
11880TIP3    H257056   0.909   0.234  13.024 -0.6910  0.8464  2.0771
11881TIP3   OH257057   3.354   0.412  13.158 -0.4019 -0.6433  0.3067
11881TIP3    H157058   3.303   0.337  13.187  2.5964 -2.4649  1.3593
11881TIP3    H257059   3.358   0.404  13.062 -2.0882 -0.3864  0.1982
11882TIP3   OH257060   2.874   5.171   2.201 -0.2976  0.4603  0.2228
11882TIP3    H157061   2.826   5.105   2.250  0.4471  0.5781  1.1316
11882TIP3    H257062   2.815   5.194   2.128 -1.2084 -0.0637  0.7722
11883TIP3   OH257063   3.237   1.397   0.160 -0.4943 -0.1725  0.0598
11883TIP3    H157064   3.278   1.313   0.182 -1.3477 -0.0361  2.3890
11883TIP3    H257065   3.274   1.419   0.074  1.1579 -2.0160  0.2127
11884TIP3   OH257066   1.881   1.691   4.328  0.3361 -0.3543 -0.2625
11884TIP3    H157067   1.922   1.629   4.388 -0.1154 -0.8827 -0.4887
11884TIP3    H257068   1.918   1.776   4.352  1.8175 -0.8494 -0.6768
11885TIP3   OH257069   1.698   3.168   5.044 -0.3839 -0.0536 -0.1734
11885TIP3    H157070   1.733   3.091   4.999 -0.1087  0.5855 -1.0802
11885TIP3    H257071   1.604   3.166   5.025 -0.3029  0.0927 -0.6049
11886TIP3   OH257072   3.574   5.106   4.315 -0.0203 -0.0198  0.0187
11886TIP3    H157073   3.582   5.044   4.242  0.0484  1.0389 -0.9042
11886TIP3    H257074   3.644   5.169   4.300 -0.2402  0.4197  0.8122
11887TIP3   OH257075   6.076   1.031   1.732  0.2379 -0.6953  0.0329
11887TIP3    H157076   6.051   1.004   1.643 -0.4008  0.6553 -0.2316
11887TIP3    H257077   6.109   0.951   1.773 -1.8435 -1.9599 -0.5816
11888TIP3   OH257078   0.980   4.317   3.497 -0.1523 -0.3096 -0.0539
11888TIP3    H157079   1.058   4.262   3.486  0.3250 -0.0389  1.7675
11888TIP3    H257080   0.998   4.369   3.575 -3.3716 -2.3318  2.2694
11889TIP3   OH257081   0.655   3.961  12.498  0.3090  0.6217 -1.1006
11889TIP3    H157082   0.718   4.016  12.450  0.7234  1.4345  0.3102
11889TIP3    H257083   0.692   3.873  12.494  1.5546  1.0778 -0.3349
11890TIP3   OH257084   0.921   6.679  15.962  0.4171 -0.1925 -0.4418
11890TIP3    H157085   1.017   6.681  15.969  0.3525  0.4400  0.4881
11890TIP3    H257086   0.890   6.715  16.045 -0.6661 -1.7466 -0.1217
11891TIP3   OH257087   0.153   5.795   5.326  0.3672 -0.0596 -0.1866
11891TIP3    H157088   0.178   5.764   5.413 -1.1413  0.6504  0.5330
11891TIP3    H257089   0.185   5.885   5.322  1.5344 -0.4788 -0.8783
11892TIP3   OH257090   3.389   1.313  13.328 -0.1759  0.3453  0.5874
11892TIP3    H157091   3.410   1.254  13.400 -0.9175  1.5085  1.8035
11892TIP3    H257092   3.467   1.368  13.319  0.6611 -0.9698 -0.7862
11893TIP3   OH257093   6.117   4.290   1.786 -0.1778 -0.8576 -0.2650
11893TIP3    H157094   6.053   4.307   1.855  1.1108 -2.1369  1.3159
11893TIP3    H257095   6.202   4.306   1.828  0.6225  1.3099 -2.4351
11894TIP3   OH257096   4.923   1.794  15.619  0.4347  0.1826  0.7798
11894TIP3    H157097   4.842   1.743  15.608  0.3501 -0.3159  3.1628
11894TIP3    H257098   4.906   1.877  15.574 -2.1121  0.7696  2.6011
11895TIP3   OH257099   6.733   2.931  11.462 -0.3896 -0.1841 -0.7316
11895TIP3    H157100   6.716   2.854  11.407 -1.0761 -0.4295 -0.1928
11895TIP3    H257101   6.811   2.970  11.424  0.6053 -1.7494 -0.3910
11896TIP3   OH257102   0.813   3.320  15.351  0.3658  0.1850 -0.1075
11896TIP3    H157103   0.724   3.353  15.363  0.6496  1.2700 -0.8084
11896TIP3    H257104   0.843   3.363  15.270  1.7611  0.3798  0.4941
11897TIP3   OH257105   4.088   2.348   3.293  0.0894  0.9698  0.9161
11897TIP3    H157106   4.073   2.280   3.358 -0.8786  0.3256  0.0531
11897TIP3    H257107   4.176   2.381   3.312  1.0591 -1.3180  0.6581
11898TIP3   OH257108   4.299   2.426  13.373  0.1107 -0.1088  0.6705
11898TIP3    H157109   4.224   2.461  13.422 -0.0212  0.1053  0.3213
11898TIP3    H257110   4.333   2.355  13.428 -0.1216  0.0371  1.0045
11899TIP3   OH257111   6.626   5.699   1.278  0.1606  0.1286  0.2344
11899TIP3    H157112   6.577   5.682   1.197  0.6500  0.7502 -0.1987
11899TIP3    H257113   6.563   5.681   1.348 -1.0440  1.9563 -0.3233
11900TIP3   OH257114   3.082   5.890   0.391  0.3393 -0.4789 -0.2775
11900TIP3    H157115   3.090   5.819   0.454  1.1463  0.6428  0.9551
11900TIP3    H257116   3.024   5.953   0.434  0.3798  0.0224 -0.9407
11901TIP3   OH257117   2.043   2.450  15.071  0.2513 -0.8761 -0.3434
11901TIP3    H157118   2.021   2.453  15.164  0.9549  1.1418 -0.1737
11901TIP3    H257119   1.970   2.493  15.027  0.9698  0.3109 -0.4311
11902TIP3   OH257120   0.569   2.152  11.863  0.2760 -0.1472  0.1623
11902TIP3    H157121   0.623   2.094  11.808  1.6777 -0.0245  1.3463
11902TIP3    H257122   0.612   2.237  11.855 -0.7066  0.3318 -0.1256
11903TIP3   OH257123   5.633   5.384  15.958 -0.0370  0.0688  0.2170
11903TIP3    H157124   5.651   5.349  15.870 -0.3464 -0.7245  0.4630
11903TIP3    H257125   5.656   5.312  16.017  0.1071  0.5787  0.7884
11904TIP3   OH257126   0.557   2.582  13.990 -0.1376  0.1075 -0.4037
11904TIP3    H157127   0.469   2.619  14.001 -1.3762 -1.9713 -2.4813
11904TIP3    H257128   0.610   2.630  14.053 -3.0545  0.3278  2.1313
11905TIP3   OH257129   3.342   0.128   3.340  0.1143  0.0355 -0.5137
11905TIP3    H157130   3.423   0.094   3.303  0.4731  0.2209  0.0908
11905TIP3    H257131   3.291   0.157   3.264  0.7398  0.1899 -0.8751
11906TIP3   OH257132   2.545   0.516  16.631 -0.0628  0.5779  0.3338
11906TIP3    H157133   2.477   0.560  16.682  0.3795  1.5474  0.1087
11906TIP3    H257134   2.583   0.585  16.577  1.1557  0.0681  0.5027
11907TIP3   OH257135   4.668   4.038   3.927  0.2345 -0.4564 -0.7070
11907TIP3    H157136   4.646   4.131   3.929  0.2804 -0.4391 -0.9667
11907TIP3    H257137   4.758   4.036   3.895  0.2686 -0.5841 -0.6021
11908TIP3   OH257138   5.238   3.480   4.033  0.0807 -0.6451 -0.1240
11908TIP3    H157139   5.324   3.503   3.998 -0.0464 -1.0156 -0.6876
11908TIP3    H257140   5.202   3.417   3.971 -1.1651  0.5015 -0.6216
11909TIP3   OH257141   1.418   5.710  14.558  0.2286 -0.0181 -0.5855
11909TIP3    H157142   1.419   5.796  14.600 -0.8639 -0.7598  1.0432
11909TIP3    H257143   1.363   5.722  14.481 -2.0135  0.2038  0.9594
11910TIP3   OH257144   3.565   4.116  15.683 -0.2733 -0.2257  0.2196
11910TIP3    H157145   3.598   4.149  15.599  0.3405 -1.3308  0.0064
11910TIP3    H257146   3.470   4.123  15.676 -0.2628 -1.0541 -0.8943
11911TIP3   OH257147   3.222   4.862  12.760  1.0961  0.1512 -0.5318
11911TIP3    H157148   3.133   4.835  12.783  1.2005 -0.3144 -0.6792
11911TIP3    H257149   3.211   4.951  12.726  1.0377  1.2387  2.1223
11912TIP3   OH257150   5.821   5.753  11.881 -0.0997  0.1169  0.2277
11912TIP3    H157151   5.760   5.721  11.814  0.0493  1.5934 -0.6403
11912TIP3    H257152   5.779   5.831  11.916  1.0569  0.8786 -0.0495
11913TIP3   OH257153   0.374   6.806  16.062  0.1966 -0.1611 -0.7502
11913TIP3    H157154   0.317   6.735  16.091 -1.5686  0.7835 -1.7227
11913TIP3    H257155   0.373   6.869  16.133  1.6381 -0.9599  0.0456
11914TIP3   OH257156   0.900   2.550  12.328  0.2128  0.2619  0.1584
11914TIP3    H157157   0.974   2.516  12.378 -0.1644 -0.7199  0.0723
11914TIP3    H257158   0.928   2.548  12.237 -0.6322 -2.1444 -0.1097
11915TIP3   OH257159   4.581   5.590   2.281  0.4197  0.5004 -0.2499
11915TIP3    H157160   4.577   5.669   2.335 -2.0143  0.9863 -1.0244
11915TIP3    H257161   4.537   5.523   2.334 -0.2886  0.4919 -0.8351
11916TIP3   OH257162   4.363   4.558   6.712 -0.0224 -0.1236 -0.6065
11916TIP3    H157163   4.280   4.591   6.678  0.3891  0.6251 -0.9185
11916TIP3    H257164   4.425   4.629   6.696  0.6867 -0.6876 -0.4163
11917TIP3   OH257165   3.679   1.331   4.765  0.3045 -0.8139 -0.2706
11917TIP3    H157166   3.615   1.328   4.837  0.4523 -2.2335 -0.1818
11917TIP3    H257167   3.690   1.240   4.738  1.4126 -0.4634 -1.0786
11918TIP3   OH257168   2.672   1.242   3.585 -0.5008 -0.1459 -0.2927
11918TIP3    H157169   2.706   1.330   3.603  1.0845 -0.5515 -1.1703
11918TIP3    H257170   2.745   1.183   3.605 -1.3168 -1.2137 -0.3799
11919TIP3   OH257171   1.319   5.738   3.332  0.4024 -0.3504 -0.8084
11919TIP3    H157172   1.358   5.688   3.260  0.8291 -1.1735 -0.0281
11919TIP3    H257173   1.259   5.677   3.374  0.5466 -0.0576 -0.1528
11920TIP3   OH257174   6.044   5.233  11.384 -0.0198 -0.3024 -0.1665
11920TIP3    H157175   6.085   5.256  11.467 -2.0067 -1.4014  1.2004
11920TIP3    H257176   6.048   5.314  11.333  0.2536  0.7416  1.4284
11921TIP3   OH257177   0.871   4.648  13.124  0.9053 -0.2048 -0.4816
11921TIP3    H157178   0.811   4.716  13.152  1.1172  0.1881 -0.9696
11921TIP3    H257179   0.850   4.633  13.032  1.4018 -0.2209 -0.5959
11922TIP3   OH257180   6.256   1.486  15.235 -0.7189  0.7443  0.2918
11922TIP3    H157181   6.273   1.513  15.144 -2.5992  1.5707  0.1296
11922TIP3    H257182   6.339   1.500  15.280  0.1749  0.6182 -1.2106
11923TIP3   OH257183   1.390   0.468  15.112  0.1310  0.1231  0.4564
11923TIP3    H157184   1.386   0.536  15.045  0.2234 -0.1604  0.1598
11923TIP3    H257185   1.483   0.446  15.118 -0.1345 -1.6948 -1.2113
11924TIP3   OH257186   6.358   1.909  11.372  0.2714 -0.3112 -0.3060
11924TIP3    H157187   6.337   1.991  11.418  0.4097 -0.0091 -0.7736
11924TIP3    H257188   6.420   1.865  11.429  1.9317  0.9522 -1.0613
11925TIP3   OH257189   1.607   3.742   4.453 -1.0302  0.2843  0.5898
11925TIP3    H157190   1.675   3.796   4.494 -0.7110 -0.1880  0.6842
11925TIP3    H257191   1.551   3.715   4.526  0.2533 -1.6079  0.9500
11926TIP3   OH257192   1.556   4.843  11.900 -0.2768 -0.5896 -0.2396
11926TIP3    H157193   1.610   4.916  11.930  1.0070 -1.4354 -0.3987
11926TIP3    H257194   1.549   4.855  11.805 -1.6739  0.3432 -0.0489
11927TIP3   OH257195   1.331   3.286   0.733  0.0848  0.4898  0.4054
11927TIP3    H157196   1.244   3.246   0.737  0.5300 -0.7319 -1.0475
11927TIP3    H257197   1.369   3.269   0.819 -0.5478 -0.3677  0.5309
11928TIP3   OH257198   2.113   2.873  16.454 -0.1306  0.0589  0.1364
11928TIP3    H157199   2.076   2.961  16.465 -1.2010 -0.4292  0.6290
11928TIP3    H257200   2.119   2.862  16.359  2.4609  1.6137  0.0265
11929TIP3   OH257201   2.857   2.121  16.127 -0.6915 -0.1534 -0.0148
11929TIP3    H157202   2.792   2.142  16.059 -0.7301 -2.4661 -0.7703
11929TIP3    H257203   2.825   2.167  16.205 -2.0435  0.5342 -0.9283
11930TIP3   OH257204   3.254   0.501  12.619  0.4081 -0.4441  0.2083
11930TIP3    H157205   3.313   0.489  12.545  1.0716 -1.3305  0.8685
11930TIP3    H257206   3.177   0.449  12.596  1.7339 -3.0910  1.3439
11931TIP3   OH257207   3.680   2.746  14.119  0.0402  0.3575  0.0898
11931TIP3    H157208   3.705   2.813  14.183  1.0463  2.1406 -2.0487
11931TIP3    H257209   3.763   2.711  14.087 -0.2061  2.1158 -2.8065
11932TIP3   OH257210   6.559   3.149  13.641  0.2214  0.3456 -0.2389
11932TIP3    H157211   6.594   3.063  13.664  1.0638  0.2999 -1.5510
11932TIP3    H257212   6.606   3.210  13.698  0.7669  0.0574 -0.3666
11933TIP3   OH257213   3.251   3.482  15.882 -0.4728  0.8381  0.1805
11933TIP3    H157214   3.177   3.441  15.837  0.1986  1.6751 -1.8331
11933TIP3    H257215   3.322   3.419  15.874 -0.6770  0.4810  1.1653
11934TIP3   OH257216   2.125   3.866   2.222 -0.0172 -0.0441 -0.6248
11934TIP3    H157217   2.072   3.788   2.203 -0.0264  0.3272 -2.2275
11934TIP3    H257218   2.094   3.894   2.308 -1.8051 -0.3693 -1.1104
11935TIP3   OH257219   0.904   6.080   2.569  0.2879 -0.0363  0.0281
11935TIP3    H157220   0.956   6.077   2.488  0.9285 -1.3668  0.4612
11935TIP3    H257221   0.965   6.109   2.636  0.2599 -0.7866  0.3834
11936TIP3   OH257222   5.566   1.798   3.674 -0.2928 -0.5046 -0.2028
11936TIP3    H157223   5.646   1.746   3.685 -0.0366  0.0422  0.6491
11936TIP3    H257224   5.518   1.754   3.604 -0.1229 -1.9478  0.5356
11937TIP3   OH257225   5.651   6.022  16.986  0.0329  0.0870 -0.6445
11937TIP3    H157226   5.577   6.070  17.025 -0.6804 -0.0271 -1.8308
11937TIP3    H257227   5.617   5.988  16.904  0.7594 -1.8499 -0.1828
11938TIP3   OH257228   3.826   5.083   2.280  0.5175  0.5544  0.1803
11938TIP3    H157229   3.846   4.994   2.253  0.1132  0.3504  0.5365
11938TIP3    H257230   3.754   5.074   2.342 -0.5488  1.2378 -0.8979
11939TIP3   OH257231   3.715   3.840   4.919  0.2209 -0.0262  0.2308
11939TIP3    H157232   3.780   3.825   4.850  0.7547 -1.9932  1.0712
11939TIP3    H257233   3.767   3.866   4.995 -0.2478  0.9911  0.2129
11940TIP3   OH257234   1.024   0.642  14.578  0.0428  0.2131  0.2093
11940TIP3    H157235   0.938   0.640  14.535 -0.6736 -0.6835  1.5725
11940TIP3    H257236   1.009   0.597  14.662  1.8614 -0.0053  0.4586
11941TIP3   OH257237   6.038   5.323   3.690  0.0100  0.5633  0.1117
11941TIP3    H157238   6.099   5.396   3.677  0.1920  0.2906 -0.6182
11941TIP3    H257239   6.073   5.253   3.635 -0.5265  0.1388  0.3031
11942TIP3   OH257240   1.067   1.427   0.935 -0.1283 -0.1453 -0.0150
11942TIP3    H157241   1.057   1.402   1.026  1.7746 -0.9720  0.0169
11942TIP3    H257242   1.158   1.457   0.928 -0.1847 -0.2583 -1.6617
11943TIP3   OH257243   2.667   5.732  12.384 -0.0934  0.0159 -0.6376
11943TIP3    H157244   2.660   5.738  12.479  0.0633  2.4661 -0.7236
11943TIP3    H257245   2.586   5.690  12.357 -1.0445  1.0492  0.4669
11944TIP3   OH257246   6.244   5.862   5.053 -0.1777  0.0556  0.1188
11944TIP3    H157247   6.318   5.921   5.066  0.5090 -0.4582 -1.2862
11944TIP3    H257248   6.247   5.803   5.128  0.9200 -0.0476  0.0043
11945TIP3   OH257249   1.722   1.042   0.492  0.0231  0.5850 -0.0991
11945TIP3    H157250   1.719   0.989   0.571  0.2745 -3.0501 -2.2663
11945TIP3    H257251   1.630   1.055   0.467 -0.0250  0.2002 -0.1209
11946TIP3   OH257252   3.009   4.849  13.578  0.1913 -0.3112 -0.1362
11946TIP3    H157253   2.998   4.757  13.555  1.3183 -0.3622 -0.5755
11946TIP3    H257254   2.955   4.896  13.515 -1.8384 -0.7102  1.2142
11947TIP3   OH257255   6.066   0.547  13.821 -0.1428 -0.7133 -0.0516
11947TIP3    H157256   6.136   0.504  13.870  1.6526  0.8288 -1.1283
11947TIP3    H257257   6.105   0.628  13.789 -2.5466  0.3722 -0.4503
11948TIP3   OH257258   5.714   1.709  14.998  0.0354 -0.6424 -0.4971
11948TIP3    H157259   5.679   1.623  15.018 -2.1961  0.2784 -0.1562
11948TIP3    H257260   5.640   1.768  15.007  1.8806  1.6230  1.2072
11949TIP3   OH257261   2.543   6.678   0.544  0.2091  0.6440  0.8775
11949TIP3    H157262   2.460   6.725   0.543  1.2234  2.5340  0.6178
11949TIP3    H257263   2.544   6.630   0.461  0.7085  3.2061 -0.7130
11950TIP3   OH257264   4.992   3.018   4.623 -0.7281  0.3818 -0.2084
11950TIP3    H157265   5.030   3.100   4.591 -1.9046  0.5556 -1.2380
11950TIP3    H257266   5.060   2.981   4.680  0.3090  1.4687 -0.6854
11951TIP3   OH257267   3.850   0.342   4.413 -0.5363  0.5479  0.6872
11951TIP3    H157268   3.938   0.310   4.393  0.0906  1.8936  1.1715
11951TIP3    H257269   3.812   0.361   4.327 -0.5145 -0.4001  0.4540
11952TIP3   OH257270   3.666   2.486  16.055  0.2589  0.0708 -0.5131
11952TIP3    H157271   3.631   2.475  16.143 -1.7194 -0.4906 -1.3147
11952TIP3    H257272   3.751   2.528  16.068 -0.6368  1.3780  1.5713
11953TIP3   OH257273   3.410   5.131  14.913  0.0819  0.1347 -0.7928
11953TIP3    H157274   3.318   5.110  14.897 -0.0630 -0.2323  0.3673
11953TIP3    H257275   3.425   5.215  14.869 -1.0122  0.5570 -0.3826
11954TIP3   OH257276   0.674   1.186   2.978  0.0605 -0.3312  0.1664
11954TIP3    H157277   0.635   1.187   2.891 -0.4052  1.9036  0.3387
11954TIP3    H257278   0.645   1.104   3.016  0.7427 -1.6308 -1.9482
11955TIP3   OH257279   6.634   6.090   5.457  0.1288  0.1334 -0.6001
11955TIP3    H157280   6.652   6.151   5.529  0.2689  0.5536 -0.9917
11955TIP3    H257281   6.538   6.085   5.454  0.0914  0.9638 -1.0871
11956TIP3   OH257282   5.076   6.087  13.097 -0.1638 -0.7992 -0.6044
11956TIP3    H157283   4.985   6.059  13.109  0.0769 -1.2133  0.3034
11956TIP3    H257284   5.090   6.080  13.002 -1.1144 -0.5913 -0.7718
11957TIP3   OH257285   6.797   0.964   4.173  0.5006 -0.3579 -0.4072
11957TIP3    H157286   6.770   0.948   4.083  0.9268  2.3052 -1.1001
11957TIP3    H257287   6.716   0.985   4.219  0.5314  0.7433 -0.8156
11958TIP3   OH257288   5.775   4.547  10.667 -0.2142  0.0075  0.0532
11958TIP3    H157289   5.817   4.580  10.746  0.5838  1.2679 -0.8622
11958TIP3    H257290   5.830   4.473  10.639  0.2006  0.3269  0.0172
11959TIP3   OH257291   3.823   2.414   3.325  0.1519 -0.0935 -0.1746
11959TIP3    H157292   3.916   2.403   3.302 -0.2065 -2.9435 -0.5421
11959TIP3    H257293   3.821   2.400   3.420 -0.1448 -2.3018 -0.4717
11960TIP3   OH257294   0.235   4.994   4.614 -0.0431 -0.7654  0.2479
11960TIP3    H157295   0.147   5.028   4.599  1.2907  3.6617  0.9308
11960TIP3    H257296   0.231   4.956   4.702 -0.9665  0.9017  0.9781
11961TIP3   OH257297   4.491   2.059  14.416 -0.0591  0.3694 -0.2961
11961TIP3    H157298   4.468   2.136  14.468  2.6048  0.8684  0.2969
11961TIP3    H257299   4.510   2.094  14.329 -0.3919  0.1487 -0.4585
11962TIP3   OH257300   0.931   1.400   2.276 -0.1182  0.0236 -0.0152
11962TIP3    H157301   1.017   1.418   2.237 -0.1083 -0.3680 -0.1776
11962TIP3    H257302   0.874   1.469   2.243  0.5191  1.3210  1.4425
11963TIP3   OH257303   6.144   2.705  13.729  0.8520 -0.6409  0.2557
11963TIP3    H157304   6.181   2.769  13.790  1.0829  1.1611 -1.6835
11963TIP3    H257305   6.220   2.670  13.683  0.6266 -1.5472  0.5560
11964TIP3   OH257306   6.507   1.823   0.294 -0.3560  0.6595 -0.1000
11964TIP3    H157307   6.461   1.789   0.217  0.2007  0.1812 -0.2235
11964TIP3    H257308   6.596   1.790   0.286 -0.2933  0.5999  0.7557
11965TIP3   OH257309   4.004   6.767   4.967 -0.3529 -0.2937  0.0393
11965TIP3    H157310   3.998   6.849   4.918 -1.5312 -0.7113 -0.5462
11965TIP3    H257311   3.949   6.781   5.044 -0.7117 -0.5923 -0.1587
11966TIP3   OH257312   6.510   6.603  11.775 -0.3693 -0.7312 -0.7932
11966TIP3    H157313   6.578   6.544  11.744 -0.3331 -0.1098 -1.9432
11966TIP3    H257314   6.530   6.615  11.868  0.7023 -1.0730 -0.9653
11967TIP3   OH257315   6.686   4.815   1.761 -0.2281 -0.2557  0.2265
11967TIP3    H157316   6.741   4.856   1.827 -0.2899 -0.0006  0.1177
11967TIP3    H257317   6.742   4.808   1.683 -0.7557  1.2760 -0.3348
11968TIP3   OH257318   3.573   5.572  16.821 -0.6158 -0.2780 -0.2276
11968TIP3    H157319   3.652   5.519  16.826 -0.6596 -0.2571  0.9689
11968TIP3    H257320   3.501   5.509  16.830 -0.7487 -0.3028 -1.3462
11969TIP3   OH257321   2.696   3.198  14.934 -0.1981 -0.0465  0.1646
11969TIP3    H157322   2.768   3.134  14.935  0.3439  0.5087  2.4036
11969TIP3    H257323   2.662   3.197  15.023 -2.3088  0.4960 -0.5754
11970TIP3   OH257324   1.614   6.468  12.829  0.3172 -0.0270 -0.3066
11970TIP3    H157325   1.698   6.512  12.819 -0.0247  1.1082  1.5102
11970TIP3    H257326   1.548   6.537  12.817 -0.3378 -0.6613 -0.4886
11971TIP3   OH257327   4.954   0.103   2.956  0.4918  0.0925  0.1578
11971TIP3    H157328   4.964   0.133   3.047 -1.8867  0.2974  0.4102
11971TIP3    H257329   4.870   0.140   2.928  0.8177 -0.6044 -1.8876
11972TIP3   OH257330   4.594   2.857   4.385  0.1696 -0.2652  0.0626
11972TIP3    H157331   4.672   2.857   4.329 -0.2797  2.6712 -0.7337
11972TIP3    H257332   4.621   2.905   4.463 -0.5038 -0.3346  0.3421
11973TIP3   OH257333   3.328   4.275   0.028  0.2036 -0.0314 -0.0071
11973TIP3    H157334   3.258   4.321  -0.018 -0.6678 -0.7687  0.5502
11973TIP3    H257335   3.358   4.208  -0.033 -0.6746 -0.7420  0.3062
11974TIP3   OH257336   0.371   5.255   4.496  0.1522  0.0092  0.5022
11974TIP3    H157337   0.440   5.252   4.430  0.2527  0.2668  0.5939
11974TIP3    H257338   0.343   5.164   4.506 -0.4370  0.0597 -0.4902
11975TIP3   OH257339   2.251   5.826  15.004  0.3014 -0.0659 -0.1753
11975TIP3    H157340   2.266   5.845  14.911  0.9511  0.6179  0.0560
11975TIP3    H257341   2.162   5.790  15.008  0.5576 -0.8394 -1.1560
11976TIP3   OH257342   1.435   0.175   3.774  0.6351  0.7678 -0.5749
11976TIP3    H157343   1.437   0.270   3.765  0.4230  0.7910 -0.3784
11976TIP3    H257344   1.504   0.155   3.837  1.2296  0.7183 -1.2243
11977TIP3   OH257345   1.794   4.005  15.805  0.4380 -0.3170  0.3940
11977TIP3    H157346   1.744   3.954  15.869  3.7993  0.1311  3.7574
11977TIP3    H257347   1.762   4.095  15.815 -0.6864 -0.6154 -0.3841
11978TIP3   OH257348   5.521   4.541   3.615  0.2190 -0.4025  0.5134
11978TIP3    H157349   5.561   4.592   3.544  0.0047  0.7273  1.1836
11978TIP3    H257350   5.453   4.490   3.571  0.5573 -0.2574 -0.2093
11979TIP3   OH257351   6.061   3.660  13.964  0.8820 -0.0370 -0.3673
11979TIP3    H157352   6.019   3.625  13.885  0.4971  1.8339 -1.0584
11979TIP3    H257353   6.123   3.593  13.991 -2.6324 -3.1341  0.8467
11980TIP3   OH257354   1.820   6.540   0.396  0.1372 -0.0269  0.4016
11980TIP3    H157355   1.768   6.620   0.387  0.5777  0.5492  2.5586
11980TIP3    H257356   1.908   6.571   0.415  0.7881 -1.0330 -0.8174
11981TIP3   OH257357   0.365   4.785  14.590  0.2913  0.7382  1.0774
11981TIP3    H157358   0.450   4.795  14.549  1.7226 -1.7342  3.1332
11981TIP3    H257359   0.309   4.748  14.521  1.2764  1.0230  0.1041
11982TIP3   OH257360   4.925   2.674  12.364 -0.3902  0.2834  0.1428
11982TIP3    H157361   5.012   2.711  12.382  0.3214 -0.7972 -0.9281
11982TIP3    H257362   4.915   2.603  12.428  0.0451 -0.3704 -0.4986
11983TIP3   OH257363   3.744   3.871  16.846  0.1439 -0.1234  0.5606
11983TIP3    H157364   3.695   3.936  16.796  0.3403 -0.0497  0.4670
11983TIP3    H257365   3.725   3.891  16.938  2.3213  1.7561  0.6889
11984TIP3   OH257366   3.116   3.244  15.964  0.3943 -0.3450  0.0677
11984TIP3    H157367   3.172   3.171  15.992  0.0952 -0.1798  1.1431
11984TIP3    H257368   3.028   3.205  15.960  0.3786 -0.2724 -0.2797
11985TIP3   OH257369   6.605   6.434  15.705  0.3804 -0.2671  0.4198
11985TIP3    H157370   6.509   6.423  15.706  0.4361 -2.1893 -2.7172
11985TIP3    H257371   6.637   6.367  15.765 -0.2175 -0.3232  0.6849
11986TIP3   OH257372   3.910   4.973  13.592 -0.4203  0.1947  0.6721
11986TIP3    H157373   3.858   5.003  13.666 -0.8993  1.4673 -0.1303
11986TIP3    H257374   3.909   4.878  13.598 -0.4967  0.2734  2.2501
11987TIP3   OH257375   1.194   3.496   4.523 -0.1234 -0.1754 -0.0609
11987TIP3    H157376   1.217   3.529   4.610 -0.3637  3.1025 -1.1044
11987TIP3    H257377   1.262   3.531   4.465  0.1295 -2.4261 -1.2077
11988TIP3   OH257378   5.682   3.879   4.159 -0.4190 -0.0873 -1.0485
11988TIP3    H157379   5.667   3.861   4.252  1.1316  2.4035 -0.2220
11988TIP3    H257380   5.740   3.809   4.130  0.1633 -0.1702  0.2348
11989TIP3   OH257381   1.316   1.882   1.059  0.0719  0.4717 -0.0059
11989TIP3    H157382   1.271   1.819   1.001  0.3986  0.4105 -0.1931
11989TIP3    H257383   1.310   1.965   1.012 -0.0915  0.5195  0.0996
11990TIP3   OH257384   3.609   4.331   0.113  0.1863 -0.0620 -0.4751
11990TIP3    H157385   3.608   4.280   0.194 -0.7222  0.0323 -0.4153
11990TIP3    H257386   3.519   4.325   0.080 -0.1601  2.1144 -0.0685
11991TIP3   OH257387   2.209   5.062  11.201  0.4243  0.0418 -0.2764
11991TIP3    H157388   2.253   5.099  11.278 -0.7735  0.2140  0.3468
11991TIP3    H257389   2.262   4.986  11.178  0.6837 -0.1503  0.8623
11992TIP3   OH257390   3.395   3.981   5.469  0.3591  0.3722 -0.0459
11992TIP3    H157391   3.322   3.921   5.485  1.1463 -0.6861 -0.3102
11992TIP3    H257392   3.373   4.059   5.519  0.2229 -0.8429  1.9153
11993TIP3   OH257393   5.240   0.914   2.891 -0.1485  0.1888  0.1331
11993TIP3    H157394   5.241   0.868   2.807 -1.1247 -0.2344  0.3359
11993TIP3    H257395   5.293   0.859   2.950 -0.9274 -0.4512  0.2514
11994TIP3   OH257396   4.584   4.009  15.002 -0.1910 -0.0691  0.3671
11994TIP3    H157397   4.535   3.944  14.952 -0.3061  0.0444  0.3317
11994TIP3    H257398   4.522   4.040  15.068 -0.0040 -0.2998  0.6529
11995TIP3   OH257399   5.058   0.319  11.225  0.0520  0.0094 -0.3035
11995TIP3    H157400   5.003   0.286  11.154  1.0031  0.3143 -1.2064
11995TIP3    H257401   5.014   0.399  11.255  0.0267  0.2777 -1.0489
11996TIP3   OH257402   1.947   4.278  14.387 -0.3338  0.3955 -0.1463
11996TIP3    H157403   1.945   4.347  14.453 -1.6073 -0.1977  0.4552
11996TIP3    H257404   1.867   4.291  14.336  1.0141  1.3875 -2.1958
11997TIP3   OH257405   2.759   1.255  15.029 -0.3043 -0.4496 -0.2871
11997TIP3    H157406   2.742   1.182  14.969 -1.2660 -0.2457 -0.2762
11997TIP3    H257407   2.787   1.327  14.973  1.6144 -1.0742 -0.2212
11998TIP3   OH257408   0.728   4.993  12.925 -0.6880 -0.4309 -0.1538
11998TIP3    H157409   0.677   5.011  12.846  0.0957 -0.8513 -0.7722
11998TIP3    H257410   0.667   4.950  12.984 -1.2451 -0.2397 -0.5808
11999TIP3   OH257411   1.871   0.466   1.022 -0.2792  0.2842  0.2646
11999TIP3    H157412   1.897   0.475   0.931 -1.0199  0.6482  0.0879
11999TIP3    H257413   1.914   0.385   1.051  1.5590  1.1806  0.1632
12000TIP3   OH257414   0.393   2.710  10.878  0.0768  0.0879 -0.1906
12000TIP3    H157415   0.316   2.728  10.823  1.2496  0.6906 -1.7233
12000TIP3    H257416   0.439   2.639  10.832  0.2690 -0.4999  0.8907
12001TIP3   OH257417   6.789   4.832  12.657  0.0730 -0.6305  0.3314
12001TIP3    H157418   6.788   4.893  12.583  1.3708 -0.1880  0.6482
12001TIP3    H257419   6.760   4.884  12.732 -0.9210 -0.9937  0.2196
12002TIP3   OH257420   6.575   2.140  13.763  0.3172 -0.0090 -0.6024
12002TIP3    H157421   6.505   2.097  13.813 -0.9592  0.6584 -1.7587
12002TIP3    H257422   6.560   2.233  13.776 -0.9297  0.2467 -3.2896
12003TIP3   OH257423   0.009   3.213   1.830  0.0593  0.0914  0.2366
12003TIP3    H157424  -0.050   3.277   1.789  0.1415  0.6381  0.9532
12003TIP3    H257425  -0.046   3.136   1.845  0.1097 -0.2442 -1.1846
12004TIP3   OH257426   4.151   0.454   1.983 -0.8496  0.4400 -0.1093
12004TIP3    H157427   4.212   0.519   2.018 -1.3817  0.7342  0.2860
12004TIP3    H257428   4.147   0.473   1.889 -0.3965  0.4689 -0.1269
12005TIP3   OH257429   2.941   3.453   0.765  0.2356  0.5167 -1.0732
12005TIP3    H157430   3.030   3.464   0.797 -0.1942  1.0421 -0.0317
12005TIP3    H257431   2.939   3.364   0.731  1.1646  0.5099 -1.1382
12006TIP3   OH257432   2.955   2.817  12.748 -0.2985 -0.0858 -0.4857
12006TIP3    H157433   3.030   2.876  12.748 -0.2312 -0.1679 -0.2824
12006TIP3    H257434   2.964   2.767  12.667  1.3757 -1.9652  0.7649
12007TIP3   OH257435   3.534   3.458   3.156  0.1782  0.3959 -0.3980
12007TIP3    H157436   3.475   3.524   3.120  0.5920  1.2105  0.3902
12007TIP3    H257437   3.560   3.492   3.241  2.0605  0.2291 -0.8589
12008TIP3   OH257438   4.451   4.733  15.836  0.1070  0.2195 -0.0496
12008TIP3    H157439   4.532   4.776  15.807  1.4751 -0.5235  2.4105
12008TIP3    H257440   4.437   4.663  15.772  1.5280  0.2388 -0.4223
12009TIP3   OH257441   3.061   1.799   1.811  0.3148 -0.2832  0.3233
12009TIP3    H157442   3.041   1.785   1.718 -1.0811  0.1824  0.5309
12009TIP3    H257443   3.073   1.711   1.847 -2.9024 -0.8002  0.4598
12010TIP3   OH257444   2.096   4.857   6.726  0.3151  0.6490 -0.2491
12010TIP3    H157445   2.029   4.802   6.685  0.7446  1.2011 -1.7755
12010TIP3    H257446   2.149   4.796   6.778 -0.6182  0.0132 -0.0278
12011TIP3   OH257447   5.011   1.871  14.868  0.1846  0.3004  0.1066
12011TIP3    H157448   5.097   1.848  14.834  0.5199  0.6871  0.6580
12011TIP3    H257449   5.028   1.943  14.929 -0.6435  1.0050 -0.4620
12012TIP3   OH257450   1.283   6.796  15.573 -0.0980  0.0069  0.1941
12012TIP3    H157451   1.261   6.713  15.530  0.6293 -0.0645 -0.0609
12012TIP3    H257452   1.379   6.797  15.574 -0.0776  1.3376 -0.7930
12013TIP3   OH257453   1.985   1.223  14.710 -0.1240 -0.3311  0.1480
12013TIP3    H157454   2.003   1.267  14.627  1.4934 -2.2890 -0.6448
12013TIP3    H257455   1.892   1.237  14.725  0.2090  3.0326 -0.1242
12014TIP3   OH257456   2.306   1.438   1.774 -0.2034 -0.0379 -0.2273
12014TIP3    H157457   2.293   1.360   1.720 -0.9994  1.0219 -1.6490
12014TIP3    H257458   2.218   1.468   1.794  0.0883  0.7517 -0.0994
12015TIP3   OH257459   3.332   3.495   2.068  0.0553 -0.2193  0.2289
12015TIP3    H157460   3.338   3.443   2.148 -0.1550 -0.2238  0.2419
12015TIP3    H257461   3.299   3.433   2.002 -0.0514 -0.1388  0.2083
12016TIP3   OH257462   6.114   4.148   1.547 -0.6839 -0.2924 -0.0741
12016TIP3    H157463   6.148   4.059   1.553  0.9512  0.3332  0.6600
12016TIP3    H257464   6.114   4.180   1.638  1.2264  1.2905 -0.5589
12017TIP3   OH257465   4.456   1.617   2.527  0.0804 -0.0830 -0.2573
12017TIP3    H157466   4.393   1.583   2.463  0.2566 -0.0269 -0.4654
12017TIP3    H257467   4.528   1.554   2.524  0.6832  0.6157 -1.0952
12018TIP3   OH257468   5.501   6.531   0.808  0.1043 -0.4665 -0.5619
12018TIP3    H157469   5.536   6.613   0.772  0.2477  0.2169  1.0802
12018TIP3    H257470   5.409   6.531   0.782  0.6039 -0.9336 -2.5304
12019TIP3   OH257471   3.458   3.322  15.839  0.3462  0.2975 -0.0699
12019TIP3    H157472   3.550   3.298  15.851 -0.1490 -0.6367  2.2402
12019TIP3    H257473   3.411   3.239  15.836 -0.5420  0.7909 -0.2188
12020TIP3   OH257474   4.396   3.281   3.633  0.3589  0.1170  0.2932
12020TIP3    H157475   4.434   3.343   3.570 -1.1895  1.2272  0.3978
12020TIP3    H257476   4.397   3.197   3.587  1.6300  0.3775 -0.2102
12021TIP3   OH257477   0.387   6.800   5.844 -0.2593  0.0053 -0.3589
12021TIP3    H157478   0.294   6.780   5.841 -0.6399  1.7312 -1.8158
12021TIP3    H257479   0.421   6.749   5.917 -2.1377 -1.4662 -0.4483
12022TIP3   OH257480   6.310   1.672   0.447 -0.4355  0.1292  0.2178
12022TIP3    H157481   6.380   1.637   0.501 -0.3356 -4.0306 -2.1885
12022TIP3    H257482   6.350   1.747   0.402  0.5597  1.3749  2.9378
12023TIP3   OH257483   0.549   6.295  13.223 -0.2507 -0.1934 -0.1066
12023TIP3    H157484   0.635   6.267  13.253 -0.3740  0.3606  0.8024
12023TIP3    H257485   0.556   6.390  13.214 -1.0653  0.0003  1.0598
12024TIP3   OH257486   2.567   6.605   2.098  0.3204  0.6160  0.3180
12024TIP3    H157487   2.573   6.665   2.173 -0.2931  0.2690  0.6492
12024TIP3    H257488   2.574   6.518   2.136 -0.6055  0.4144  0.0388
12025TIP3   OH257489   4.529   6.786  11.227  0.2690 -0.6509  0.2467
12025TIP3    H157490   4.496   6.851  11.165 -0.4563 -2.8457 -1.8352
12025TIP3    H257491   4.613   6.759  11.191  0.2202 -1.3647  0.6485
12026TIP3   OH257492   0.957   5.053   5.176 -0.1613  0.1494  0.0273
12026TIP3    H157493   0.977   5.140   5.209 -1.0161  1.3399 -2.3593
12026TIP3    H257494   0.884   5.023   5.231 -1.5959  2.0640 -0.7207
12027TIP3   OH257495   1.732   0.291  16.638  0.2758 -0.2977 -0.6042
12027TIP3    H157496   1.796   0.289  16.567 -0.1297 -2.1483 -0.9869
12027TIP3    H257497   1.675   0.216  16.620 -0.0340 -0.6132  1.4962
12028TIP3   OH257498   3.229   0.791   3.189 -0.2144  0.3771  0.6126
12028TIP3    H157499   3.284   0.852   3.237 -0.4850  0.0753  1.3288
12028TIP3    H257500   3.257   0.704   3.219  0.9304  0.0709 -1.2086
12029TIP3   OH257501   3.736   2.105   5.016 -0.0095 -0.1454  0.8370
12029TIP3    H157502   3.662   2.046   5.000 -1.2657  1.9839 -1.9431
12029TIP3    H257503   3.698   2.193   5.017  2.2376  0.9065  1.2120
12030TIP3   OH257504   3.691   3.254  15.933  0.6861  0.0976  0.5079
12030TIP3    H157505   3.727   3.166  15.940  0.5660  0.0800  0.9140
12030TIP3    H257506   3.724   3.287  15.849  0.1951 -0.5784  0.0408
12031TIP3   OH257507   3.516   3.822   2.580 -0.3643 -0.3847 -0.1388
12031TIP3    H157508   3.514   3.912   2.546 -1.4866 -0.5551 -0.5632
12031TIP3    H257509   3.609   3.803   2.590 -0.0931  0.6735 -0.4632
12032TIP3   OH257510   1.747   3.432  11.327 -0.1066  0.4223  0.9292
12032TIP3    H157511   1.670   3.426  11.270 -1.0081  0.2143  2.1244
12032TIP3    H257512   1.808   3.368  11.291 -1.2224 -0.7276  1.0120
12033TIP3   OH257513   6.373   1.961   5.046  0.0811 -0.6908 -0.2773
12033TIP3    H157514   6.321   1.983   4.968  1.4657 -2.4348 -1.7822
12033TIP3    H257515   6.456   2.007   5.033  0.7161 -1.8383 -0.4066
12034TIP3   OH257516   5.873   2.675   1.546 -0.5604  0.0861 -0.2305
12034TIP3    H157517   5.896   2.586   1.570  0.6936  0.0430 -1.4123
12034TIP3    H257518   5.863   2.721   1.629  2.0165 -0.4112  0.4577
12035TIP3   OH257519   5.435   6.489   1.226 -0.0935  0.2478 -0.2837
12035TIP3    H157520   5.388   6.549   1.284  0.6285  0.5185  0.0428
12035TIP3    H257521   5.498   6.546   1.181  0.3716 -0.2073 -0.2167
12036TIP3   OH257522   4.202   5.440   2.861 -0.2103 -0.5522  0.2906
12036TIP3    H157523   4.154   5.515   2.827  0.0385 -0.7352 -0.4951
12036TIP3    H257524   4.272   5.478   2.914  1.2835 -0.0740 -1.8528
12037TIP3   OH257525   5.953   2.508  13.332 -0.5032 -0.1561 -0.0221
12037TIP3    H157526   5.967   2.573  13.400 -1.3427  0.5476 -0.5081
12037TIP3    H257527   5.873   2.463  13.357 -0.3201 -0.5161 -0.0714
12038TIP3   OH257528   1.559   3.937   4.186  0.0380 -0.3506 -0.2477
12038TIP3    H157529   1.565   3.994   4.262  1.0221 -0.7522 -0.0166
12038TIP3    H257530   1.469   3.903   4.188  0.1177 -0.5056  0.8364
12039TIP3   OH257531   6.777   2.887  15.885  0.3224 -0.3571 -0.6943
12039TIP3    H157532   6.790   2.891  15.980 -0.6498  0.9848 -0.5791
12039TIP3    H257533   6.787   2.794  15.863  0.9773 -0.6301  0.6450
12040TIP3   OH257534   1.666   3.644  11.085  0.8949  0.6465  0.0616
12040TIP3    H157535   1.578   3.659  11.050  1.3817  0.7770 -1.1548
12040TIP3    H257536   1.659   3.665  11.179 -0.7965 -1.0857  0.3735
12041TIP3   OH257537   2.875   0.622  14.269  0.1441  0.1753  0.1470
12041TIP3    H157538   2.793   0.670  14.277 -0.5239 -0.6757 -1.1898
12041TIP3    H257539   2.940   0.678  14.311 -0.7499  1.8948 -0.6490
12042TIP3   OH257540   0.540   2.299  10.434 -0.2226 -0.5165 -0.2174
12042TIP3    H157541   0.588   2.231  10.387 -0.2192  1.3153 -3.1104
12042TIP3    H257542   0.453   2.298  10.395 -0.9629 -0.3476  1.3475
12043TIP3   OH257543   4.652   4.886   5.561 -0.3107 -0.4071  0.4156
12043TIP3    H157544   4.723   4.904   5.499 -1.5038  0.0234 -0.8671
12043TIP3    H257545   4.632   4.793   5.548 -2.1137  0.1729 -1.6281
12044TIP3   OH257546   1.684   5.578  15.573  0.1376  0.0816  0.0864
12044TIP3    H157547   1.686   5.605  15.666 -1.7588  2.6794 -0.5002
12044TIP3    H257548   1.763   5.618  15.536  0.5988 -0.4747  0.4484
12045TIP3   OH257549   4.358   1.052  14.069 -0.0510 -0.1153  0.2085
12045TIP3    H157550   4.418   1.064  14.142 -0.7934  0.6629  0.7117
12045TIP3    H257551   4.364   0.959  14.048 -0.0371 -0.4167  1.4648
12046TIP3   OH257552   0.166   3.736  11.563  0.4897 -0.1500 -0.3774
12046TIP3    H157553   0.149   3.819  11.607  3.0605  0.0104  0.4328
12046TIP3    H257554   0.138   3.751  11.472 -0.9401  0.8963  0.1944
12047TIP3   OH257555   3.896   1.047  11.613  0.0182 -0.6634  0.0786
12047TIP3    H157556   3.800   1.056  11.613 -0.0051 -0.7808  1.1057
12047TIP3    H257557   3.925   1.106  11.683  1.0030  2.2310 -2.5460
12048TIP3   OH257558   4.357   0.738  15.628 -0.1963 -0.0300 -1.2198
12048TIP3    H157559   4.443   0.743  15.669 -0.3063  1.3741 -1.1066
12048TIP3    H257560   4.366   0.670  15.561  0.0184 -2.2967  0.9541
12049TIP3   OH257561   6.671   3.654   2.947  0.6867 -0.1816 -0.5408
12049TIP3    H157562   6.718   3.573   2.967  0.8650 -0.1706 -0.8968
12049TIP3    H257563   6.684   3.710   3.024 -0.6686 -1.0332  0.3332
12050TIP3   OH257564   1.720   4.995   4.151  0.9134  0.5053  0.6127
12050TIP3    H157565   1.755   4.932   4.215  0.8111 -0.4213 -0.2158
12050TIP3    H257566   1.796   5.047   4.126  0.8001  1.4116  2.0580
12051TIP3   OH257567   4.344   3.944   6.639  0.5556  0.5571 -0.1890
12051TIP3    H157568   4.259   3.983   6.661  0.5917  0.9390 -0.6920
12051TIP3    H257569   4.342   3.857   6.678 -0.1841  0.4565 -0.4313
12052TIP3   OH257570   6.693   4.087  14.606 -0.2940 -0.0592 -0.3881
12052TIP3    H157571   6.612   4.127  14.638 -0.3397 -0.0532 -0.5092
12052TIP3    H257572   6.663   4.011  14.556 -0.2118 -0.1934 -0.2316
12053TIP3   OH257573   0.483   1.286  16.168  0.4040  0.0717  0.1984
12053TIP3    H157574   0.499   1.327  16.252 -0.6115 -1.0869  0.9927
12053TIP3    H257575   0.560   1.308  16.115  0.5081  1.7966  1.0102
12054TIP3   OH257576   5.321   1.697  12.603 -0.3705  0.2473  0.5098
12054TIP3    H157577   5.286   1.784  12.583  0.1299  0.0409 -1.4948
12054TIP3    H257578   5.252   1.654  12.654 -1.0599  1.4524  0.6176
12055TIP3   OH257579   1.085   5.498  12.224  1.1368  0.6840 -0.1469
12055TIP3    H157580   1.169   5.483  12.268  0.7881  0.7200  0.5357
12055TIP3    H257581   1.058   5.411  12.195  1.0227  0.5537  0.3424
12056TIP3   OH257582   3.859   4.961  16.832 -0.2481 -0.2007  0.2765
12056TIP3    H157583   3.936   4.959  16.889  0.0230  0.9262 -0.0443
12056TIP3    H257584   3.867   4.882  16.779  0.8057  0.0112  0.0948
12057TIP3   OH257585   4.750   3.924  12.960 -0.2307 -0.3724  0.5811
12057TIP3    H157586   4.742   3.836  12.923  1.4505 -0.2171 -0.2561
12057TIP3    H257587   4.799   3.974  12.894 -0.9760  1.1571  1.1224
12058TIP3   OH257588   4.205   5.165   1.889 -0.7234 -0.5188  0.1876
12058TIP3    H157589   4.293   5.145   1.856 -1.5624 -0.0336 -2.6506
12058TIP3    H257590   4.156   5.084   1.880 -0.5250 -0.9011  2.1443
12059TIP3   OH257591   5.000   0.444  14.234 -0.5684 -0.2770  0.0494
12059TIP3    H157592   4.959   0.519  14.278 -0.9460 -0.0088 -0.7419
12059TIP3    H257593   5.080   0.480  14.196 -0.6585 -0.3153 -0.1763
12060TIP3   OH257594   1.950   4.351  11.127  0.1721 -0.0108 -0.0704
12060TIP3    H157595   2.037   4.390  11.137  0.2450  0.0395 -0.8808
12060TIP3    H257596   1.954   4.270  11.178  0.1333  0.8435  1.3373
12061TIP3   OH257597   2.892   3.214   2.953  0.1951 -0.0357 -0.5435
12061TIP3    H157598   2.800   3.230   2.934 -0.2557  0.8392  1.9782
12061TIP3    H257599   2.907   3.123   2.925 -1.9869 -0.8581  0.6914
12062TIP3   OH257600   4.361   0.447  11.857  0.1366  0.2493 -0.0818
12062TIP3    H157601   4.351   0.506  11.932 -0.3810  0.4224 -0.2840
12062TIP3    H257602   4.349   0.360  11.893 -2.1066  0.4121 -0.2618
12063TIP3   OH257603   5.856   1.605   1.185  0.3695 -0.1557 -0.1854
12063TIP3    H157604   5.934   1.558   1.215 -0.3951 -0.4034  1.4990
12063TIP3    H257605   5.783   1.550   1.213 -0.4767  1.0747  0.1026
12064TIP3   OH257606   1.226   2.405   4.479 -0.2658  0.1937  0.3915
12064TIP3    H157607   1.143   2.385   4.523  0.4248  0.9174  2.0972
12064TIP3    H257608   1.208   2.388   4.386 -2.6216  1.2777  0.5672
12065TIP3   OH257609   2.579   1.585  16.552  0.1586 -0.9684 -0.2057
12065TIP3    H157610   2.536   1.547  16.476 -0.6065 -2.5497  0.9626
12065TIP3    H257611   2.507   1.603  16.613  0.9677 -2.1955  1.1631
12066TIP3   OH257612   1.034   1.433  15.525  0.2059 -0.5416  0.4134
12066TIP3    H157613   1.021   1.491  15.600 -2.4646 -0.9545  0.3417
12066TIP3    H257614   0.967   1.366  15.534  1.6835 -2.2878 -0.8127
12067TIP3   OH257615   5.803   5.106   2.096 -0.5934 -0.6630 -0.0378
12067TIP3    H157616   5.873   5.041   2.089  1.6889  0.8788  4.3257
12067TIP3    H257617   5.831   5.178   2.039  1.1044 -0.3919  1.0621
12068TIP3   OH257618   4.049   1.838   5.444  0.0789  0.4631  0.1197
12068TIP3    H157619   4.012   1.916   5.484 -0.1535  1.0587 -1.2036
12068TIP3    H257620   4.114   1.807   5.507  0.0165  1.5812  0.7598
12069TIP3   OH257621   2.342   2.408   1.652  0.1875  0.0741 -0.3914
12069TIP3    H157622   2.343   2.331   1.710  0.5287  0.0772 -0.3889
12069TIP3    H257623   2.265   2.395   1.596 -0.5042  0.3881  0.4795
12070TIP3   OH257624   4.230   1.951  13.913  1.0396  0.5763  0.0103
12070TIP3    H157625   4.211   1.923  13.823  1.9547  0.7798 -0.2567
12070TIP3    H257626   4.218   2.046  13.911  0.1735  0.4835  0.3413
12071TIP3   OH257627   2.963   4.370  15.861  0.3969  0.8663  0.2551
12071TIP3    H157628   2.999   4.428  15.794  2.6991  0.7174  1.2750
12071TIP3    H257629   2.888   4.328  15.819  0.6772  2.0982 -1.5945
12072TIP3   OH257630   6.387   4.273   0.352  0.1504  0.1083 -0.2197
12072TIP3    H157631   6.457   4.294   0.414  1.0367 -0.9989 -0.7923
12072TIP3    H257632   6.434   4.242   0.274 -0.9357  1.2644 -1.3760
12073TIP3   OH257633   1.335   5.496   2.306 -0.1598  1.2239  0.4231
12073TIP3    H157634   1.354   5.590   2.304  4.2749  0.5699  0.8730
12073TIP3    H257635   1.344   5.468   2.215  0.2574  0.9972  0.5328
12074TIP3   OH257636   3.032   2.593   5.177 -0.3785 -0.2241 -0.1478
12074TIP3    H157637   3.059   2.532   5.109  0.1144 -0.1702 -0.0058
12074TIP3    H257638   2.956   2.639   5.139 -1.7921 -2.0214  0.3498
12075TIP3   OH257639   4.977   4.606   4.825  0.1470  0.6398  0.4002
12075TIP3    H157640   5.036   4.628   4.897 -1.5667  2.3403  1.3778
12075TIP3    H257641   4.924   4.533   4.858 -1.3255  2.0715  1.3344
12076TIP3   OH257642   0.879   2.403   5.950  0.1592 -0.3603  0.1993
12076TIP3    H157643   0.935   2.340   5.996 -1.2582 -0.5919  1.7068
12076TIP3    H257644   0.940   2.465   5.911  1.5035 -1.2170  0.8532
12077TIP3   OH257645   0.465   1.487   0.327 -0.3488 -0.2696  0.1475
12077TIP3    H157646   0.520   1.540   0.384 -1.2808  0.8106  0.0884
12077TIP3    H257647   0.407   1.439   0.388  0.4661 -1.2143  0.1992
12078TIP3   OH257648   4.856   5.289  11.271 -0.4771 -0.5270 -0.0770
12078TIP3    H157649   4.794   5.316  11.204  0.7236  3.4006  0.1385
12078TIP3    H257650   4.941   5.288  11.227  0.3597  2.2986  1.2433
12079TIP3   OH257651   1.883   3.709   2.498 -0.1796  0.2706 -0.1223
12079TIP3    H157652   1.873   3.716   2.403  1.6548 -3.5204 -0.8125
12079TIP3    H257653   1.812   3.650   2.525  1.1001 -1.1721  0.2399
12080TIP3   OH257654   1.952   0.355   4.239  0.1321  0.5330  0.2950
12080TIP3    H157655   2.008   0.336   4.163  1.4550  1.3967  1.0174
12080TIP3    H257656   1.932   0.269   4.275 -1.2453  0.0348 -1.4917
12081TIP3   OH257657   1.064   4.736   2.168 -0.8277  0.0364  0.0961
12081TIP3    H157658   0.981   4.770   2.136 -1.0961 -1.3551 -0.7544
12081TIP3    H257659   1.125   4.748   2.096 -0.8261 -0.8736 -0.0659
12082TIP3   OH257660   1.668   5.788   3.638  0.2604  0.3614  0.5369
12082TIP3    H157661   1.688   5.739   3.558 -0.0603  0.6744  0.2579
12082TIP3    H257662   1.737   5.763   3.700 -0.1011 -0.7104  0.5191
12083TIP3   OH257663   6.547   4.791   2.256  0.0796 -0.1648 -0.2771
12083TIP3    H157664   6.485   4.837   2.199  0.0437  1.1116  0.7450
12083TIP3    H257665   6.493   4.750   2.323  0.1772 -1.1206 -0.7566
12084TIP3   OH257666   6.520   1.070  16.646 -0.3103 -0.3775  0.0660
12084TIP3    H157667   6.459   1.058  16.719 -0.5922  0.4988 -0.0208
12084TIP3    H257668   6.493   1.005  16.581 -1.3825  0.2435 -0.1271
12085TIP3   OH257669   1.142   5.110   4.019 -0.8025 -0.1265  0.0278
12085TIP3    H157670   1.184   5.153   4.094 -0.5264  0.0317 -0.2176
12085TIP3    H257671   1.049   5.115   4.038 -0.8705  1.8784 -0.6831
12086TIP3   OH257672   5.702   2.908  14.779  0.1260  0.7224  0.1276
12086TIP3    H157673   5.696   3.000  14.806  0.1348  0.7179  0.1443
12086TIP3    H257674   5.722   2.860  14.859 -1.6801  0.4775  0.4826
12087TIP3   OH257675   0.301   3.109  12.033  0.3601 -0.3744  0.2884
12087TIP3    H157676   0.257   3.144  12.111 -0.5410 -1.5764  0.3612
12087TIP3    H257677   0.394   3.121  12.051  0.1218  1.2159  0.6371
12088TIP3   OH257678   0.882   6.815   4.485  0.1594 -0.0741 -0.1500
12088TIP3    H157679   0.822   6.761   4.433 -0.2962  0.6599 -0.3899
12088TIP3    H257680   0.935   6.751   4.532  0.6734 -0.7531 -1.6035
12089TIP3   OH257681   4.576   5.449   5.882  0.0971  0.1693 -0.5912
12089TIP3    H157682   4.561   5.365   5.925 -0.8740  0.3838 -0.4754
12089TIP3    H257683   4.583   5.512   5.954 -0.2154  0.3381 -0.7055
12090TIP3   OH257684   1.632   0.988   1.548 -0.1597 -0.0984  0.2514
12090TIP3    H157685   1.581   1.030   1.617 -1.4488  0.9058 -1.2545
12090TIP3    H257686   1.648   1.057   1.484  1.2848 -0.9203 -0.3260
12091TIP3   OH257687   0.284   4.596  10.372 -0.1631 -0.0873 -0.3214
12091TIP3    H157688   0.249   4.633  10.290  2.7627  2.1926 -0.6969
12091TIP3    H257689   0.282   4.502  10.358 -3.2171  0.0209 -1.4225
12092TIP3   OH257690   1.558   4.797  15.362 -0.3487 -0.0673  0.0612
12092TIP3    H157691   1.642   4.830  15.330 -1.0205  1.3723 -0.2987
12092TIP3    H257692   1.578   4.710  15.397  1.1947  0.0604 -0.4394
12093TIP3   OH257693   3.575   2.276   3.756  0.5265 -0.1181 -0.4202
12093TIP3    H157694   3.578   2.206   3.821  0.0342 -0.0608 -0.3322
12093TIP3    H257695   3.599   2.355   3.805  1.1754 -0.2305 -0.5399
12094TIP3   OH257696   0.561   3.655   0.058 -0.4724  0.1930  0.0166
12094TIP3    H157697   0.577   3.744   0.027  0.2566 -0.0595 -0.3448
12094TIP3    H257698   0.644   3.627   0.096 -1.2776  0.4364  2.1233
12095TIP3   OH257699   2.428   6.553   1.572  0.6779  0.2217  0.1678
12095TIP3    H157700   2.422   6.462   1.544 -0.5022  0.6393 -1.0419
12095TIP3    H257701   2.470   6.549   1.658  2.2030 -1.3066 -0.6029
12096TIP3   OH257702   6.440   5.747   3.440  0.3673  0.6333 -0.3352
12096TIP3    H157703   6.400   5.834   3.451  0.4171  0.7118 -0.7843
12096TIP3    H257704   6.517   5.750   3.499 -0.9416  0.0395  1.4959
12097TIP3   OH257705   3.181   4.349   2.224 -0.0204  0.0695  0.3249
12097TIP3    H157706   3.218   4.437   2.235 -1.8378  0.7983  1.1194
12097TIP3    H257707   3.189   4.332   2.130  1.1069  0.7181  0.2811
12098TIP3   OH257708   5.203   5.528   0.315 -0.0038 -0.7466 -0.9816
12098TIP3    H157709   5.187   5.455   0.375  0.5814  0.6446  0.9603
12098TIP3    H257710   5.121   5.536   0.266 -1.9594  0.1973  2.0858
12099TIP3   OH257711   6.571   4.502   0.111  0.1324 -0.0651 -0.5221
12099TIP3    H157712   6.660   4.533   0.125  0.3042 -1.2067  1.1662
12099TIP3    H257713   6.582   4.412   0.078 -0.3708 -0.4193  0.2368
12100TIP3   OH257714   4.364   1.311   0.712 -0.4740 -0.4733  0.5998
12100TIP3    H157715   4.443   1.328   0.661 -1.4698  0.5607 -0.6686
12100TIP3    H257716   4.313   1.251   0.658 -1.7793  1.0388  0.0663
12101TIP3   OH257717   6.465   5.381  16.904 -0.0489  0.1104 -0.2325
12101TIP3    H157718   6.437   5.424  16.824 -0.0724  0.1834 -0.1842
12101TIP3    H257719   6.417   5.298  16.904  1.5344 -0.8614 -1.3742
12102TIP3   OH257720   2.465   5.040   6.706 -0.0648  0.2015 -0.1370
12102TIP3    H157721   2.375   5.073   6.705 -0.1519  0.2368  2.7032
12102TIP3    H257722   2.466   4.973   6.774  2.3451  1.0902  0.8164
12103TIP3   OH257723   1.809   5.056  16.194 -0.1084 -0.2724  0.6511
12103TIP3    H157724   1.877   5.028  16.255 -0.5894 -0.6357  1.0178
12103TIP3    H257725   1.854   5.120  16.137  0.8642 -1.3898  0.1080
12104TIP3   OH257726   3.941   6.585   4.789  0.5860  0.0740  0.3873
12104TIP3    H157727   3.858   6.619   4.758  0.5156 -1.6059 -1.4776
12104TIP3    H257728   3.970   6.648   4.854 -1.5523  1.3313  0.2101
12105TIP3   OH257729   1.693   1.194   1.310 -0.0380  0.5705  0.2074
12105TIP3    H157730   1.673   1.260   1.244 -1.6598 -0.8840 -0.8684
12105TIP3    H257731   1.623   1.203   1.375 -0.3087 -0.1059  0.0193
12106TIP3   OH257732   6.097   5.837  11.829 -0.0801  0.7212 -0.6648
12106TIP3    H157733   6.012   5.797  11.809 -0.4464  2.0628 -1.9329
12106TIP3    H257734   6.088   5.868  11.918 -0.1807 -0.9517 -0.0446
12107TIP3   OH257735   6.126   2.614  14.071  0.4191 -0.2675  0.0880
12107TIP3    H157736   6.210   2.568  14.080  0.5007 -0.2664 -0.6539
12107TIP3    H257737   6.144   2.703  14.101  1.2397  0.3293 -2.0189
12108TIP3   OH257738   0.798   4.201  13.348  0.7155 -0.2484 -0.0020
12108TIP3    H157739   0.782   4.295  13.350  0.0943 -0.3636  0.8013
12108TIP3    H257740   0.830   4.184  13.260  1.6707  0.8502  0.1135
12109TIP3   OH257741   1.407   3.949  13.010 -0.0200 -0.4796  0.2296
12109TIP3    H157742   1.426   4.000  12.932 -3.3724 -1.1335 -1.1876
12109TIP3    H257743   1.338   3.999  13.055  0.9417 -0.7583  2.1050
12110TIP3   OH257744   3.633   4.203   4.138 -0.1080  0.2498  0.1733
12110TIP3    H157745   3.558   4.145   4.153 -1.5234  2.2141  1.1291
12110TIP3    H257746   3.594   4.286   4.110  1.6552  1.4726  1.1489
12111TIP3   OH257747   5.339   3.958  15.876  0.1230 -0.5276 -0.1449
12111TIP3    H157748   5.420   3.911  15.896  0.1352 -0.4621 -0.0467
12111TIP3    H257749   5.293   3.899  15.816  1.2621  0.4086 -2.0330
12112TIP3   OH257750   3.474   4.740  11.127 -0.3825 -0.2986  0.5578
12112TIP3    H157751   3.492   4.715  11.036  0.5055 -1.5865  1.0547
12112TIP3    H257752   3.560   4.751  11.166 -0.7443  2.3774  0.7329
12113TIP3   OH257753   1.111   1.070  12.799  0.2656 -0.3002  0.5985
12113TIP3    H157754   1.200   1.059  12.765 -0.4539 -1.2223 -1.1180
12113TIP3    H257755   1.105   1.163  12.819  1.3843 -0.0782  0.0259
12114TIP3   OH257756   4.061   5.559  14.661 -0.0218 -0.0453 -0.1771
12114TIP3    H157757   4.139   5.612  14.648  0.4074 -0.3821  0.8727
12114TIP3    H257758   4.018   5.598  14.737 -0.7622  0.0014 -0.6091
12115TIP3   OH257759   6.573   1.714  16.759 -0.1893 -0.0613  0.4954
12115TIP3    H157760   6.639   1.705  16.690 -1.7517  1.1190 -1.2824
12115TIP3    H257761   6.557   1.625  16.789 -1.4439 -1.0954 -2.7383
12116TIP3   OH257762   3.519   0.537  15.222  0.5305  0.3336 -0.1279
12116TIP3    H157763   3.502   0.466  15.161 -0.1642  0.7516 -0.4350
12116TIP3    H257764   3.458   0.606  15.196  1.6642  1.3153 -0.2700
12117TIP3   OH257765   6.124   1.573  11.487 -0.4755  0.5942 -0.0924
12117TIP3    H157766   6.175   1.637  11.536 -0.5377 -0.9929  2.1929
12117TIP3    H257767   6.033   1.602  11.496 -0.2777  2.0904 -2.1405
12118TIP3   OH257768   0.542   1.105   2.553  0.3616  0.1700 -0.0553
12118TIP3    H157769   0.544   1.043   2.626 -0.7216  2.2945  1.9292
12118TIP3    H257770   0.472   1.074   2.497 -0.6353 -0.0837  1.2674
12119TIP3   OH257771   4.111   2.857  12.567  0.1085 -0.5186  0.2310
12119TIP3    H157772   4.110   2.928  12.502 -1.9401 -2.8548 -2.5408
12119TIP3    H257773   4.189   2.807  12.545  0.9305  0.1795  1.4541
12120TIP3   OH257774   2.815   1.189   3.267  0.1136  0.1300  0.0267
12120TIP3    H157775   2.890   1.145   3.227  0.4815 -0.6011  1.4399
12120TIP3    H257776   2.779   1.123   3.327 -0.4885  1.1274  0.7780
12121TIP3   OH257777   1.549   2.603   3.373  0.1988 -0.6271  0.0267
12121TIP3    H157778   1.595   2.521   3.353 -0.9863 -1.4600  0.5727
12121TIP3    H257779   1.614   2.671   3.359  0.8245 -1.5412 -1.8137
12122TIP3   OH257780   1.519   0.107   4.046  0.4382 -0.3070 -0.3941
12122TIP3    H157781   1.510   0.017   4.015  0.8509 -0.9931  1.3382
12122TIP3    H257782   1.607   0.133   4.018 -1.0636  1.1408 -4.5174
12123TIP3   OH257783   3.494   6.433   1.329  0.1226 -0.0196 -0.1406
12123TIP3    H157784   3.551   6.382   1.272 -2.1571 -1.1909 -1.5163
12123TIP3    H257785   3.514   6.524   1.307  0.8543 -0.4163 -1.2112
12124TIP3   OH257786   3.001   0.499  13.959 -0.0021  0.2453  0.8231
12124TIP3    H157787   3.036   0.508  14.048  2.0966 -2.8229  0.4917
12124TIP3    H257788   2.923   0.444  13.969 -0.1394  0.4446  0.8399
12125TIP3   OH257789   6.710   0.641   1.493  0.1169 -0.3703 -0.1852
12125TIP3    H157790   6.652   0.637   1.417 -0.8629 -1.1244  0.5758
12125TIP3    H257791   6.714   0.551   1.525  0.3114 -0.0214  0.8054
12126TIP3   OH257792   4.199   6.670  11.371 -0.0908  0.0556  0.0259
12126TIP3    H157793   4.242   6.754  11.392 -1.4933  0.8881 -0.2720
12126TIP3    H257794   4.264   6.622  11.321  0.0683  1.8041 -1.5702
12127TIP3   OH257795   0.020   2.925   5.839 -0.0781  0.1033 -0.5580
12127TIP3    H157796   0.075   2.984   5.890 -1.0735  0.9369 -0.4170
12127TIP3    H257797   0.068   2.910   5.758  1.4669 -1.1151  0.5198
12128TIP3   OH257798   4.434   0.016  13.491  0.0629 -0.2426  0.1585
12128TIP3    H157799   4.467  -0.068  13.523 -1.0758 -1.3933 -1.4922
12128TIP3    H257800   4.510   0.073  13.491  0.9495 -1.3728  1.0023
12129TIP3   OH257801   1.501   6.308  13.280 -0.0285 -0.0982 -0.2061
12129TIP3    H157802   1.554   6.385  13.301 -2.2024  0.9643  2.0019
12129TIP3    H257803   1.455   6.331  13.199  0.2088  0.4464 -0.1897
12130TIP3   OH257804   6.655   1.736   4.870  0.1628  0.0808 -0.0542
12130TIP3    H157805   6.720   1.786   4.820  0.7890 -0.5866  0.0833
12130TIP3    H257806   6.629   1.795   4.941 -0.0083  0.6652 -0.5939
12131TIP3   OH257807   3.710   3.496   2.392 -0.1857 -0.3747  0.4653
12131TIP3    H157808   3.742   3.413   2.357 -1.0486  0.2837 -2.2035
12131TIP3    H257809   3.637   3.471   2.449 -0.0522 -1.4736  0.1891
12132TIP3   OH257810   1.111   6.426   5.848 -0.1628 -0.1217  0.4406
12132TIP3    H157811   1.196   6.468   5.844 -0.6845  1.1007  1.4909
12132TIP3    H257812   1.080   6.427   5.757 -0.3325  2.2149  0.4643
12133TIP3   OH257813   4.083   6.138  15.250 -0.1710  0.0409  0.3970
12133TIP3    H157814   4.131   6.197  15.309  0.7185 -2.0567  1.8827
12133TIP3    H257815   4.023   6.091  15.308 -2.7777  1.2533 -1.1455
12134TIP3   OH257816   0.158   2.435   4.525 -0.3357  0.5932 -0.4287
12134TIP3    H157817   0.104   2.362   4.493  1.1858 -1.2368  0.9292
12134TIP3    H257818   0.094   2.502   4.551 -1.7821 -0.0653 -2.0493
12135TIP3   OH257819   6.142   1.790  12.613  0.6543  0.5456 -0.1296
12135TIP3    H157820   6.127   1.737  12.691  0.9490 -0.1157 -0.5052
12135TIP3    H257821   6.117   1.732  12.540 -1.5357  1.8107 -0.4787
12136TIP3   OH257822   5.966   0.268   5.568 -0.1186  0.5767 -0.0588
12136TIP3    H157823   5.986   0.265   5.662 -1.0731 -1.1908  0.1271
12136TIP3    H257824   6.044   0.232   5.525 -0.7300 -1.2482  0.2847
12137TIP3   OH257825   2.483   5.925  17.028  0.3023  0.1148  0.2784
12137TIP3    H157826   2.459   6.012  16.998 -1.7505 -0.3635  0.4240
12137TIP3    H257827   2.496   5.935  17.123  0.5326  0.3500  0.2212
12138TIP3   OH257828   5.635   1.881  11.916  0.2231 -0.6821 -0.0641
12138TIP3    H157829   5.541   1.893  11.928  0.4435  2.0726 -0.3998
12138TIP3    H257830   5.669   1.867  12.004 -0.1981  1.5405  0.5283
12139TIP3   OH257831   2.959   5.957   1.727 -0.6681 -0.1356 -0.3855
12139TIP3    H157832   3.033   6.010   1.755 -2.4137  1.6728  1.1065
12139TIP3    H257833   2.954   5.887   1.791 -0.2252 -0.3006 -0.5281
12140TIP3   OH257834   4.869   6.312  12.753 -0.1331  0.6678  0.3771
12140TIP3    H157835   4.924   6.236  12.771 -0.8968 -0.5402 -1.9942
12140TIP3    H257836   4.931   6.384  12.741  1.0976 -0.6925 -2.4234
12141TIP3   OH257837   5.121   1.533  10.947  0.6004 -0.5409 -0.2454
12141TIP3    H157838   5.202   1.581  10.929 -1.0678  1.9071 -1.7817
12141TIP3    H257839   5.087   1.510  10.861 -0.4246 -1.4127  0.3612
12142TIP3   OH257840   3.206   2.719   0.129 -0.2834  0.0590  0.5200
12142TIP3    H157841   3.181   2.715   0.037 -0.1953 -0.7350  0.5178
12142TIP3    H257842   3.299   2.738   0.128 -0.6492  2.0602  0.5068
12143TIP3   OH257843   5.353   3.949  14.225  0.2985  0.1335 -0.1038
12143TIP3    H157844   5.418   3.968  14.158 -0.2822  0.2668 -0.6302
12143TIP3    H257845   5.273   3.930  14.177 -0.0963  0.1140  0.5472
12144TIP3   OH257846   4.627   6.725  12.805 -0.1124 -0.5198 -0.5277
12144TIP3    H157847   4.607   6.642  12.847 -0.2708 -0.3556 -0.2817
12144TIP3    H257848   4.686   6.702  12.733 -0.3015 -0.8649 -0.5711
12145TIP3   OH257849   0.824   2.477  16.129 -0.2447 -0.3856  0.1814
12145TIP3    H157850   0.759   2.470  16.199 -0.9114  1.2021 -0.2480
12145TIP3    H257851   0.798   2.410  16.066 -0.8784 -0.4357  0.4878
12146TIP3   OH257852   5.770   3.323  17.027  0.2217  0.5889  0.4377
12146TIP3    H157853   5.861   3.292  17.029  0.5222  1.4453  1.8679
12146TIP3    H257854   5.723   3.262  17.085  0.3146  1.3286  1.3053
12147TIP3   OH257855   5.928   1.019   5.632  0.4717  0.2414  0.0571
12147TIP3    H157856   5.917   0.984   5.721 -0.0026  0.6746  0.1747
12147TIP3    H257857   6.014   0.986   5.604  0.3224 -0.4741  0.4060
12148TIP3   OH257858   0.675   5.717   0.591  0.4181  0.3823  0.2444
12148TIP3    H157859   0.676   5.812   0.593 -0.4775  0.5089 -2.1483
12148TIP3    H257860   0.583   5.693   0.600  0.6208 -0.2783  0.7152
12149TIP3   OH257861   6.391   3.513   2.971 -0.3277  0.2062  0.0301
12149TIP3    H157862   6.453   3.585   2.983 -0.8386  0.5086  0.9651
12149TIP3    H257863   6.421   3.447   3.034 -0.3401 -0.0712 -0.2561
12150TIP3   OH257864   0.409   3.444   1.982  0.0899 -0.2465 -0.3527
12150TIP3    H157865   0.471   3.501   2.028 -0.4955 -0.3824  0.6084
12150TIP3    H257866   0.461   3.408   1.910  0.6678  0.9433 -0.5708
12151TIP3   OH257867   5.894   4.890  10.333  0.0936 -0.3149 -0.7068
12151TIP3    H157868   5.820   4.872  10.390 -0.4535  3.6826  0.1700
12151TIP3    H257869   5.970   4.858  10.381 -0.7699 -1.3789 -0.0231
12152TIP3   OH257870   6.655   6.345   3.543 -0.2895  0.6774 -0.2747
12152TIP3    H157871   6.722   6.364   3.478  0.6727 -0.2990  0.4032
12152TIP3    H257872   6.608   6.269   3.508  0.6622 -0.2721  0.4462
12153TIP3   OH257873   3.462   5.490  14.078 -0.1873  0.5188 -0.0327
12153TIP3    H157874   3.370   5.475  14.055  0.2960  0.3590 -2.0592
12153TIP3    H257875   3.490   5.559  14.018  1.5578 -0.9289 -0.9789
12154TIP3   OH257876   5.486   6.364   3.076  0.1841 -0.5104 -0.1501
12154TIP3    H157877   5.543   6.311   3.132  1.4180  0.2505 -0.6501
12154TIP3    H257878   5.398   6.348   3.110  0.8674 -0.2475  1.8893
12155TIP3   OH257879   6.373   5.478  14.444  0.0722  0.5383 -0.2621
12155TIP3    H157880   6.314   5.418  14.489  0.0902 -0.0675 -1.0314
12155TIP3    H257881   6.454   5.476  14.495 -0.5632  1.4039  0.8218
12156TIP3   OH257882   1.717   4.298  15.843 -0.0497  0.4131 -0.6249
12156TIP3    H157883   1.635   4.324  15.800 -0.3391  1.6017  0.5660
12156TIP3    H257884   1.702   4.318  15.936  2.1270  2.1720 -0.5663
12157TIP3   OH257885   2.993   1.974  15.475 -0.3780  0.0063 -0.3357
12157TIP3    H157886   2.910   1.998  15.434 -0.4394 -0.7713 -0.6837
12157TIP3    H257887   3.037   1.920  15.409 -0.7696 -1.8354  0.8693
12158TIP3   OH257888   5.554   4.092   1.579  0.4758 -0.2462 -0.6410
12158TIP3    H157889   5.480   4.050   1.621  0.1852 -0.1957 -1.0992
12158TIP3    H257890   5.554   4.182   1.613  1.0134 -0.5693  0.2280
12159TIP3   OH257891   5.672   3.934   1.377  0.0783  0.0682  0.1945
12159TIP3    H157892   5.607   3.972   1.437  0.5584  0.2489  0.6112
12159TIP3    H257893   5.749   3.918   1.432  0.3323 -0.2923 -0.2602
12160TIP3   OH257894   1.149   5.372  14.901 -0.4614 -0.2217 -0.3098
12160TIP3    H157895   1.176   5.363  14.810 -2.0192 -1.8246 -0.6591
12160TIP3    H257896   1.167   5.287  14.941  0.0188  0.3967  0.8379
12161TIP3   OH257897   3.979   4.886  11.226 -0.1016  0.0785  0.2861
12161TIP3    H157898   4.050   4.910  11.285  0.5508  1.2512 -0.9455
12161TIP3    H257899   4.022   4.847  11.150 -0.9352 -1.4689  0.5510
12162TIP3   OH257900   6.414   2.931  10.978 -0.6727 -0.1568  0.2856
12162TIP3    H157901   6.404   2.995  11.048  0.3350 -0.8788  1.1188
12162TIP3    H257902   6.324   2.905  10.957 -1.0352  0.7654  0.6422
12163TIP3   OH257903   5.278   1.582  11.414  0.0827  0.4754 -0.0787
12163TIP3    H157904   5.254   1.674  11.410 -0.4369  0.3219 -0.6317
12163TIP3    H257905   5.203   1.536  11.376  1.1586 -0.0398 -1.6472
12164TIP3   OH257906   3.517   0.853   3.156 -0.2118  0.0938 -0.3833
12164TIP3    H157907   3.439   0.897   3.122 -1.7486 -1.7781  0.4738
12164TIP3    H257908   3.553   0.805   3.082  0.5780  1.5165 -0.9511
12165TIP3   OH257909   6.352   3.905   3.358  1.0698  0.8249 -0.0373
12165TIP3    H157910   6.260   3.885   3.374  1.2626  0.5321  0.7547
12165TIP3    H257911   6.394   3.899   3.444  2.2041 -1.0670 -0.6533
12166TIP3   OH257912   2.287   3.750  15.874  0.3241  0.4206  0.1691
12166TIP3    H157913   2.337   3.786  15.947 -0.0416 -0.6754  1.0017
12166TIP3    H257914   2.204   3.797  15.876  0.4707  0.6796  0.1970
12167TIP3   OH257915   2.834   2.359  11.345 -0.2686 -0.1263  0.2734
12167TIP3    H157916   2.857   2.284  11.290  0.5435 -0.3005  0.8331
12167TIP3    H257917   2.901   2.360  11.413 -0.6757  0.6959  0.6734
12168TIP3   OH257918   2.127   0.495  10.250  0.2770 -0.2734  0.3945
12168TIP3    H157919   2.051   0.452  10.212  0.8725 -3.0050  2.0659
12168TIP3    H257920   2.107   0.589  10.244 -2.0931 -0.8069 -1.3923
12169TIP3   OH257921   0.338   3.164   2.806 -0.2068  0.3509 -0.3979
12169TIP3    H157922   0.322   3.126   2.892  0.6625 -1.0183 -0.8043
12169TIP3    H257923   0.266   3.133   2.751 -0.3368  0.5759 -0.3554
12170TIP3   OH257924   3.694   5.798   6.069  0.1538  0.2039  0.1100
12170TIP3    H157925   3.787   5.794   6.088  0.2653  1.0931 -0.1971
12170TIP3    H257926   3.651   5.784   6.153  0.5690  0.2984  0.3378
12171TIP3   OH257927   2.849   3.081   2.057 -0.1342 -0.3132 -0.3808
12171TIP3    H157928   2.768   3.063   2.105  0.9545  0.8139  2.0453
12171TIP3    H257929   2.854   3.177   2.054  1.4267 -0.3601  0.0991
12172TIP3   OH257930   0.022   4.586  12.548  0.1750  0.1820  0.4505
12172TIP3    H157931  -0.022   4.615  12.468  0.8622  0.5427  0.1991
12172TIP3    H257932   0.018   4.661  12.607 -1.0684 -0.3516  1.0846
12173TIP3   OH257933   6.023   4.976  14.601 -0.4075  0.4202 -0.2307
12173TIP3    H157934   5.988   5.065  14.604  0.2124  0.6794 -0.6614
12173TIP3    H257935   5.977   4.935  14.527 -3.9364 -1.0274  2.4440
12174TIP3   OH257936   1.940   6.714  15.552  0.4294 -0.6779 -0.0221
12174TIP3    H157937   1.946   6.810  15.549  1.2014 -0.7355 -0.5008
12174TIP3    H257938   1.916   6.689  15.463 -1.1588 -0.8524  0.4362
12175TIP3   OH257939   4.696   1.158   0.968  0.4980  0.2845  0.3141
12175TIP3    H157940   4.781   1.180   1.005  1.2058 -1.4060 -0.2006
12175TIP3    H257941   4.716   1.102   0.893 -1.0485  0.4859 -0.3010
12176TIP3   OH257942   3.027   4.449   1.861  0.2018 -0.3886  0.0534
12176TIP3    H157943   3.072   4.516   1.912 -1.1454 -0.7123  1.7773
12176TIP3    H257944   3.096   4.403   1.814  1.7058 -0.8760  2.5884
12177TIP3   OH257945   4.945   4.403   4.223 -0.0287  0.1684 -0.8330
12177TIP3    H157946   5.036   4.430   4.222 -0.2770  1.2519  1.1775
12177TIP3    H257947   4.948   4.309   4.206  1.5220  0.0662 -0.1659
12178TIP3   OH257948   4.668   0.730   2.546 -0.7474  0.4752 -1.1248
12178TIP3    H157949   4.630   0.645   2.565 -0.9237  1.0125  1.2714
12178TIP3    H257950   4.737   0.712   2.482 -1.2569 -1.3453 -1.2149
12179TIP3   OH257951   3.048   0.860   6.058  0.2697 -0.3513  0.1702
12179TIP3    H157952   3.138   0.894   6.062 -0.2224  1.3088 -1.3788
12179TIP3    H257953   2.997   0.922   6.109 -0.3942  0.3627 -1.3018
12180TIP3   OH257954   3.802   6.307   0.351 -0.4913  0.1314 -0.8247
12180TIP3    H157955   3.882   6.330   0.305 -0.3268 -0.1348 -0.6734
12180TIP3    H257956   3.820   6.328   0.443  0.3964 -2.4197 -0.3438
12181TIP3   OH257957   5.341   4.146  16.395 -0.1166 -0.6824 -0.8175
12181TIP3    H157958   5.340   4.083  16.322  1.0562 -1.3430 -0.2939
12181TIP3    H257959   5.405   4.110  16.456  0.0772  0.6877 -0.1920
12182TIP3   OH257960   2.450   6.711   3.100 -0.4714  0.5037 -0.0994
12182TIP3    H157961   2.455   6.680   3.009 -2.8392  1.9637 -0.8171
12182TIP3    H257962   2.540   6.705   3.132 -0.0026 -2.6719 -1.5913
12183TIP3   OH257963   3.465   4.696  12.245 -0.0500  0.3592  0.5558
12183TIP3    H157964   3.517   4.717  12.168  0.5936 -0.1782  0.8319
12183TIP3    H257965   3.415   4.775  12.264 -0.8660  0.2320 -0.9133
12184TIP3   OH257966   4.058   3.975  11.622  0.4455  0.1200  0.0000
12184TIP3    H157967   4.009   4.020  11.553 -0.6880 -0.6524  0.2895
12184TIP3    H257968   4.121   3.920  11.575 -0.5769 -0.6932 -0.4496
12185TIP3   OH257969   3.199   6.112   2.444  0.2116  0.3116  0.2532
12185TIP3    H157970   3.253   6.132   2.367  1.4808 -1.6493  0.5535
12185TIP3    H257971   3.245   6.153   2.517 -1.8892  3.6681 -0.0905
12186TIP3   OH257972   1.963   2.776  16.897 -0.1113 -0.4124 -0.3667
12186TIP3    H157973   1.869   2.791  16.904 -0.2232 -1.1069 -0.3042
12186TIP3    H257974   1.975   2.685  16.924  0.4986 -0.5258 -0.9868
12187TIP3   OH257975   6.120   2.987  13.392  0.6283 -0.2598  0.5549
12187TIP3    H157976   6.068   2.945  13.461  1.1321 -0.8173  0.6006
12187TIP3    H257977   6.180   3.045  13.439 -0.1888  0.6713  0.4836
12188TIP3   OH257978   2.566   5.090  14.768 -0.3559 -0.5503  0.7443
12188TIP3    H157979   2.616   5.171  14.779 -0.0183 -0.3665 -1.5533
12188TIP3    H257980   2.476   5.115  14.786 -0.4668  0.7641 -1.3346
12189TIP3   OH257981   3.427   5.134  12.644  0.1624  0.3235  0.2589
12189TIP3    H157982   3.436   5.114  12.738 -0.3994 -1.1108  0.0424
12189TIP3    H257983   3.497   5.196  12.626 -1.1077  2.4498  2.1075
12190TIP3   OH257984   1.521   5.089   4.002  0.1202 -0.3925 -0.6164
12190TIP3    H157985   1.600   5.065   4.050 -0.5504  1.0949  1.3618
12190TIP3    H257986   1.466   5.133   4.066 -3.0372 -2.6635 -1.5337
12191TIP3   OH257987   5.460   3.811  11.825  0.9431 -0.6768  1.0378
12191TIP3    H157988   5.494   3.728  11.790  0.8621 -0.9801  1.6680
12191TIP3    H257989   5.371   3.816  11.790  0.5288 -1.4390  1.9185
12192TIP3   OH257990   2.059   5.369   0.307 -0.0442  0.0914  0.0283
12192TIP3    H157991   2.033   5.283   0.275 -1.8376  0.6492 -0.1219
12192TIP3    H257992   2.154   5.366   0.310  0.0914 -0.9232 -2.7114
12193TIP3   OH257993   2.576   4.500  13.191  0.2969  0.3171  0.1858
12193TIP3    H157994   2.595   4.485  13.099 -0.0431 -1.3645  0.3547
12193TIP3    H257995   2.528   4.583  13.193 -0.6848 -0.1722 -1.2981
12194TIP3   OH257996   5.591   5.781   0.092  0.1480 -0.1709 -0.5063
12194TIP3    H157997   5.496   5.771   0.083  0.1638  0.1760 -1.1087
12194TIP3    H257998   5.602   5.854   0.153  0.0344 -0.6727  0.1269
12195TIP3   OH257999   1.817   5.968  10.400  0.2592 -0.0849 -0.0535
12195TIP3    H158000   1.794   5.926  10.483  1.7485  0.0938  0.4845
12195TIP3    H258001   1.888   6.028  10.423  0.6562  0.0117 -1.4631
12196TIP3   OH258002   6.106   2.160  16.067  0.4401  0.1028 -0.3951
12196TIP3    H158003   6.141   2.161  15.979  0.7432 -0.5189 -0.2835
12196TIP3    H258004   6.093   2.067  16.088  1.7093  0.1536  0.7297
12197TIP3   OH258005   6.347   0.966  15.220 -0.0111  0.8611 -0.4649
12197TIP3    H158006   6.348   0.870  15.217 -1.7802  0.8129 -0.8842
12197TIP3    H258007   6.388   0.993  15.138  0.8058  0.4873 -0.1916
12198TIP3   OH258008   1.993   4.722  13.821  0.4034  0.0670 -0.5243
12198TIP3    H158009   2.057   4.781  13.860  0.1252 -0.0455  0.1196
12198TIP3    H258010   2.040   4.640  13.807  0.8669  0.5144 -1.6798
12199TIP3   OH258011   1.324   4.878  15.049  0.5113 -0.1662  0.0473
12199TIP3    H158012   1.365   4.872  15.135  1.4711 -3.5686 -0.5155
12199TIP3    H258013   1.254   4.813  15.051 -0.5556  0.8853 -1.2293
12200TIP3   OH258014   3.452   4.231  13.085 -0.8253 -0.0223  0.2471
12200TIP3    H158015   3.411   4.317  13.087  0.3289  0.5382  1.1118
12200TIP3    H258016   3.401   4.179  13.147 -0.7248  0.4315  0.7154
12201TIP3   OH258017   1.679   5.973  15.901  1.3399  0.1072 -0.0318
12201TIP3    H158018   1.639   5.992  15.985  0.7188 -1.3422  0.0248
12201TIP3    H258019   1.773   5.966  15.920  1.5892  2.6015 -0.0056
12202TIP3   OH258020   5.350   4.620   2.871 -0.1440  0.5859 -0.1203
12202TIP3    H158021   5.390   4.552   2.816 -1.2768 -1.4708  1.4645
12202TIP3    H258022   5.424   4.669   2.905  1.0806 -2.0435  1.3803
12203TIP3   OH258023   2.081   4.535   5.689 -0.2801  0.1404 -0.5350
12203TIP3    H158024   2.128   4.561   5.610  1.4081  1.1853  0.7540
12203TIP3    H258025   2.045   4.617   5.724  0.3176 -0.0614  0.5920
12204TIP3   OH258026   0.475   2.126  12.271 -0.8489  0.2423 -0.7469
12204TIP3    H158027   0.471   2.113  12.366 -0.8180  0.8539 -0.6573
12204TIP3    H258028   0.420   2.057  12.235  2.6158 -2.9491 -0.5507
12205TIP3   OH258029   5.786   4.851   0.076  0.5822  0.1527 -0.0918
12205TIP3    H158030   5.796   4.766   0.032  1.1710 -0.0814  0.4778
12205TIP3    H258031   5.867   4.898   0.056  1.4915 -0.4881  1.8515
12206TIP3   OH258032   3.240   1.554   5.601  0.2165  0.0176  0.2544
12206TIP3    H158033   3.253   1.469   5.643 -4.0027 -1.3438 -0.8141
12206TIP3    H258034   3.230   1.535   5.508  0.5228  1.9137 -0.2221
12207TIP3   OH258035   3.620   1.589   3.304 -0.0014 -0.2090 -0.0855
12207TIP3    H158036   3.588   1.666   3.351 -1.6234 -0.8073 -0.1754
12207TIP3    H258037   3.656   1.533   3.373  1.4018  0.6935 -0.0424
12208TIP3   OH258038   1.287   3.140   4.902 -0.0076  0.3413  0.1429
12208TIP3    H158039   1.236   3.062   4.925  1.3405  0.0165  2.2773
12208TIP3    H258040   1.358   3.106   4.847  0.6039  0.0087  1.1061
12209TIP3   OH258041   3.151   6.811  15.487  0.1611 -0.0521  0.2464
12209TIP3    H158042   3.153   6.723  15.523 -0.6195  0.1080  0.7080
12209TIP3    H258043   3.065   6.819  15.446  0.2081  0.4992  0.2395
12210TIP3   OH258044   1.233   3.819  13.798  0.4622 -0.0726  0.0140
12210TIP3    H158045   1.203   3.910  13.794  0.6989  0.0427  0.7336
12210TIP3    H258046   1.212   3.783  13.712 -0.5889  0.3638  0.0763
12211TIP3   OH258047   5.768   2.498  15.887  0.4946 -0.3838  0.7822
12211TIP3    H158048   5.768   2.427  15.823 -1.3949  0.3730 -0.1288
12211TIP3    H258049   5.817   2.569  15.843  1.7159 -0.8299  1.3837
12212TIP3   OH258050   0.149   4.557   1.514 -0.0106  0.3197  0.3865
12212TIP3    H158051   0.196   4.591   1.438 -0.8815 -1.5847 -1.0933
12212TIP3    H258052   0.174   4.615   1.586  2.5957  0.8629 -0.8538
12213TIP3   OH258053   1.428   2.107  15.694 -0.2691  0.3387 -0.1315
12213TIP3    H158054   1.438   2.084  15.602  0.6095 -1.1543  0.3074
12213TIP3    H258055   1.436   2.203  15.696  1.9797  0.2332 -1.3543
12214TIP3   OH258056   2.356   1.045  11.768 -0.3635 -0.3235  0.1099
12214TIP3    H158057   2.270   1.005  11.750 -0.9711  1.6658 -1.9052
12214TIP3    H258058   2.344   1.137  11.747  2.2750  0.0138 -0.2301
12215TIP3   OH258059   1.239   4.705  14.795 -0.5553 -0.0671  0.0335
12215TIP3    H158060   1.209   4.796  14.785 -1.7663 -0.4401  0.1195
12215TIP3    H258061   1.329   4.706  14.761 -0.2336  1.3406  0.8161
12216TIP3   OH258062   4.760   0.888  13.200 -0.1953  0.0233 -0.4166
12216TIP3    H158063   4.841   0.914  13.156  1.1732 -1.6961  0.9485
12216TIP3    H258064   4.741   0.962  13.258  0.4980  0.3836 -0.6259
12217TIP3   OH258065   2.313   1.684   4.236  0.1049  0.4162 -0.0233
12217TIP3    H158066   2.310   1.732   4.319 -1.8033  0.7341 -0.2326
12217TIP3    H258067   2.369   1.608   4.255  0.6336  1.0856  1.2163
12218TIP3   OH258068   0.107   0.405   4.639 -0.5192  0.1475  0.4029
12218TIP3    H158069   0.157   0.363   4.568 -1.5169 -0.0821 -0.1952
12218TIP3    H258070   0.023   0.427   4.598 -0.3628  1.9246  0.9551
12219TIP3   OH258071   0.006   4.711   0.657  0.6869  0.0763  0.5833
12219TIP3    H158072   0.045   4.655   0.724  0.4269 -0.2543  0.4570
12219TIP3    H258073   0.081   4.747   0.609  0.9176  0.8982  1.5148
12220TIP3   OH258074   5.470   0.328   1.661  0.1721 -0.1768  0.0944
12220TIP3    H158075   5.411   0.403   1.651 -0.3718 -0.5915  0.1224
12220TIP3    H258076   5.469   0.286   1.575 -1.4887 -1.5566  0.7164
12221TIP3   OH258077   3.737   1.374  12.463  0.0022 -0.0344  0.4371
12221TIP3    H158078   3.695   1.293  12.433 -0.5938  1.2510 -2.5457
12221TIP3    H258079   3.827   1.368  12.431 -0.3564  0.9277 -0.8157
12222TIP3   OH258080   0.819   5.290   4.000 -0.1183 -0.3772 -0.1691
12222TIP3    H158081   0.784   5.207   3.969 -2.0053  0.0833  0.6337
12222TIP3    H258082   0.768   5.311   4.079  1.8524  0.4246  0.9810
12223TIP3   OH258083   5.834   3.834  16.287 -0.4303 -0.2687  0.2084
12223TIP3    H158084   5.901   3.902  16.296  0.1299 -0.8641  0.7018
12223TIP3    H258085   5.880   3.760  16.247 -1.0083 -0.3810 -0.2571
12224TIP3   OH258086   6.161   3.928   2.811  0.3304  0.3076  0.4563
12224TIP3    H158087   6.153   3.840   2.775 -2.0426  0.8717 -0.5783
12224TIP3    H258088   6.202   3.915   2.897 -0.3426 -1.8479  0.5079
12225TIP3   OH258089   5.351   2.653  12.455  0.0096  0.5934  0.2807
12225TIP3    H158090   5.405   2.599  12.513  2.7194  0.7637 -1.8761
12225TIP3    H258091   5.279   2.595  12.429  0.1106 -0.2886  1.8386
12226TIP3   OH258092   1.902   1.645   4.061  0.6589 -0.2609  0.8564
12226TIP3    H158093   1.994   1.651   4.037  1.2392 -0.9637  2.7359
12226TIP3    H258094   1.900   1.660   4.155 -1.2892  0.7456  0.7170
12227TIP3   OH258095   0.089   5.905   2.573 -0.0913  0.1576  0.2511
12227TIP3    H158096   0.140   5.926   2.652 -1.2138  0.3566  0.9414
12227TIP3    H258097  -0.000   5.892   2.605 -0.3639 -0.8235 -0.8485
12228TIP3   OH258098   2.814   5.093  13.439 -0.1495 -0.0686  0.3319
12228TIP3    H158099   2.733   5.044  13.427 -0.3793  0.8088 -2.7118
12228TIP3    H258100   2.799   5.175  13.391  2.2447  0.4674  0.3630
12229TIP3   OH258101   6.782   2.547   2.494  0.3003 -0.9409  0.0769
12229TIP3    H158102   6.741   2.461   2.497 -0.2889 -0.6254  1.6460
12229TIP3    H258103   6.711   2.607   2.472  0.6765 -0.8185 -0.8529
12230TIP3   OH258104   4.441   3.533   5.604 -0.7095  0.1520 -0.2594
12230TIP3    H158105   4.467   3.464   5.542 -1.2847  1.0400 -1.5210
12230TIP3    H258106   4.486   3.611   5.573 -0.9828  0.6130  0.4812
12231TIP3   OH258107   3.816   2.773  12.602  0.0503  0.3062 -0.5631
12231TIP3    H158108   3.764   2.821  12.666 -0.5696 -1.2305  0.1233
12231TIP3    H258109   3.906   2.804  12.616 -0.2201  0.6726  0.4120
12232TIP3   OH258110   6.304   4.249  16.204  0.2479  0.3292  0.5533
12232TIP3    H158111   6.235   4.226  16.266  0.1968  3.0296  1.6152
12232TIP3    H258112   6.291   4.342  16.187  0.8931 -0.0659 -2.7909
12233TIP3   OH258113   4.150   1.620  13.814  0.4955  0.1358 -0.2374
12233TIP3    H158114   4.177   1.664  13.894  0.2047 -1.4448  0.7807
12233TIP3    H258115   4.087   1.554  13.843  3.7891 -3.7636 -0.9727
12234TIP3   OH258116   6.402   1.268   1.431  0.2273 -0.1533  0.2004
12234TIP3    H158117   6.495   1.260   1.411 -0.0173  0.7322 -1.5024
12234TIP3    H258118   6.380   1.188   1.478  1.6498 -0.7922 -0.1790
12235TIP3   OH258119   6.034   4.933  10.697 -0.1586  0.5170  0.3956
12235TIP3    H158120   6.021   4.860  10.636  0.6889 -1.3221  2.2673
12235TIP3    H258121   6.084   4.997  10.647  0.1847 -0.7331 -0.9494
12236TIP3   OH258122   2.339   5.974   1.217  0.0480  0.5895 -0.0695
12236TIP3    H158123   2.414   5.916   1.210 -1.0499 -0.7877 -0.9826
12236TIP3    H258124   2.273   5.935   1.160 -1.4340  1.6352  0.8438
12237TIP3   OH258125   6.499   0.146  14.070 -0.6189  0.0876 -0.1482
12237TIP3    H158126   6.445   0.078  14.111 -0.4423 -0.2181 -0.4139
12237TIP3    H258127   6.438   0.196  14.015 -0.4752 -0.8802 -1.2360
12238TIP3   OH258128   6.577   3.884  11.967  0.0237 -0.2378  0.5409
12238TIP3    H158129   6.615   3.834  12.039 -1.7337 -1.4839  0.6472
12238TIP3    H258130   6.572   3.822  11.895  2.6182  1.2243 -1.0655
12239TIP3   OH258131   6.288   3.471  13.161  0.3272  0.0691  0.2380
12239TIP3    H158132   6.236   3.525  13.221  0.6771  1.2045 -0.4537
12239TIP3    H258133   6.244   3.480  13.076  1.2669  0.5157 -0.2163
12240TIP3   OH258134   1.435   4.422   0.868 -0.4445 -0.2624 -0.1461
12240TIP3    H158135   1.479   4.411   0.953  1.0997  1.8988 -0.5861
12240TIP3    H258136   1.396   4.337   0.851  2.3035 -1.9045  1.0344
12241TIP3   OH258137   4.661   1.535  15.052  0.1312  0.3479  0.1945
12241TIP3    H158138   4.732   1.594  15.026  0.5445 -0.0929  0.3084
12241TIP3    H258139   4.601   1.591  15.102  0.0102  0.8947 -0.5411
12242TIP3   OH258140   1.942   4.210   1.691 -0.0024  0.3243 -0.0153
12242TIP3    H158141   1.940   4.305   1.681 -0.4521  0.1973 -1.2613
12242TIP3    H258142   1.884   4.177   1.623  1.4945 -0.9128 -0.7684
12243TIP3   OH258143   5.799   5.235  16.476  0.4636 -0.6625 -0.3451
12243TIP3    H158144   5.705   5.220  16.473  0.5192 -0.9804 -0.6552
12243TIP3    H258145   5.812   5.296  16.549  0.0616 -0.9054 -0.0684
12244TIP3   OH258146   1.524   5.067  13.855 -0.2180  0.5101  0.4347
12244TIP3    H158147   1.577   5.099  13.928 -0.9565  0.5550  0.9637
12244TIP3    H258148   1.456   5.014  13.896  0.2063 -0.6683 -0.3371
12245TIP3   OH258149   2.044   3.082  12.773 -0.0554 -0.0516 -0.0428
12245TIP3    H158150   2.031   2.992  12.801 -0.4370  0.4735  1.6226
12245TIP3    H258151   2.135   3.102  12.798 -0.1536  0.1921  0.1255
12246TIP3   OH258152   3.757   6.428   0.621 -0.0729 -0.4701  0.0136
12246TIP3    H158153   3.733   6.336   0.634  0.1546 -0.7168 -1.1756
12246TIP3    H258154   3.825   6.445   0.687 -1.1348 -0.7163  1.2140
12247TIP3   OH258155   2.790   1.379   5.309 -0.3347  0.4882  0.1405
12247TIP3    H158156   2.820   1.345   5.394 -0.4891 -0.2163 -0.0775
12247TIP3    H258157   2.861   1.434   5.279  1.4672 -2.2676 -1.0349
12248TIP3   OH258158   0.289   0.781  11.080  0.2869  0.6075  0.0520
12248TIP3    H158159   0.327   0.733  11.007 -2.9163 -0.5764 -1.0268
12248TIP3    H258160   0.313   0.872  11.064  3.0535 -0.0673 -0.1258
12249TIP3   OH258161   3.423   2.927   0.908 -0.3183 -0.2965  0.0113
12249TIP3    H158162   3.426   3.003   0.965 -3.6196 -0.2063  0.2925
12249TIP3    H258163   3.400   2.962   0.822  0.3883 -0.8107 -0.4008
12250TIP3   OH258164   3.509   2.221  11.332 -0.6230 -0.6297  0.7870
12250TIP3    H158165   3.474   2.310  11.337 -1.8041 -0.9993 -0.4467
12250TIP3    H258166   3.510   2.190  11.423 -3.0250 -0.3908  0.9496
12251TIP3   OH258167   4.586   5.397   3.395  0.2153 -0.0480  0.3854
12251TIP3    H158168   4.633   5.461   3.450 -0.1175  0.7873 -0.2740
12251TIP3    H258169   4.494   5.415   3.411  0.1170 -0.3968  0.2216
12252TIP3   OH258170   2.550   4.947  13.420 -0.1998 -0.3468  0.0781
12252TIP3    H158171   2.467   4.957  13.373  0.1325  0.8418 -0.2863
12252TIP3    H258172   2.541   4.864  13.467 -1.1454 -0.7953 -0.8567
12253TIP3   OH258173   3.418   4.959   4.950  0.2262  1.3263  0.7752
12253TIP3    H158174   3.450   4.923   5.033  0.2046 -1.3558 -0.2693
12253TIP3    H258175   3.486   4.936   4.887 -1.7171 -0.7615 -0.7297
12254TIP3   OH258176   2.943   1.544   5.114 -0.0048 -0.2982 -0.7522
12254TIP3    H158177   3.004   1.617   5.125 -0.6027  0.1170 -0.2004
12254TIP3    H258178   2.965   1.508   5.028  0.4862  0.3408 -0.9006
12255TIP3   OH258179   6.131   1.612   3.952  0.5147  0.5667  1.0785
12255TIP3    H158180   6.053   1.616   4.007  0.9422  0.5727  1.6952
12255TIP3    H258181   6.180   1.692   3.974  0.6418  0.6186  0.6180
12256TIP3   OH258182   4.041   0.060  16.805 -0.3749 -0.2410 -0.4424
12256TIP3    H158183   4.048   0.154  16.787 -1.1940 -0.2315 -0.7429
12256TIP3    H258184   4.124   0.038  16.848 -0.6805  0.8574  0.7568
12257TIP3   OH258185   6.053   1.542   6.112 -0.0450  0.3134  0.2413
12257TIP3    H158186   6.006   1.612   6.068  0.6878  1.9441  1.9333
12257TIP3    H258187   6.003   1.526   6.192  0.3553 -0.4153  0.3567
12258TIP3   OH258188   3.497   1.902   0.477 -0.0285 -0.0817  0.3759
12258TIP3    H158189   3.466   1.924   0.389  4.4403  1.3752 -1.0579
12258TIP3    H258190   3.505   1.986   0.522  1.3526 -0.4250  0.8058
12259TIP3   OH258191   0.900   4.210  13.078  0.0596 -0.5142 -0.1738
12259TIP3    H158192   0.903   4.294  13.031  1.1888 -0.6973 -0.4560
12259TIP3    H258193   0.891   4.145  13.009  0.5277 -0.7090 -0.0529
12260TIP3   OH258194   0.228   5.456  15.452 -0.1566  0.1267  0.0199
12260TIP3    H158195   0.197   5.450  15.362 -0.9242  2.1221  0.1011
12260TIP3    H258196   0.149   5.452  15.506  0.2298 -0.3279  0.5714
12261TIP3   OH258197   4.219   1.874  11.805  0.1618 -0.1569  0.2342
12261TIP3    H158198   4.254   1.910  11.723 -0.2789 -1.7192 -0.6677
12261TIP3    H258199   4.286   1.812  11.835 -0.1165 -0.3170  0.5406
12262TIP3   OH258200   4.799   5.350   2.510 -0.3211  0.6908  0.4724
12262TIP3    H158201   4.834   5.352   2.421  2.3341  2.3391  1.4331
12262TIP3    H258202   4.872   5.317   2.563 -2.0359 -0.8247  2.0039
12263TIP3   OH258203   1.624   0.346  15.202 -0.7452 -0.4607 -0.2845
12263TIP3    H158204   1.612   0.252  15.191 -1.9060 -0.1323 -2.5266
12263TIP3    H258205   1.716   0.362  15.181 -0.9468 -0.9383 -1.6484
12264TIP3   OH258206   0.106   2.455  12.896  0.6255 -0.1273 -0.1708
12264TIP3    H158207   0.146   2.413  12.973 -1.2169 -1.2707  0.2323
12264TIP3    H258208   0.119   2.392  12.826  0.1858 -0.1869 -0.2023
12265TIP3   OH258209   6.696   5.701   0.879 -0.5388 -0.3294 -0.3494
12265TIP3    H158210   6.649   5.776   0.843  0.4635  0.6607  0.3404
12265TIP3    H258211   6.628   5.639   0.904 -1.4074  0.5171 -0.5678
12266TIP3   OH258212   6.550   0.017  13.438  0.2048  0.3547  0.4789
12266TIP3    H158213   6.532   0.062  13.356 -3.2381 -0.2975  0.7287
12266TIP3    H258214   6.556   0.087  13.503  2.4318  0.8361 -0.1612
12267TIP3   OH258215   1.069   2.252  13.569 -0.1838 -0.4900  0.5302
12267TIP3    H158216   1.064   2.297  13.484 -0.4457 -1.8859 -0.2154
12267TIP3    H258217   0.979   2.249  13.600 -0.2340 -0.9169  0.3482
12268TIP3   OH258218   5.098   0.671  13.936  0.3507 -0.0524 -0.3805
12268TIP3    H158219   5.164   0.701  13.874  2.4215 -2.2557  0.6354
12268TIP3    H258220   5.147   0.644  14.013 -1.8383 -0.8466  0.8301
12269TIP3   OH258221   2.277   4.433   5.217 -0.0568 -0.3821 -0.8490
12269TIP3    H158222   2.365   4.404   5.192  1.7075  2.9684  0.7672
12269TIP3    H258223   2.260   4.388   5.300  0.8141  0.0182 -0.4357
12270TIP3   OH258224   1.900   5.260  13.998 -0.2103  0.1613 -0.0967
12270TIP3    H158225   1.932   5.331  14.054 -0.5931  0.5975 -0.4255
12270TIP3    H258226   1.824   5.226  14.044 -0.7776  0.7989 -0.5516
12271TIP3   OH258227   0.932   0.035  16.219 -0.0188 -0.0771 -0.6294
12271TIP3    H158228   0.842   0.054  16.249  0.0094 -1.1068  0.1744
12271TIP3    H258229   0.957   0.113  16.170 -0.6007  1.1476  0.8910
12272TIP3   OH258230   6.680   3.362   5.007 -0.5362 -0.0499 -0.0184
12272TIP3    H158231   6.690   3.456   4.992  0.7440 -0.1236  0.2689
12272TIP3    H258232   6.586   3.349   5.016 -0.6622  1.3720  1.0046
12273TIP3   OH258233   3.254   0.106   2.044 -0.1724 -0.5123 -0.0881
12273TIP3    H158234   3.312   0.052   1.989  1.7281 -3.2810  4.1561
12273TIP3    H258235   3.184   0.047   2.071 -2.7162  1.6011 -1.5757
12274TIP3   OH258236   2.289   6.519  12.071 -0.2993  0.0549  0.5974
12274TIP3    H158237   2.372   6.565  12.087  0.7032 -1.5838  0.4338
12274TIP3    H258238   2.308   6.462  11.997 -2.1436  0.9012 -0.5860
12275TIP3   OH258239   6.347   1.264  14.399 -0.0332  0.1995  0.0165
12275TIP3    H158240   6.360   1.326  14.327 -1.3800  1.0312  0.4352
12275TIP3    H258241   6.427   1.270  14.451  1.6889 -1.6780 -2.2692
12276TIP3   OH258242   6.481   4.930  13.106 -0.4287 -0.0950 -0.1588
12276TIP3    H158243   6.453   5.019  13.127  1.7316  0.3349  1.3196
12276TIP3    H258244   6.448   4.876  13.178 -0.1001 -0.1233 -0.0244
12277TIP3   OH258245   6.610   3.648   4.731  0.2354 -0.3438 -0.4001
12277TIP3    H158246   6.662   3.707   4.678 -1.8350  1.9589 -0.0422
12277TIP3    H258247   6.638   3.665   4.821  0.1782 -0.4971 -0.3523
12278TIP3   OH258248   5.243   1.338  11.648  0.6344 -0.3774  0.5732
12278TIP3    H158249   5.174   1.404  11.645  0.9201  0.0069  1.9768
12278TIP3    H258250   5.315   1.380  11.695  1.9572 -0.6787 -1.0449
12279TIP3   OH258251   4.117   3.196   2.991  0.1712 -0.4762  0.0796
12279TIP3    H158252   4.171   3.144   2.931 -0.0452 -1.2840  0.5708
12279TIP3    H258253   4.028   3.168   2.973 -0.0769  0.6863 -0.5609
12280TIP3   OH258254   0.663   1.854   2.345 -0.3344  0.2226  0.0044
12280TIP3    H158255   0.594   1.810   2.395 -0.4490  0.2330 -0.1450
12280TIP3    H258256   0.720   1.893   2.412 -0.2364 -0.1447  0.1383
12281TIP3   OH258257   5.279   1.442   5.379  0.2613 -0.0231 -0.3231
12281TIP3    H158258   5.215   1.488   5.434  0.6079  0.7175 -0.5237
12281TIP3    H258259   5.264   1.350   5.397 -0.3851  0.1702  0.1724
12282TIP3   OH258260   5.454   3.051   0.290  0.0692 -0.1826 -0.4960
12282TIP3    H158261   5.368   3.092   0.290  0.0052 -0.3160 -0.7664
12282TIP3    H258262   5.457   3.001   0.372  0.3729  0.8233  0.1273
12283TIP3   OH258263   2.507   3.312   0.959  1.0026 -0.3097 -0.0258
12283TIP3    H158264   2.537   3.403   0.962  2.3612 -0.6692 -1.1801
12283TIP3    H258265   2.548   3.271   1.035  1.2382 -0.1765 -0.0766
12284TIP3   OH258266   4.692   4.470  14.447  0.7380 -0.1057 -0.7212
12284TIP3    H158267   4.752   4.499  14.378  0.5790 -0.9083 -1.2034
12284TIP3    H258268   4.688   4.375  14.437 -1.0008 -0.0281 -0.9955
12285TIP3   OH258269   0.146   2.723   5.428  0.0231 -0.1431 -0.1606
12285TIP3    H158270   0.147   2.631   5.402  0.6188 -0.0561 -0.4684
12285TIP3    H258271   0.174   2.771   5.349 -0.4853  0.3179 -0.0665
12286TIP3   OH258272   4.660   0.674  11.828 -0.2320  0.2095 -0.4265
12286TIP3    H158273   4.610   0.613  11.774  2.1601 -1.3835 -1.0180
12286TIP3    H258274   4.689   0.742  11.767 -0.8216  0.5800 -0.2962
12287TIP3   OH258275   0.788   1.099   4.212 -0.0884  0.4365 -0.0477
12287TIP3    H158276   0.748   1.126   4.295 -1.0945  2.4339 -1.1308
12287TIP3    H258277   0.875   1.068   4.237 -0.8094 -0.1864  1.8890
12288TIP3   OH258278   0.702   1.332  11.228 -0.3758  0.1943  0.9687
12288TIP3    H158279   0.642   1.324  11.154  1.3470  0.1008 -0.4926
12288TIP3    H258280   0.647   1.358  11.302 -1.8216  3.1423 -0.9628
12289TIP3   OH258281   1.466   3.908  15.329 -0.1991  0.3417  0.0499
12289TIP3    H158282   1.514   3.972  15.383  1.7643 -0.8668 -0.1750
12289TIP3    H258283   1.492   3.929  15.239  0.7350 -0.9457  0.0002
12290TIP3   OH258284   1.585   2.556   0.423  0.4472  0.3668  0.4722
12290TIP3    H158285   1.599   2.468   0.460  1.4588  1.0873  1.8847
12290TIP3    H258286   1.608   2.616   0.494  1.8096  1.8175 -1.1027
12291TIP3   OH258287   0.200   4.360  14.203  0.8529 -0.0899 -0.1195
12291TIP3    H158288   0.265   4.388  14.139 -0.6031 -0.1936 -1.6982
12291TIP3    H258289   0.197   4.264  14.196  2.1164 -0.3082  1.5917
12292TIP3   OH258290   4.856   0.238  12.088  0.1532 -0.3017  0.5270
12292TIP3    H158291   4.927   0.284  12.133  0.6121 -0.3365 -0.1355
12292TIP3    H258292   4.869   0.260  11.996  0.1886 -1.4846  0.2338
12293TIP3   OH258293   5.318   1.548   3.164 -0.5881 -0.4353  1.1019
12293TIP3    H158294   5.369   1.489   3.109  0.9284  0.8983  1.0119
12293TIP3    H258295   5.251   1.584   3.106 -0.4096 -0.7306  0.7117
12294TIP3   OH258296   5.612   1.444  14.424  0.2851  0.3180 -0.5373
12294TIP3    H158297   5.542   1.426  14.486  0.2800  0.9492 -0.3550
12294TIP3    H258298   5.599   1.535  14.398  1.0130  0.4312 -0.5310
12295TIP3   OH258299   0.865   5.994   4.515  0.4467 -0.7968 -0.0621
12295TIP3    H158300   0.842   5.958   4.601  0.9250 -0.0346  0.3946
12295TIP3    H258301   0.945   6.045   4.531  0.1897 -0.1335 -0.8332
12296TIP3   OH258302   6.403   4.821  10.946 -0.1000  0.2253 -0.3558
12296TIP3    H158303   6.492   4.813  10.912  0.1783 -1.0943  0.6071
12296TIP3    H258304   6.390   4.741  10.997 -1.8383  0.3969 -0.4813
12297TIP3   OH258305   1.141   3.276  16.793 -0.5273 -0.1094  0.4907
12297TIP3    H158306   1.234   3.253  16.791 -0.9055 -1.9160  1.4220
12297TIP3    H258307   1.102   3.213  16.853 -2.3226  0.7951  0.3486
12298TIP3   OH258308   5.349   2.922  16.728 -0.0133  0.3700  0.4240
12298TIP3    H158309   5.391   2.837  16.737  0.2855  0.4915  0.2055
12298TIP3    H258310   5.322   2.946  16.817  2.6602  1.4431  1.0326
12299TIP3   OH258311   1.848   6.027   1.292  1.0955  0.1620 -0.5127
12299TIP3    H158312   1.796   6.105   1.274  2.0339  0.9200 -0.0173
12299TIP3    H258313   1.927   6.060   1.336  1.0780 -1.1452  0.5609
12300TIP3   OH258314   0.122   0.056   4.812  0.0631  0.3106  0.0988
12300TIP3    H158315   0.110  -0.039   4.825  0.7282 -0.0283 -1.5061
12300TIP3    H258316   0.036   0.093   4.831 -0.8841 -0.9122 -1.4898
12301TIP3   OH258317   0.724   0.999  12.382 -0.0128  0.1520 -0.5506
12301TIP3    H158318   0.806   0.972  12.340 -0.0118 -1.1459  0.2366
12301TIP3    H258319   0.750   1.070  12.441  0.5815 -0.3481 -0.1972
12302TIP3   OH258320   1.763   6.732   4.564 -0.6756  0.0555 -0.0717
12302TIP3    H158321   1.679   6.774   4.585 -0.2737  1.4020 -1.0416
12302TIP3    H258322   1.798   6.705   4.649 -0.7721  2.0629  0.6507
12303TIP3   OH258323   1.365   1.527  12.226 -0.5286  0.7229 -0.5329
12303TIP3    H158324   1.408   1.582  12.160 -0.3009 -0.3773 -1.3246
12303TIP3    H258325   1.272   1.543  12.214 -0.5875 -0.7214 -2.2832
12304TIP3   OH258326   5.190   6.540  13.428  0.3905  0.0420  0.1830
12304TIP3    H158327   5.168   6.565  13.518 -2.1347 -1.1704 -0.0249
12304TIP3    H258328   5.149   6.455  13.415  1.0343 -0.0111 -2.0158
12305TIP3   OH258329   5.843   3.673  13.010  0.1525 -0.3256  0.3031
12305TIP3    H158330   5.935   3.652  12.993  0.2388  0.8025 -0.7115
12305TIP3    H258331   5.839   3.688  13.104  0.9476 -0.6674  0.4018
12306TIP3   OH258332   0.828   2.022  10.624 -0.5016 -0.3233 -0.9050
12306TIP3    H158333   0.735   2.044  10.623 -0.1899  1.4356 -3.9306
12306TIP3    H258334   0.835   1.946  10.566 -0.0938 -0.6723 -0.3987
12307TIP3   OH258335   6.482   6.113   2.415 -0.0491  0.9587  0.1468
12307TIP3    H158336   6.548   6.173   2.381 -0.8638  1.3420 -0.8214
12307TIP3    H258337   6.440   6.162   2.486  2.3266 -0.2133  2.5376
12308TIP3   OH258338   2.043   1.375  10.214  0.2040  0.3492  0.0808
12308TIP3    H158339   1.979   1.416  10.272 -1.8763 -0.5529 -1.4299
12308TIP3    H258340   2.069   1.295  10.259  0.5421  0.9007  0.8698
12309TIP3   OH258341   6.172   0.799  13.727  0.0625  0.0010  0.0798
12309TIP3    H158342   6.105   0.864  13.706  0.8488  0.9174  0.3206
12309TIP3    H258343   6.238   0.848  13.776 -0.8206 -1.6408  3.1628
12310TIP3   OH258344   0.096   6.360   3.401 -0.1770  0.0945  0.0584
12310TIP3    H158345   0.185   6.326   3.411 -0.9214 -2.1785 -0.5430
12310TIP3    H258346   0.108   6.452   3.375  1.9843 -0.1961 -0.0992
12311TIP3   OH258347   1.348   6.425  11.967 -0.4238  0.2875  0.4601
12311TIP3    H158348   1.294   6.458  12.038 -0.3894  1.8675 -0.2132
12311TIP3    H258349   1.296   6.438  11.888 -0.1609 -0.7416  0.0949
12312TIP3   OH258350   2.245   3.396   4.486  0.1192  0.4737 -0.4076
12312TIP3    H158351   2.274   3.421   4.398  0.9123  0.1964 -0.2325
12312TIP3    H258352   2.190   3.319   4.473  2.6808 -1.5026 -0.4553
12313TIP3   OH258353   1.501   4.200   1.182  0.5122  0.8740 -0.2558
12313TIP3    H158354   1.577   4.227   1.131  2.1315 -2.7352 -0.1220
12313TIP3    H258355   1.538   4.175   1.267 -0.6194 -1.4374 -0.3486
12314TIP3   OH258356   5.124   1.997  12.813  0.0185 -0.2508  0.1668
12314TIP3    H158357   5.192   1.981  12.878 -0.2750  3.2827  1.5855
12314TIP3    H258358   5.050   1.945  12.841  0.0267  0.8960  2.5482
12315TIP3   OH258359   4.290   4.806   1.621 -0.1310  0.2305  0.2866
12315TIP3    H158360   4.287   4.744   1.694  0.5048 -0.2581 -0.0935
12315TIP3    H258361   4.202   4.844   1.619 -0.3273 -0.1645  0.9457
12316TIP3   OH258362   6.573   3.340   4.633 -0.5990 -0.0653  0.6330
12316TIP3    H158363   6.509   3.384   4.576  0.2049  0.2907 -0.0245
12316TIP3    H258364   6.614   3.411   4.681 -0.2776 -0.2383  0.6124
12317TIP3   OH258365   6.703   3.344   5.301  0.2026  0.4354  0.4803
12317TIP3    H158366   6.756   3.305   5.232  1.0326  3.5118 -0.8297
12317TIP3    H258367   6.626   3.378   5.255 -1.3016 -1.0075  1.8199
12318TIP3   OH258368   5.567   5.431   1.388  0.2379 -0.6137 -0.4103
12318TIP3    H158369   5.530   5.512   1.423 -0.5407 -1.4323  0.7241
12318TIP3    H258370   5.611   5.458   1.307  2.2724  1.3916  1.2372
12319TIP3   OH258371   6.137   5.176  14.333  0.0522  0.8876 -0.1866
12319TIP3    H158372   6.204   5.130  14.384  1.2982 -0.6566 -2.9926
12319TIP3    H258373   6.071   5.109  14.314 -1.2700  1.8715  0.7587
12320TIP3   OH258374   4.926   3.098  13.757  0.2509  0.0258 -0.5129
12320TIP3    H158375   4.880   3.025  13.716  0.3296 -0.5278  0.3461
12320TIP3    H258376   5.016   3.091  13.727  0.1963 -0.0669 -0.6511
12321TIP3   OH258377   5.364   6.259  16.878 -0.1824 -0.0794 -0.0900
12321TIP3    H158378   5.398   6.201  16.810  1.4835  0.1836  0.4960
12321TIP3    H258379   5.416   6.338  16.872  0.3198 -0.2158  1.7695
12322TIP3   OH258380   0.774   4.764   2.126 -0.4811 -0.1381 -0.0333
12322TIP3    H158381   0.747   4.674   2.147 -0.6339  0.0394  0.5306
12322TIP3    H258382   0.759   4.813   2.207 -0.2959  0.3745 -0.3097
12323TIP3   OH258383   2.823   5.801  15.152  0.5349  0.3694  0.6473
12323TIP3    H158384   2.782   5.796  15.239  0.6538  0.1639  0.6939
12323TIP3    H258385   2.794   5.885  15.117 -0.9226 -0.2977  0.1802
12324TIP3   OH258386   1.433   6.648  16.102  0.6957 -0.5151 -0.3701
12324TIP3    H158387   1.485   6.726  16.087  1.4607 -0.5010  1.9745
12324TIP3    H258388   1.496   6.576  16.105  0.0636 -1.1754 -1.9281
12325TIP3   OH258389   4.888   6.425   2.323 -0.0077 -0.2095 -0.1244
12325TIP3    H158390   4.852   6.513   2.323  0.9068  0.1806 -0.1310
12325TIP3    H258391   4.970   6.432   2.274  0.6331 -0.8159  0.8196
12326TIP3   OH258392   3.678   2.440  14.196 -0.6358 -0.1832 -0.1490
12326TIP3    H158393   3.644   2.529  14.189 -2.2636 -0.6042  1.6712
12326TIP3    H258394   3.713   2.433  14.284  0.4662 -1.0552 -0.6208
12327TIP3   OH258395   4.176   3.657   0.764  0.3068 -0.0143  0.5378
12327TIP3    H158396   4.082   3.639   0.760  0.4646 -0.5808 -1.7910
12327TIP3    H258397   4.217   3.588   0.712  2.0091  0.4293  1.2011
12328TIP3   OH258398   1.790   6.806   5.434  0.2069  0.6731 -0.2482
12328TIP3    H158399   1.783   6.901   5.432 -0.9620  0.5981 -1.8383
12328TIP3    H258400   1.723   6.778   5.496  0.1265  0.8717 -0.2454
12329TIP3   OH258401   5.701   4.490   5.699 -0.2362 -0.5481  0.1231
12329TIP3    H158402   5.648   4.561   5.733  0.7997  0.2833  0.0653
12329TIP3    H258403   5.727   4.439   5.776  0.2487  0.0196  0.3428
12330TIP3   OH258404   5.294   2.966   1.691 -0.3165  0.1111  0.2109
12330TIP3    H158405   5.224   3.024   1.662  0.0773  0.7168  0.4514
12330TIP3    H258406   5.298   2.897   1.625 -0.4772  0.6138 -0.3277
12331TIP3   OH258407   6.364   1.089   6.112 -0.9656  0.6508 -0.1001
12331TIP3    H158408   6.301   1.162   6.106  0.9380  2.3137 -1.4119
12331TIP3    H258409   6.351   1.040   6.030 -0.8102  0.7921 -0.2111
12332TIP3   OH258410   6.773   6.091  15.295  0.1012 -0.8310  0.2825
12332TIP3    H158411   6.744   6.030  15.363 -2.7590 -0.3733 -0.3860
12332TIP3    H258412   6.751   6.047  15.213  1.9890 -0.6707 -0.3683
12333TIP3   OH258413   3.760   3.616   0.974  0.1451  0.4033  0.6613
12333TIP3    H158414   3.839   3.569   0.999  0.0637 -0.2397 -0.2305
12333TIP3    H258415   3.689   3.570   1.018 -0.0703 -1.1270 -1.1261
12334TIP3   OH258416   1.248   1.666  11.232  0.3700  0.1886  0.0168
12334TIP3    H158417   1.246   1.570  11.225 -0.0348  0.0812  1.3239
12334TIP3    H258418   1.172   1.695  11.182 -0.2012 -0.2633  0.5976
12335TIP3   OH258419   2.367   3.104  14.466 -0.4256 -0.1596 -0.2134
12335TIP3    H158420   2.278   3.133  14.483 -0.3396 -0.4418  0.7709
12335TIP3    H258421   2.409   3.178  14.422 -0.2568  1.1951  2.0542
12336TIP3   OH258422   3.037   0.599  11.254  0.9256  0.7464 -0.0343
12336TIP3    H158423   2.983   0.578  11.331 -0.2250 -0.5560 -1.1579
12336TIP3    H258424   2.977   0.644  11.194  1.5875  0.9726 -0.5364
12337TIP3   OH258425   4.791   6.686   0.869 -0.1863 -0.3538 -0.6704
12337TIP3    H158426   4.726   6.616   0.859 -0.8683  0.1502  0.0162
12337TIP3    H258427   4.873   6.648   0.839 -0.3518 -1.7676  0.5230
12338TIP3   OH258428   5.883   5.917   0.400  0.1037  0.0882 -0.6154
12338TIP3    H158429   5.945   5.849   0.426 -1.4104 -1.3295 -0.5627
12338TIP3    H258430   5.932   5.999   0.412  0.9360 -0.7044  2.6493
12339TIP3   OH258431   3.266   2.269   3.796 -0.3516 -0.7356  0.7994
12339TIP3    H158432   3.351   2.311   3.804 -1.6494  2.3154  0.2694
12339TIP3    H258433   3.278   2.181   3.832  2.8724 -0.2913  1.0740
12340TIP3   OH258434   1.355   0.153   2.006 -0.1470  0.2075 -0.6236
12340TIP3    H158435   1.304   0.127   2.083  0.5522 -1.1588 -0.6037
12340TIP3    H258436   1.289   0.166   1.937 -0.5971 -0.7848 -0.3947
12341TIP3   OH258437   3.462   1.160   1.578  0.2693  0.0486  0.0857
12341TIP3    H158438   3.400   1.229   1.553 -1.0391 -1.0806  0.0962
12341TIP3    H258439   3.452   1.152   1.673 -0.4123 -0.8983 -0.0534
12342TIP3   OH258440   4.529   3.901   2.953 -0.0134  0.5232  0.5337
12342TIP3    H158441   4.436   3.912   2.933  0.2623  0.2488 -0.9897
12342TIP3    H258442   4.565   3.990   2.952 -0.0849  0.5467  0.2385
12343TIP3   OH258443   1.109   5.448  13.267 -0.0830  0.0525 -0.7103
12343TIP3    H158444   1.164   5.525  13.281  0.9902 -1.1201  2.2191
12343TIP3    H258445   1.055   5.442  13.345 -1.4375 -1.1883 -1.6909
12344TIP3   OH258446   0.750   6.158   0.087 -0.4145 -0.2959 -0.2267
12344TIP3    H158447   0.688   6.228   0.068  0.3634  0.4344 -0.1533
12344TIP3    H258448   0.739   6.141   0.181  1.0196  1.4074  0.3166
12345TIP3   OH258449   1.519   5.687   0.787  0.1889 -0.6636 -0.5646
12345TIP3    H158450   1.615   5.679   0.791  0.6524  3.3028  1.2559
12345TIP3    H258451   1.504   5.763   0.731 -1.7980 -0.5006  0.1264
12346TIP3   OH258452   6.809   2.421  12.094  0.1630  0.3273  0.5889
12346TIP3    H158453   6.799   2.410  12.188 -2.4776 -0.3085  0.2988
12346TIP3    H258454   6.899   2.453  12.083  0.8626 -0.5264  3.2098
12347TIP3   OH258455   3.451   5.647   1.888 -0.2231 -0.0317  0.9127
12347TIP3    H158456   3.408   5.677   1.967  2.2235 -0.7803  2.6518
12347TIP3    H258457   3.464   5.553   1.901 -0.0221 -0.2348 -0.5084
12348TIP3   OH258458   5.143   2.708  14.197  0.1636  0.1904  0.0549
12348TIP3    H158459   5.092   2.654  14.257  0.4741 -2.4111 -1.8744
12348TIP3    H258460   5.082   2.775  14.166 -0.8679 -0.3505  0.8851
12349TIP3   OH258461   6.315   4.492   3.790 -0.5138 -0.2118 -0.5855
12349TIP3    H158462   6.291   4.455   3.875 -0.1135 -0.0477 -0.3960
12349TIP3    H258463   6.266   4.440   3.727 -1.7685  0.4518 -0.1868
12350TIP3   OH258464   0.374   6.522  12.342 -0.5952 -0.4143  0.2249
12350TIP3    H158465   0.315   6.472  12.399 -0.4630  2.0780  2.7795
12350TIP3    H258466   0.371   6.611  12.378  2.6622  0.4095 -1.2378
12351TIP3   OH258467   2.236   3.584   2.900 -0.3182 -0.0738 -0.7334
12351TIP3    H158468   2.236   3.490   2.922 -0.6383  0.2143  0.5285
12351TIP3    H258469   2.300   3.591   2.829  2.1630 -0.8009  1.2577
12352TIP3   OH258470   5.245   2.106  14.361 -0.2670  0.2541 -0.4083
12352TIP3    H158471   5.303   2.174  14.329 -0.6972  1.5255  1.3302
12352TIP3    H258472   5.157   2.136  14.338 -0.4055 -0.1587 -0.4296
12353TIP3   OH258473   5.713   1.371  13.968  0.0849  0.6449  0.1977
12353TIP3    H158474   5.729   1.366  14.063  1.5815 -0.0041 -0.0644
12353TIP3    H258475   5.668   1.455  13.956 -0.4012  0.5980  1.5137
12354TIP3   OH258476   3.726   2.812  13.464  0.1362 -0.0306  0.1233
12354TIP3    H158477   3.642   2.781  13.498  0.2383 -0.5748 -0.1026
12354TIP3    H258478   3.705   2.847  13.378  0.3452 -1.5062 -0.5681
12355TIP3   OH258479   1.963   1.120  11.997 -0.2555 -0.2370 -0.5221
12355TIP3    H158480   1.987   1.210  12.017  0.2008 -0.4037 -0.2861
12355TIP3    H258481   2.017   1.068  12.057 -0.8860 -0.6474 -0.2990
12356TIP3   OH258482   0.062   0.111  15.623 -0.4950  0.1273 -0.5512
12356TIP3    H158483  -0.020   0.116  15.574 -0.2011  0.1402 -1.0528
12356TIP3    H258484   0.062   0.024  15.663 -0.6085  0.0041 -0.8165
12357TIP3   OH258485   5.990   2.248   1.829 -0.5085 -0.1686 -0.4854
12357TIP3    H158486   6.055   2.178   1.815  0.1004  0.2726  0.0463
12357TIP3    H258487   5.912   2.202   1.860 -0.4373 -0.7079 -1.0887
12358TIP3   OH258488   2.467   6.565  14.828 -0.4543 -0.2928  0.1998
12358TIP3    H158489   2.550   6.523  14.808 -0.3306 -0.7176  1.4950
12358TIP3    H258490   2.491   6.652  14.861 -0.6935  0.7565 -2.1805
12359TIP3   OH258491   4.749   2.289  14.578 -0.2023 -0.3521 -0.0511
12359TIP3    H158492   4.654   2.293  14.569 -0.2043  1.0396  0.2956
12359TIP3    H258493   4.777   2.224  14.514 -1.4284 -1.1725  0.2198
12360TIP3   OH258494   2.342   0.472   1.228 -0.1043 -0.5658  0.1636
12360TIP3    H158495   2.401   0.423   1.286 -0.0703 -0.3714  0.2969
12360TIP3    H258496   2.401   0.521   1.170 -0.0621  1.4834  1.8312
12361TIP3   OH258497   5.466   1.480   6.191  0.6844 -0.3991 -0.0022
12361TIP3    H158498   5.392   1.421   6.203  2.7834 -2.7946  2.5115
12361TIP3    H258499   5.435   1.565   6.223 -0.9567 -1.3710  1.1194
12362TIP3   OH258500   5.871   5.160   0.679 -0.0449  0.1982 -0.7864
12362TIP3    H158501   5.925   5.217   0.624  0.0974  0.8960  0.0657
12362TIP3    H258502   5.927   5.085   0.697  0.3851  0.5748 -0.5208
12363TIP3   OH258503   2.753   0.420  17.071  0.2863 -0.1292  0.8385
12363TIP3    H158504   2.715   0.350  17.019 -0.1121  1.2888 -0.8670
12363TIP3    H258505   2.846   0.419  17.048  0.1661  0.2951  0.3128
12364TIP3   OH258506   0.297   5.682  13.865 -0.0008  0.0399  0.4260
12364TIP3    H158507   0.215   5.681  13.817 -0.3258 -0.8832  0.9847
12364TIP3    H258508   0.295   5.763  13.916  1.1511  2.0172 -2.4117
12365TIP3   OH258509   1.997   5.677   0.994  0.0179 -0.8294 -0.0627
12365TIP3    H158510   1.980   5.584   1.009  1.0245 -1.5267 -2.6601
12365TIP3    H258511   2.071   5.697   1.051 -0.6837 -1.3617  1.0896
12366TIP3   OH258512   2.927   5.101  11.578  0.1213 -0.3677  0.5060
12366TIP3    H158513   3.022   5.106  11.569  0.1162 -1.4645 -0.4210
12366TIP3    H258514   2.908   5.007  11.584 -1.0256 -0.2778 -1.0165
12367TIP3   OH258515   1.785   3.060   1.120  0.6038  0.1488  0.0376
12367TIP3    H158516   1.810   3.129   1.059  2.1650 -0.0163  0.4402
12367TIP3    H258517   1.739   3.106   1.190 -0.3246  0.4651 -0.7580
12368TIP3   OH258518   5.645   0.467  11.438 -0.6214 -0.3778  0.1946
12368TIP3    H158519   5.737   0.477  11.463  0.0738 -2.2331 -1.3075
12368TIP3    H258520   5.636   0.517  11.357 -0.4698 -1.5060 -0.5376
12369TIP3   OH258521   5.698   3.063  13.209 -0.0464 -0.4956  0.0819
12369TIP3    H158522   5.721   3.009  13.285  0.9576  1.2312  1.0621
12369TIP3    H258523   5.725   3.151  13.233 -2.2398  0.6021 -1.2083
12370TIP3   OH258524   4.139   0.371   2.839 -0.3501 -0.0295  0.2197
12370TIP3    H158525   4.149   0.343   2.930 -0.4774  0.2380  0.3174
12370TIP3    H258526   4.223   0.352   2.798 -0.3077 -0.1896  0.3845
12371TIP3   OH258527   4.502   4.495  14.871  0.2009 -0.3900  0.3420
12371TIP3    H158528   4.549   4.414  14.888  0.0385 -0.5422  0.0713
12371TIP3    H258529   4.555   4.541  14.806  0.9309  0.2869  1.3866
12372TIP3   OH258530   6.446   5.487   4.467 -0.0214  0.4838 -0.2883
12372TIP3    H158531   6.539   5.469   4.459 -0.0953 -1.8502  2.5735
12372TIP3    H258532   6.441   5.561   4.528  0.0265 -1.2401  1.9388
12373TIP3   OH258533   0.979   2.646  16.477 -0.0797  0.6687 -0.2731
12373TIP3    H158534   1.022   2.574  16.522 -0.3615  0.5835 -0.1346
12373TIP3    H258535   0.886   2.625  16.483 -0.1367  0.8348 -0.5923
12374TIP3   OH258536   6.333   2.119  11.173 -0.0923  0.1183 -0.3059
12374TIP3    H158537   6.336   2.062  11.097  2.7682 -1.3255  0.7374
12374TIP3    H258538   6.325   2.059  11.248  0.0412  1.2750  0.6742
12375TIP3   OH258539   3.549   0.381  13.759 -0.1631  1.1750 -0.0015
12375TIP3    H158540   3.526   0.443  13.828  0.9126  0.5314  0.9502
12375TIP3    H258541   3.493   0.305  13.776  0.6713  0.6991  0.6582
12376TIP3   OH258542   1.905   0.051   0.159 -0.2973 -0.0246 -0.1559
12376TIP3    H158543   1.870   0.017   0.242  0.7647 -1.7937 -0.3729
12376TIP3    H258544   1.876  -0.013   0.094  1.8243 -0.5984 -0.5901
12377TIP3   OH258545   6.758   5.695  12.091  0.8121 -0.2203  0.2322
12377TIP3    H158546   6.735   5.776  12.045 -0.8077 -1.2612 -0.8852
12377TIP3    H258547   6.854   5.694  12.092  0.8792  1.7870  0.4462
12378TIP3   OH258548   4.773   3.392  12.285  0.0687  0.0793 -0.3986
12378TIP3    H158549   4.816   3.381  12.200 -0.6219  1.8020 -1.0214
12378TIP3    H258550   4.720   3.313  12.295  2.5757 -1.6564 -0.0277
12379TIP3   OH258551   5.849   2.171  14.280 -0.1489 -0.4650 -0.4706
12379TIP3    H158552   5.777   2.118  14.245 -0.8549  0.4122 -0.4080
12379TIP3    H258553   5.807   2.255  14.302  1.0982  0.4508 -1.4467
12380TIP3   OH258554   1.395   5.992   6.767 -0.2887 -0.5878  0.5641
12380TIP3    H158555   1.412   6.085   6.781  0.4137 -0.6538  0.1672
12380TIP3    H258556   1.481   5.953   6.751 -0.7371 -1.0250 -0.9674
12381TIP3   OH258557   1.551   5.896   0.274 -0.3196 -0.2559 -0.2964
12381TIP3    H158558   1.458   5.877   0.259 -0.5505 -0.1487  0.8933
12381TIP3    H258559   1.597   5.819   0.239 -0.8612 -0.3801 -0.7471
12382TIP3   OH258560   4.339   1.584  16.788  0.9704 -0.1599 -0.2780
12382TIP3    H158561   4.305   1.572  16.699  1.1477 -1.6661 -0.1785
12382TIP3    H258562   4.349   1.679  16.797 -0.7598  0.1659 -1.2141
12383TIP3   OH258563   0.565   5.792   3.559  0.0854  0.0106  0.1496
12383TIP3    H158564   0.469   5.800   3.558  0.1862  1.7021 -0.8971
12383TIP3    H258565   0.583   5.718   3.501 -0.6016 -1.4388  1.6819
12384TIP3   OH258566   4.050   4.061   4.025  0.2781  0.1697 -0.3278
12384TIP3    H158567   3.959   4.032   4.030  0.5563 -0.6808 -0.1323
12384TIP3    H258568   4.044   4.156   4.012 -0.6231  0.3126  0.9398
12385TIP3   OH258569   1.535   4.742  16.130  0.2999  0.0018 -0.1991
12385TIP3    H158570   1.612   4.731  16.185  0.7165 -1.4358 -1.0051
12385TIP3    H258571   1.569   4.762  16.043 -0.1312 -1.6185 -0.7932
12386TIP3   OH258572   0.815   1.700  11.928  0.1169  0.4528  0.4358
12386TIP3    H158573   0.911   1.692  11.922  0.4447  2.6797  1.6429
12386TIP3    H258574   0.782   1.643  11.859  2.3697  0.6916 -0.9456
12387TIP3   OH258575   2.583   5.083   0.010  0.0378  0.6770 -0.2629
12387TIP3    H158576   2.535   5.153  -0.035 -0.8518  0.4451  0.2827
12387TIP3    H258577   2.651   5.128   0.060  1.2563  0.9094 -2.0498
12388TIP3   OH258578   1.565   4.881   3.446  1.1322 -0.1564  0.4313
12388TIP3    H158579   1.639   4.845   3.398  1.3747 -0.8642  1.3193
12388TIP3    H258580   1.562   4.831   3.527  0.3342  0.5843  0.8748
12389TIP3   OH258581   3.227   3.037   0.474 -0.6065 -0.4189  0.2744
12389TIP3    H158582   3.134   3.028   0.454 -0.3395 -0.3402 -1.1493
12389TIP3    H258583   3.271   2.979   0.412  0.2782 -0.6977  1.1385
12390TIP3   OH258584   3.394   5.045  11.844  0.0648  0.1800 -0.0069
12390TIP3    H158585   3.458   4.978  11.868 -0.7890 -0.4055  0.6896
12390TIP3    H258586   3.349   5.009  11.768  1.5158  1.2344 -1.4436
12391TIP3   OH258587   2.149   2.096  14.079 -0.4893  0.2577  0.1416
12391TIP3    H158588   2.187   2.088  13.991 -1.4985 -0.0177 -0.2882
12391TIP3    H258589   2.058   2.068  14.068  0.0192 -2.4009  1.8209
12392TIP3   OH258590   5.941   1.187  15.548  0.8606 -0.0692 -0.1894
12392TIP3    H158591   5.902   1.178  15.461 -0.6665 -1.2477  0.5575
12392TIP3    H258592   6.034   1.203  15.532  0.6802 -0.6546 -2.0178
12393TIP3   OH258593   5.905   0.378   2.572 -0.4519  0.6297  0.6181
12393TIP3    H158594   5.824   0.427   2.560 -0.8159  0.2188  1.3588
12393TIP3    H258595   5.880   0.287   2.561  0.2542  0.5854 -0.9036
12394TIP3   OH258596   1.186   5.436   5.319  0.2472  0.1893 -0.3490
12394TIP3    H158597   1.139   5.423   5.236 -0.4828 -0.4247  0.1398
12394TIP3    H258598   1.206   5.347   5.349  0.3830  0.3995  0.1984
12395TIP3   OH258599   5.132   3.249   5.768 -0.1233 -0.0716  0.1092
12395TIP3    H158600   5.227   3.257   5.776  0.2641 -2.1319 -1.4652
12395TIP3    H258601   5.104   3.212   5.852  0.5036  0.2254  0.4577
12396TIP3   OH258602   6.744   3.995   0.102  0.4186  0.1144 -0.2456
12396TIP3    H158603   6.822   4.024   0.150 -0.8727  2.1184  0.8078
12396TIP3    H258604   6.679   3.978   0.170  0.5303 -3.9885 -0.9165
12397TIP3   OH258605   0.823   4.227  12.684 -0.3097  0.5463 -0.6486
12397TIP3    H158606   0.867   4.312  12.683 -0.9687  0.9216  0.4341
12397TIP3    H258607   0.826   4.200  12.776 -1.2011 -0.0110 -0.7702
12398TIP3   OH258608   5.244   0.890   3.942  0.2174 -0.1055 -0.4360
12398TIP3    H158609   5.273   0.834   4.014 -2.2384 -0.5942  0.2619
12398TIP3    H258610   5.241   0.978   3.980  0.2841 -0.1306 -0.3721
12399TIP3   OH258611   3.535   4.839  13.517  0.7267  0.3239  0.0092
12399TIP3    H158612   3.452   4.817  13.559 -0.4037  1.3115 -1.6515
12399TIP3    H258613   3.584   4.886  13.585 -0.2140  0.0942  0.8728
12400TIP3   OH258614   5.970   6.547  15.421 -0.8776  0.2872  0.5551
12400TIP3    H158615   5.961   6.568  15.328 -1.3919  3.0306  1.1332
12400TIP3    H258616   5.997   6.455  15.423 -1.8728 -0.1427 -2.2426
12401TIP3   OH258617   5.968   4.891   1.967  0.0118  0.3087  0.1534
12401TIP3    H158618   5.943   4.799   1.972  0.8648  0.0203 -0.6504
12401TIP3    H258619   6.049   4.892   1.916 -1.2915  1.7346 -2.0610
12402TIP3   OH258620   0.775   3.480   5.334  0.2348  0.1193 -0.5897
12402TIP3    H158621   0.784   3.403   5.278 -0.1467 -0.3213 -0.0585
12402TIP3    H258622   0.864   3.512   5.346  0.1752  1.3935 -3.0413
12403TIP3   OH258623   2.878   4.920   1.905 -0.7103 -1.1663 -0.2971
12403TIP3    H158624   2.825   4.989   1.945 -1.5941 -1.0096 -1.6584
12403TIP3    H258625   2.895   4.950   1.816  2.7296 -0.6902  0.3839
12404TIP3   OH258626   6.722   1.153   2.203  0.6409  0.3177  0.2815
12404TIP3    H158627   6.645   1.183   2.252  0.9365 -0.2091  1.0862
12404TIP3    H258628   6.685   1.120   2.121  0.2219  1.9418 -0.2235
12405TIP3   OH258629   2.556   3.258   5.845  0.4359 -0.1926  0.2040
12405TIP3    H158630   2.651   3.255   5.833  0.3129 -3.4849 -1.0804
12405TIP3    H258631   2.522   3.291   5.761  0.3965 -1.9913 -0.5286
12406TIP3   OH258632   6.588   2.157   1.446 -0.3003  0.1047  0.2477
12406TIP3    H158633   6.500   2.139   1.413  0.2907  1.2909 -2.2565
12406TIP3    H258634   6.616   2.075   1.486 -1.2281 -1.5172 -2.1785
12407TIP3   OH258635   3.822   4.661   6.011  0.1551  0.8998  0.3444
12407TIP3    H158636   3.822   4.742   6.062  0.0896  1.2223 -0.1659
12407TIP3    H258637   3.731   4.631   6.013 -0.1077  1.5873 -0.6392
12408TIP3   OH258638   4.278   6.759   4.849 -0.0738  0.3204 -0.3951
12408TIP3    H158639   4.332   6.710   4.910  0.6161  0.2622 -1.0433
12408TIP3    H258640   4.193   6.767   4.893  0.2114 -0.2914  0.2788
12409TIP3   OH258641   3.762   5.329   4.313  0.6194  0.3429 -0.3870
12409TIP3    H158642   3.845   5.284   4.298  0.7176  0.1847  0.5577
12409TIP3    H258643   3.786   5.422   4.316  1.4302  0.2000  3.3084
12410TIP3   OH258644   0.241   3.023   1.769 -0.3524  0.1407 -0.3103
12410TIP3    H158645   0.177   3.066   1.826  0.5965  1.0644  0.1055
12410TIP3    H258646   0.203   2.938   1.749 -1.2545  0.2808  0.7259
12411TIP3   OH258647   3.507   2.442   1.845  0.5932 -1.0523 -0.0262
12411TIP3    H158648   3.492   2.444   1.750  0.5052 -0.8327 -0.0083
12411TIP3    H258649   3.441   2.381   1.878  0.5299 -1.0184 -0.0901
12412TIP3   OH258650   6.211   5.665   2.580  0.0185  0.1404  0.3936
12412TIP3    H158651   6.223   5.615   2.661  4.5026 -0.1459 -0.2277
12412TIP3    H258652   6.170   5.603   2.520  0.7356 -1.1307  1.1695
12413TIP3   OH258653   4.929   3.580  13.289  0.3354  0.5633  0.5078
12413TIP3    H158654   4.857   3.607  13.232  0.8076  1.0428  0.1315
12413TIP3    H258655   4.905   3.491  13.316 -0.4498  0.7595  0.4776
12414TIP3   OH258656   2.725   1.645   2.699  0.6382  0.1940 -0.2828
12414TIP3    H158657   2.694   1.634   2.789 -0.5661 -0.9970 -0.8007
12414TIP3    H258658   2.654   1.608   2.645  1.7860 -0.0724 -1.6609
12415TIP3   OH258659   1.877   4.124   2.621 -0.7208  0.0834 -0.6502
12415TIP3    H158660   1.894   4.212   2.656  0.5371 -0.4372  0.1362
12415TIP3    H258661   1.782   4.118   2.615 -0.9788  0.4873  2.0423
12416TIP3   OH258662   2.252   0.929   4.522  0.5849 -0.4118  0.0263
12416TIP3    H158663   2.192   0.874   4.472 -0.6224  1.0561 -0.2318
12416TIP3    H258664   2.207   0.945   4.605  0.7732  0.4109 -0.0209
12417TIP3   OH258665   2.338   2.713  13.379  0.6584 -0.4600  0.6303
12417TIP3    H158666   2.337   2.623  13.412 -1.2043 -0.5536  0.4155
12417TIP3    H258667   2.375   2.705  13.291 -0.8062 -1.2672  0.0506
12418TIP3   OH258668   0.407   3.401  14.185  0.2741  0.4568  0.5745
12418TIP3    H158669   0.398   3.308  14.164  2.0121  0.6421 -1.3434
12418TIP3    H258670   0.335   3.420  14.245 -0.8242 -1.8525  0.0781
12419TIP3   OH258671   2.924   0.398   5.519  0.1961 -0.4003  0.3653
12419TIP3    H158672   3.018   0.400   5.500  0.2113  0.0598  0.4805
12419TIP3    H258673   2.884   0.376   5.435  0.3900 -0.3352  0.2551
12420TIP3   OH258674   3.639   6.481   6.325 -0.2327  1.1064  0.6660
12420TIP3    H158675   3.600   6.494   6.411  1.0362  2.1076  1.1294
12420TIP3    H258676   3.732   6.464   6.344 -0.5074 -2.3986 -0.2896
12421TIP3   OH258677   6.284   4.285  11.910  0.2806 -0.3095  0.1483
12421TIP3    H158678   6.293   4.275  11.815 -1.6929 -0.1439 -0.0855
12421TIP3    H258679   6.351   4.351  11.932  0.2841  0.2011 -1.2395
12422TIP3   OH258680   2.762   4.268  13.353 -0.0814  0.1391 -0.1040
12422TIP3    H158681   2.672   4.248  13.328 -0.3992  0.3936  0.8026
12422TIP3    H258682   2.785   4.203  13.419  0.9502 -0.8808 -1.4111
12423TIP3   OH258683   0.393   0.529   4.589 -0.7775 -0.3183  0.1696
12423TIP3    H158684   0.380   0.548   4.496 -0.9667 -0.9104  0.0670
12423TIP3    H258685   0.399   0.433   4.592  1.9559 -0.2399  0.3930
12424TIP3   OH258686   6.786   5.894  12.657  0.3312 -0.3606 -0.0745
12424TIP3    H158687   6.801   5.952  12.731 -0.1316 -1.0684  0.5834
12424TIP3    H258688   6.795   5.950  12.580  0.1782  0.5143  0.5367
12425TIP3   OH258689   6.626   6.168   0.729  0.0371 -0.5333 -0.1139
12425TIP3    H158690   6.566   6.242   0.739 -0.5459 -0.8594 -1.1015
12425TIP3    H258691   6.634   6.131   0.816 -0.5498  0.0129  0.1756
12426TIP3   OH258692   5.901   5.311   1.907  0.0486  0.3190  0.9865
12426TIP3    H158693   5.811   5.310   1.875 -0.7149 -0.1427  2.9670
12426TIP3    H258694   5.926   5.404   1.904 -0.9509  0.6230  1.5568
12427TIP3   OH258695   3.145   3.058   4.160 -0.2032  0.5917 -0.1689
12427TIP3    H158696   3.125   3.006   4.082  0.5163 -0.0046  0.0383
12427TIP3    H258697   3.213   3.119   4.132 -0.1725  0.5978 -0.0799
12428TIP3   OH258698   1.102   5.364  16.827 -0.2706 -0.4419 -0.2701
12428TIP3    H158699   1.122   5.313  16.749  0.0382 -1.0820  0.2152
12428TIP3    H258700   1.006   5.366  16.831 -0.2891 -0.1102 -0.8469
12429TIP3   OH258701   3.513   6.107  14.499 -0.0232 -0.0238  0.5628
12429TIP3    H158702   3.583   6.169  14.517  0.5233 -0.1828 -0.8719
12429TIP3    H258703   3.558   6.026  14.478 -0.7076 -0.6367  1.3845
12430TIP3   OH258704   5.789   4.614   4.994  0.2991 -0.2686  0.1247
12430TIP3    H158705   5.790   4.569   5.078  0.2719 -0.6705 -0.0905
12430TIP3    H258706   5.704   4.658   4.991  0.6241  0.4204  0.6579
12431TIP3   OH258707   0.415   3.342   4.502 -0.4551  0.1678 -0.0122
12431TIP3    H158708   0.502   3.348   4.542 -0.5323  0.5265  0.1100
12431TIP3    H258709   0.380   3.258   4.533  0.4031 -0.6479 -1.2116
12432TIP3   OH258710   0.354   6.746  12.529 -0.1546  0.3187 -0.5896
12432TIP3    H158711   0.277   6.758  12.586  1.1621  1.0002  1.1390
12432TIP3    H258712   0.353   6.822  12.471 -0.2548  0.8553  0.0970
12433TIP3   OH258713   0.781   3.283   4.017  0.4719 -0.4469 -0.4431
12433TIP3    H158714   0.689   3.290   4.043  1.1803 -0.8968  2.5582
12433TIP3    H258715   0.817   3.371   4.030  0.3418 -0.0397 -2.4814
12434TIP3   OH258716   6.097   2.507   3.007  0.2070 -0.1615  0.1606
12434TIP3    H158717   6.004   2.488   2.999  0.2394 -0.2620  0.0225
12434TIP3    H258718   6.136   2.475   2.926  0.1603  1.2082 -0.4298
12435TIP3   OH258719   0.024   3.059  13.464  0.1676 -0.3556 -0.9185
12435TIP3    H158720   0.042   2.971  13.432 -0.4374 -0.3122 -1.3872
12435TIP3    H258721  -0.046   3.048  13.528  1.3902 -0.4471  0.4644
12436TIP3   OH258722   3.561   4.269   1.445  0.2137 -0.2940  0.6490
12436TIP3    H158723   3.574   4.175   1.434  0.4330 -0.5331  2.6043
12436TIP3    H258724   3.469   4.278   1.469 -0.5292  0.3049 -2.0268
12437TIP3   OH258725   6.527   1.129   3.463 -0.3122 -0.3381  0.1336
12437TIP3    H158726   6.471   1.200   3.434 -1.1118 -0.9783  0.0632
12437TIP3    H258727   6.491   1.051   3.420  1.0861 -0.6534 -0.4999
12438TIP3   OH258728   0.835   0.735  13.291  0.0192 -0.2260  0.7339
12438TIP3    H158729   0.787   0.788  13.354  0.3676  0.5816  0.3315
12438TIP3    H258730   0.870   0.662  13.342 -1.1309 -0.5132  1.1435
12439TIP3   OH258731   1.046   6.357   6.217  0.7566  0.1639 -0.5237
12439TIP3    H158732   0.993   6.432   6.192  0.7620  0.0280 -0.9430
12439TIP3    H258733   0.992   6.281   6.195 -0.5886  0.0209  2.7335
12440TIP3   OH258734   5.708   5.117   0.922 -0.7863 -0.8333 -0.4695
12440TIP3    H158735   5.717   5.022   0.925  0.4873 -0.6998  0.2216
12440TIP3    H258736   5.721   5.139   0.830  0.2892 -1.2101 -0.4201
12441TIP3   OH258737   5.948   5.014  11.724  0.4712 -0.0923  0.4647
12441TIP3    H158738   6.014   5.073  11.687 -1.1781  2.3045  1.0405
12441TIP3    H258739   5.884   5.003  11.653 -0.5504  1.0283  1.1697
12442TIP3   OH258740   0.223   3.424  12.664  0.0035 -0.0463 -0.0341
12442TIP3    H158741   0.194   3.409  12.754  3.3922 -0.7382  1.1009
12442TIP3    H258742   0.222   3.520  12.654  0.2112  0.0692  0.9883
12443TIP3   OH258743   5.786   0.103  14.548  0.0197 -0.1324  0.0269
12443TIP3    H158744   5.851   0.089  14.479 -0.0477  0.3919 -0.1452
12443TIP3    H258745   5.837   0.135  14.623 -0.0285  0.1708 -0.0717
12444TIP3   OH258746   1.404   4.600  16.330  0.2806  0.3590 -0.1326
12444TIP3    H158747   1.436   4.660  16.262 -1.0349 -1.0639 -2.0997
12444TIP3    H258748   1.317   4.634  16.353  1.0591  1.3409  1.5644
12445TIP3   OH258749   1.206   5.654  14.115  0.2126  0.0698  0.1274
12445TIP3    H158750   1.248   5.644  14.030 -0.5443  0.0037 -0.2379
12445TIP3    H258751   1.230   5.574  14.162 -0.5632 -0.5713 -0.5411
12446TIP3   OH258752   2.145   1.950  16.540 -0.5455 -0.4470  0.1147
12446TIP3    H158753   2.236   1.979  16.549 -0.6509  0.2957 -0.9672
12446TIP3    H258754   2.149   1.882  16.472 -0.5917 -1.5226  1.1685
12447TIP3   OH258755   6.438   3.489   3.737  0.0719  0.0355  0.0965
12447TIP3    H158756   6.380   3.442   3.677  1.5357  0.1755 -1.5285
12447TIP3    H258757   6.406   3.580   3.735  1.1269  0.4242 -1.9292
12448TIP3   OH258758   2.838   3.359   0.102 -0.3782  0.2193 -0.0402
12448TIP3    H158759   2.902   3.299   0.141 -0.0318  0.5975 -0.0207
12448TIP3    H258760   2.863   3.365   0.010 -0.6895 -0.0191 -0.1425
12449TIP3   OH258761   3.828   3.708  14.637  0.3846  0.3286 -0.0244
12449TIP3    H158762   3.910   3.723  14.684  0.1959  0.5302  0.2481
12449TIP3    H258763   3.774   3.784  14.659 -0.3515 -0.4080  0.8430
12450TIP3   OH258764   6.154   3.248   3.833  0.4317  0.2124 -0.0374
12450TIP3    H158765   6.083   3.246   3.770 -0.3364  0.1834  0.8133
12450TIP3    H258766   6.171   3.342   3.847  0.0606  0.2288  0.3094
12451TIP3   OH258767   5.884   4.071  11.906  0.0223  0.3148  0.3143
12451TIP3    H158768   5.916   4.160  11.897 -0.0002  0.1602 -1.5668
12451TIP3    H258769   5.791   4.076  11.889  0.2781 -0.2716 -1.4045
12452TIP3   OH258770   2.143   3.359   3.573  0.2187 -0.0043  0.0499
12452TIP3    H158771   2.235   3.385   3.575  0.2022  0.0146  0.9401
12452TIP3    H258772   2.118   3.352   3.665  0.4975 -4.2442 -0.0031
12453TIP3   OH258773   1.458   6.699   2.553  0.3537 -0.4048 -0.0810
12453TIP3    H158774   1.538   6.687   2.603 -0.0590 -0.7525  0.5012
12453TIP3    H258775   1.473   6.779   2.502  0.6425  0.1652  0.8713
12454TIP3   OH258776   1.074   2.730  15.811 -0.4742 -0.2205  0.1992
12454TIP3    H158777   1.105   2.656  15.863  0.1129 -0.0077  0.1615
12454TIP3    H258778   1.121   2.806  15.847 -0.4164 -0.0013 -0.3323
12455TIP3   OH258779   1.703   4.545  16.024  0.8030 -0.5165 -0.0102
12455TIP3    H158780   1.725   4.566  15.934  3.0412 -0.0473  0.6045
12455TIP3    H258781   1.617   4.585  16.037  0.7409 -0.0159 -1.7107
12456TIP3   OH258782   1.682   3.072  12.985  0.0701 -0.1282  0.0854
12456TIP3    H158783   1.679   2.977  12.971 -1.2592 -0.1787  0.5940
12456TIP3    H258784   1.624   3.087  13.059 -2.5099  1.4288 -2.0665
12457TIP3   OH258785   4.137   1.689   0.508  0.3509 -0.3680  0.3524
12457TIP3    H158786   4.168   1.609   0.467  0.7075  0.2092 -0.5258
12457TIP3    H258787   4.165   1.759   0.449 -0.4394  0.3632  0.8232
12458TIP3   OH258788   2.745   1.183  13.063 -0.0725  0.1513  0.3026
12458TIP3    H158789   2.784   1.235  12.993  1.7727  0.3979  1.4437
12458TIP3    H258790   2.805   1.109  13.074  1.0349  1.3385  3.1429
12459TIP3   OH258791   2.483   5.354   5.209 -0.3236  0.3803  0.0971
12459TIP3    H158792   2.480   5.379   5.301  1.0368 -0.5390  0.4297
12459TIP3    H258793   2.577   5.346   5.190 -0.5904  0.2642 -1.2876
12460TIP3   OH258794   3.882   6.477   5.505 -0.2151 -0.0894 -0.1951
12460TIP3    H158795   3.804   6.431   5.536  0.0846  0.1339  0.9534
12460TIP3    H258796   3.866   6.568   5.530  0.8929 -0.2195  1.1194
12461TIP3   OH258797   3.642   6.662  11.752 -0.4527  0.1391  0.4155
12461TIP3    H158798   3.737   6.648  11.751 -0.5510 -0.6263 -0.9244
12461TIP3    H258799   3.612   6.628  11.668 -1.7379  1.6723  0.1950
12462TIP3   OH258800   6.582   2.415  13.765  0.7688 -0.4082  0.0530
12462TIP3    H158801   6.525   2.436  13.839  1.8543  0.9183  0.5767
12462TIP3    H258802   6.593   2.499  13.720  1.6621 -0.8029 -0.4845
12463TIP3   OH258803   0.010   6.737  14.726 -0.6341  0.4353 -0.0006
12463TIP3    H158804   0.084   6.676  14.725 -0.4590  0.6563 -0.8914
12463TIP3    H258805  -0.057   6.694  14.672 -0.4629  1.0839 -0.7384
12464TIP3   OH258806   4.843   2.540  12.674 -0.2034  0.1723 -0.0571
12464TIP3    H158807   4.756   2.550  12.637 -0.5012  1.2649  0.8488
12464TIP3    H258808   4.878   2.629  12.677 -0.0972  0.1194  1.9465
12465TIP3   OH258809   5.192   1.062   0.233 -0.0389  0.0303  0.0662
12465TIP3    H158810   5.215   0.970   0.243 -1.3955 -0.2533  0.9417
12465TIP3    H258811   5.222   1.103   0.314 -2.6871 -0.4101  1.3783
12466TIP3   OH258812   6.374   2.927   3.561  0.3522  0.1585  0.0147
12466TIP3    H158813   6.382   3.000   3.622 -1.1692  0.0541  0.3943
12466TIP3    H258814   6.384   2.848   3.615  0.6574  0.0818 -0.1548
12467TIP3   OH258815   1.720   0.116  15.861 -0.3152 -0.0091  0.0627
12467TIP3    H158816   1.723   0.208  15.835  1.4178 -0.1882 -0.4913
12467TIP3    H258817   1.809   0.096  15.889 -0.4145 -1.7596 -0.7248
12468TIP3   OH258818   5.504   2.147  13.491  0.2572  0.2521 -0.4671
12468TIP3    H158819   5.598   2.151  13.477  0.6373 -2.7632  0.6115
12468TIP3    H258820   5.478   2.239  13.502  3.0543  1.1653 -0.6297
12469TIP3   OH258821   5.128   5.703  16.732  0.1589  0.0993  0.3909
12469TIP3    H158822   5.090   5.778  16.685  0.5795  0.0421 -0.0470
12469TIP3    H258823   5.118   5.629  16.672  0.6547  0.0133  0.4116
12470TIP3   OH258824   1.384   5.618  15.658 -0.4852  0.1133 -0.3672
12470TIP3    H158825   1.461   5.649  15.611  0.2409  1.0963  1.3868
12470TIP3    H258826   1.409   5.620  15.750 -2.4808  0.0687  0.2267
12471TIP3   OH258827   2.658   6.404  14.594  0.0997 -0.5744 -0.7532
12471TIP3    H158828   2.693   6.412  14.683 -0.4374  0.1636 -0.5949
12471TIP3    H258829   2.713   6.338  14.552  0.7210 -0.5154 -0.0498
12472TIP3   OH258830   5.876   0.483   6.118  0.2158 -0.0711  0.1995
12472TIP3    H158831   5.903   0.499   6.027 -0.8468  0.8529  0.0166
12472TIP3    H258832   5.861   0.571   6.154 -1.8064 -0.4705  0.4643
12473TIP3   OH258833   5.590   6.734  15.659  0.2211  0.6529  0.0859
12473TIP3    H158834   5.627   6.817  15.630 -2.8010  1.8723 -0.6538
12473TIP3    H258835   5.496   6.742  15.643 -0.2977 -2.6768  0.6156
12474TIP3   OH258836   1.452   0.687  13.835 -0.4950  0.6236 -0.4791
12474TIP3    H158837   1.537   0.651  13.810 -0.5103 -0.0099  0.3481
12474TIP3    H258838   1.421   0.731  13.756 -0.1811 -0.6550 -1.3503
12475TIP3   OH258839   3.111   4.500   1.027  0.5125  0.1278 -0.0953
12475TIP3    H158840   3.174   4.428   1.024 -0.3374 -0.6215 -0.2120
12475TIP3    H258841   3.146   4.564   0.965 -0.9183 -2.0605 -3.4592
12476TIP3   OH258842   0.716   0.227   3.089 -0.2568  0.0155  0.3895
12476TIP3    H158843   0.740   0.259   3.002 -0.2543 -1.5975 -0.2247
12476TIP3    H258844   0.712   0.132   3.080 -4.6220 -0.0589  0.9938
12477TIP3   OH258845   6.635   3.611  11.864 -0.1538  0.0104 -0.3801
12477TIP3    H158846   6.545   3.598  11.893 -0.7286  1.4569 -1.4000
12477TIP3    H258847   6.645   3.554  11.788  0.4759 -1.6988  0.9366
12478TIP3   OH258848   2.562   3.323  11.096 -0.9801 -0.1750  0.5470
12478TIP3    H158849   2.625   3.261  11.058 -1.3759  0.3325 -1.0298
12478TIP3    H258850   2.576   3.317  11.190  1.9791  0.4887  0.2547
12479TIP3   OH258851   1.547   0.262  12.808 -0.6628  0.1033 -0.1031
12479TIP3    H158852   1.596   0.341  12.832 -0.2410 -0.3806  0.6609
12479TIP3    H258853   1.501   0.237  12.888 -1.7107  0.2082 -0.6483
12480TIP3   OH258854   2.665   2.338  16.146  0.7638 -0.0092  0.3575
12480TIP3    H158855   2.613   2.334  16.066 -0.7067 -1.3268  1.3153
12480TIP3    H258856   2.683   2.432  16.158  1.5778  0.1691 -1.8034
12481TIP3   OH258857   3.373   5.601  10.994  0.1277 -0.1776  0.1217
12481TIP3    H158858   3.355   5.645  11.077 -0.2356  0.2172 -0.1563
12481TIP3    H258859   3.460   5.565  11.004 -0.0602 -0.4500  0.8071
12482TIP3   OH258860   2.477   1.395  15.072  0.5134 -0.5030  0.5476
12482TIP3    H158861   2.563   1.399  15.114  1.1290  0.3517 -0.7132
12482TIP3    H258862   2.485   1.454  14.996 -0.9526 -0.9773 -0.0078
12483TIP3   OH258863   0.974   4.636   1.490 -0.4197 -0.3055  0.1458
12483TIP3    H158864   0.962   4.549   1.454  0.7829 -0.3923 -0.0949
12483TIP3    H258865   0.992   4.622   1.583  0.2770 -0.3649  0.0092
12484TIP3   OH258866   5.849   4.694   1.101  0.3672 -0.4898 -0.5007
12484TIP3    H158867   5.826   4.615   1.150  1.5407 -0.4317  0.1809
12484TIP3    H258868   5.926   4.669   1.049  0.7850  0.2174 -0.2317
12485TIP3   OH258869   4.295   5.989  16.098  0.4042 -0.3468 -0.3505
12485TIP3    H158870   4.261   6.016  16.013 -0.7006  2.5417  0.8821
12485TIP3    H258871   4.389   6.007  16.093  0.0164  2.0294 -0.2985
12486TIP3   OH258872   4.756   0.260   2.831  0.0634  0.1526  0.3199
12486TIP3    H158873   4.696   0.188   2.849  0.9306 -1.4247 -2.4592
12486TIP3    H258874   4.706   0.339   2.850 -1.9410 -1.1497  0.6856
12487TIP3   OH258875   4.880   6.691  16.844  0.2567 -0.4368 -0.9450
12487TIP3    H158876   4.901   6.626  16.911 -0.1074  1.8208  1.5138
12487TIP3    H258877   4.941   6.763  16.859 -1.0741  0.9447 -1.7828
12488TIP3   OH258878   5.358   4.789  14.392 -0.4795 -0.9744 -0.5783
12488TIP3    H158879   5.334   4.848  14.321 -0.3262  0.7066  0.7003
12488TIP3    H258880   5.428   4.734  14.355  0.6356  0.8545 -1.3192
12489TIP3   OH258881   5.581   2.486  11.869  0.1874 -0.1023  0.2944
12489TIP3    H158882   5.603   2.536  11.948 -1.1824  0.0428  0.5974
12489TIP3    H258883   5.650   2.420  11.863  0.0407 -0.4380  1.8939
12490TIP3   OH258884   2.757   4.705   1.607  0.2755 -0.5331  0.3861
12490TIP3    H158885   2.762   4.648   1.531  2.1493  0.8662 -0.6389
12490TIP3    H258886   2.698   4.776   1.580 -1.1025 -1.3147  1.2226
12491TIP3   OH258887   0.728   0.665  14.464  0.0238 -0.2587  0.3084
12491TIP3    H158888   0.704   0.719  14.539 -0.5732 -0.7677  0.4902
12491TIP3    H258889   0.645   0.634  14.429  0.3558 -0.9555  0.1269
12492TIP3   OH258890   2.370   0.508  15.247 -0.2618 -0.7316 -0.1894
12492TIP3    H158891   2.353   0.536  15.337 -0.1423  0.5032 -0.5378
12492TIP3    H258892   2.464   0.521  15.235 -0.4426  0.0855 -0.8070
12493TIP3   OH258893   5.351   2.108   3.685  1.0170 -0.5719  0.5757
12493TIP3    H158894   5.436   2.102   3.643  1.6315  0.0125  1.7093
12493TIP3    H258895   5.291   2.064   3.624  1.7063  0.9792 -1.3213
12494TIP3   OH258896   5.814   1.003   5.907  0.7259  0.0333  0.3307
12494TIP3    H158897   5.861   1.086   5.904 -0.4423  0.7552  1.3566
12494TIP3    H258898   5.858   0.952   5.975  2.0691 -0.6274 -0.9667
12495TIP3   OH258899   1.491   2.697   2.325  0.3241 -0.4278 -0.2342
12495TIP3    H158900   1.571   2.723   2.371  0.8630 -3.9483  1.2028
12495TIP3    H258901   1.519   2.680   2.235  0.5781  0.7731 -0.4002
12496TIP3   OH258902   2.821   3.253   2.460  0.3998 -0.7836  0.2829
12496TIP3    H158903   2.910   3.261   2.423  1.0293  1.2398  2.0522
12496TIP3    H258904   2.834   3.212   2.545 -0.2717  0.0094  0.7823
12497TIP3   OH258905   0.721   0.714   2.413  0.0484  0.0198 -0.3414
12497TIP3    H158906   0.762   0.628   2.411 -0.1270 -0.0598 -0.7444
12497TIP3    H258907   0.627   0.696   2.404 -0.3495  0.0491  2.7345
12498TIP3   OH258908   0.955   0.521  16.226  0.2126 -0.1447  0.2719
12498TIP3    H158909   0.991   0.460  16.162  1.3329  2.9412 -2.3632
12498TIP3    H258910   1.031   0.562  16.267 -0.4955 -0.5210  2.0809
12499TIP3   OH258911   6.195   4.824   0.159  0.3280  0.0520  0.2073
12499TIP3    H158912   6.236   4.754   0.108 -0.9178 -1.6107  1.3453
12499TIP3    H258913   6.152   4.879   0.094  1.2749 -0.2888 -0.7280
12500TIP3   OH258914   1.539   5.936  14.882 -0.2787  0.4046 -0.4922
12500TIP3    H158915   1.603   5.948  14.952 -4.5341  2.5879  3.6636
12500TIP3    H258916   1.511   5.844  14.891 -0.0220  0.3631 -0.0957
12501TIP3   OH258917   0.164   0.242  17.011  0.4674  0.4538 -0.1324
12501TIP3    H158918   0.179   0.321  16.958  0.3211  0.6176  0.0706
12501TIP3    H258919   0.178   0.270  17.101  2.3130 -0.1978 -0.1659
12502TIP3   OH258920   6.674   1.783   1.323 -0.4174  0.4306  0.7058
12502TIP3    H158921   6.617   1.852   1.289 -1.5067 -0.7237  0.1038
12502TIP3    H258922   6.712   1.821   1.402 -1.5988  1.4427  0.8245
12503TIP3   OH258923   5.531   3.884   3.795  0.3015 -0.1374  0.0438
12503TIP3    H158924   5.436   3.888   3.801  0.3396  0.4596  0.3069
12503TIP3    H258925   5.548   3.825   3.722 -0.2501 -1.5842  1.0205
12504TIP3   OH258926   6.209   3.763  13.093 -0.0071  0.5983 -0.0265
12504TIP3    H158927   6.178   3.852  13.111  0.1981  0.8781 -0.9937
12504TIP3    H258928   6.195   3.716  13.175  1.1392  1.8702  0.9556
12505TIP3   OH258929   3.979   5.159   4.300  0.0601  0.2110 -0.1228
12505TIP3    H158930   4.069   5.191   4.295  0.5481 -0.3758  2.9859
12505TIP3    H258931   3.985   5.066   4.278  0.4085 -0.0391  0.9694
12506TIP3   OH258932   5.264   5.674  11.017 -0.1097  0.1848  0.1008
12506TIP3    H158933   5.222   5.742  11.069 -0.2181  0.4624 -0.3389
12506TIP3    H258934   5.346   5.655  11.062 -0.9274 -0.7172  1.2459
12507TIP3   OH258935   3.714   0.603   0.041 -0.0260  0.0965  0.1306
12507TIP3    H158936   3.790   0.563   0.084  0.0879  0.4640  0.2733
12507TIP3    H258937   3.748   0.682  -0.000  0.1977 -1.0206 -1.9770
12508TIP3   OH258938   0.772   3.226  10.737 -0.0698 -0.1488  0.1882
12508TIP3    H158939   0.684   3.187  10.736  0.4650 -1.4197  0.0959
12508TIP3    H258940   0.820   3.177  10.670  0.3730  1.3868 -0.6445
12509TIP3   OH258941   2.129   2.870   6.115  0.6329  0.0426 -0.4525
12509TIP3    H158942   2.206   2.833   6.158  2.2574  3.1602 -0.4566
12509TIP3    H258943   2.109   2.949   6.166 -1.0317  0.6582 -1.9601
12510TIP3   OH258944   3.089   1.655   1.031 -0.2931 -0.3849 -0.0520
12510TIP3    H158945   3.106   1.575   1.080 -1.7780 -0.0592  1.0958
12510TIP3    H258946   3.130   1.724   1.083 -0.7041 -0.1845  0.0073
12511TIP3   OH258947   4.949   1.596  13.660  0.7925  0.2798 -0.1033
12511TIP3    H158948   4.966   1.512  13.619  0.0279  1.0154 -2.0192
12511TIP3    H258949   4.880   1.578  13.725 -0.2635 -0.3775 -1.3695
12512TIP3   OH258950   2.542   3.930  14.458 -0.1432 -0.1675 -0.4240
12512TIP3    H158951   2.449   3.920  14.438 -0.2425  1.1891 -0.7371
12512TIP3    H258952   2.545   4.003  14.519  0.8699  1.1082 -1.9372
12513TIP3   OH258953   1.728   6.721   1.716  0.0672 -0.0332  0.5566
12513TIP3    H158954   1.652   6.719   1.774 -1.4643 -0.9637 -1.3289
12513TIP3    H258955   1.781   6.647   1.743 -0.2085  0.0335  1.2897
12514TIP3   OH258956   6.033   3.066  12.749  0.3300  0.0405 -0.2242
12514TIP3    H158957   6.019   3.151  12.790  1.1757  0.4553 -0.7844
12514TIP3    H258958   6.063   3.010  12.821 -3.2492 -0.7157  0.8987
12515TIP3   OH258959   0.776   1.008   6.423 -0.0787  0.1599  0.3438
12515TIP3    H158960   0.830   0.997   6.501  0.8657 -4.1916 -0.6717
12515TIP3    H258961   0.833   1.050   6.359  0.6852 -0.4112  0.6371
12516TIP3   OH258962   4.630   2.379  13.379  0.9984  0.2200  0.2728
12516TIP3    H158963   4.652   2.307  13.437  0.7781 -0.0712 -0.0036
12516TIP3    H258964   4.557   2.424  13.423 -1.5578 -2.0427 -1.3790
12517TIP3   OH258965   4.315   1.329   1.978  0.1424 -0.5534 -0.8174
12517TIP3    H158966   4.287   1.420   1.995 -0.3796 -0.7058 -0.8344
12517TIP3    H258967   4.329   1.326   1.883  0.7501 -0.3320 -0.7384
12518TIP3   OH258968   0.590   4.468  10.681  0.3159 -0.6382 -0.5686
12518TIP3    H158969   0.537   4.393  10.706 -1.3708  0.6036 -0.1723
12518TIP3    H258970   0.526   4.536  10.659  1.7504  0.9318 -0.1335
12519TIP3   OH258971   4.394   0.507   0.556  0.3852  0.0941  0.0454
12519TIP3    H158972   4.350   0.437   0.508 -0.5963 -0.6765  1.9620
12519TIP3    H258973   4.418   0.571   0.489  0.0068 -1.3918 -1.5716
12520TIP3   OH258974   3.988   5.373   3.618 -0.4657  0.1937  0.1672
12520TIP3    H158975   4.049   5.303   3.642  0.2162  0.6047 -0.3115
12520TIP3    H258976   3.906   5.328   3.600 -0.1972 -0.4216  0.4388
12521TIP3   OH258977   0.622   6.745   1.142 -0.1398  0.0800 -0.0625
12521TIP3    H158978   0.713   6.722   1.120 -0.3805 -0.5368 -0.4195
12521TIP3    H258979   0.625   6.766   1.235  0.1650 -1.0001  0.1843
12522TIP3   OH258980   1.602   1.360   0.262 -0.0923 -0.0382 -0.3450
12522TIP3    H158981   1.547   1.438   0.263 -1.1554 -0.7762  0.6284
12522TIP3    H258982   1.691   1.395   0.256 -0.5478  1.2541 -0.0168
12523TIP3   OH258983   4.991   5.502   4.329 -0.2671  0.0085 -0.3939
12523TIP3    H158984   4.982   5.597   4.317 -2.5903  0.1210  1.4914
12523TIP3    H258985   4.901   5.470   4.335  0.4034 -1.6969  2.9854
12524TIP3   OH258986   0.665   1.961   0.293  0.0621 -0.4009 -0.1534
12524TIP3    H158987   0.698   2.036   0.342  0.4656 -0.3174 -0.5498
12524TIP3    H258988   0.573   1.955   0.317  0.2531 -0.3576  0.6081
12525TIP3   OH258989   5.913   4.946   2.819  0.1863 -0.1514  0.1652
12525TIP3    H158990   5.854   4.994   2.761 -1.3405 -0.4028  1.4371
12525TIP3    H258991   5.873   4.955   2.906  1.7492 -0.8004  0.9808
12526TIP3   OH258992   4.419   5.679   0.642 -0.8810 -0.4272 -0.0612
12526TIP3    H158993   4.503   5.634   0.639 -1.1079 -0.8629  0.0554
12526TIP3    H258994   4.393   5.688   0.550  0.3980  1.8290 -0.2633
12527TIP3   OH258995   4.387   2.206  14.807 -0.5821 -0.0366 -0.1041
12527TIP3    H158996   4.445   2.139  14.843 -0.2946  0.9113  1.2407
12527TIP3    H258997   4.300   2.180  14.835 -0.6481 -0.6039 -0.7974
12528TIP3   OH258998   4.428   5.286  16.245 -0.2961  0.1632  0.0456
12528TIP3    H158999   4.520   5.258  16.250 -0.5400 -1.1326 -1.6616
12528TIP3    H259000   4.431   5.372  16.203  0.1597  0.2510  0.2532
12529TIP3   OH259001   0.323   1.322   2.818 -0.2062  0.4429 -0.3920
12529TIP3    H159002   0.391   1.386   2.799 -0.1666  0.3924 -0.4193
12529TIP3    H259003   0.242   1.362   2.784 -0.2043  0.5417 -0.2790
12530TIP3   OH259004   1.703   5.358  13.824  0.0312  0.0401  0.6811
12530TIP3    H159005   1.761   5.320  13.890 -0.5266  0.9571  1.7563
12530TIP3    H259006   1.630   5.394  13.875  0.2248  1.9702 -0.2919
12531TIP3   OH259007   6.608   4.499  11.322 -0.4158 -0.0107  0.2100
12531TIP3    H159008   6.646   4.546  11.248  2.7536 -1.3308  0.8529
12531TIP3    H259009   6.612   4.561  11.395 -1.2660  0.4607 -0.1279
12532TIP3   OH259010   6.566   3.223   2.939  0.3158  0.1633 -0.0822
12532TIP3    H159011   6.592   3.163   3.009 -1.6964 -0.3422  0.2805
12532TIP3    H259012   6.647   3.239   2.890  1.5151 -0.4448  1.6093
12533TIP3   OH259013   1.640   1.142   4.480  0.2268  0.0209  0.3058
12533TIP3    H159014   1.659   1.150   4.574 -0.1658  0.5878  0.3421
12533TIP3    H259015   1.722   1.166   4.437 -0.2843  2.2813  0.4647
12534TIP3   OH259016   4.683   4.843   3.434 -0.3386 -0.3305 -0.4154
12534TIP3    H159017   4.639   4.928   3.442  0.3059 -0.1363  1.7161
12534TIP3    H259018   4.620   4.787   3.390 -1.7136  0.6400  0.2440
12535TIP3   OH259019   5.850   6.178   2.446  0.4274 -0.0962  0.2778
12535TIP3    H159020   5.919   6.240   2.470  0.2857  0.7821 -1.4505
12535TIP3    H259021   5.885   6.132   2.370 -1.0701  0.7447 -0.9758
12536TIP3   OH259022   5.297   2.309   4.753 -0.3086  0.8676  0.4507
12536TIP3    H159023   5.353   2.357   4.692 -0.2605 -0.6391 -0.7618
12536TIP3    H259024   5.208   2.335   4.730 -0.2526  0.8511  0.2101
12537TIP3   OH259025   2.512   1.517   0.350 -0.0704 -0.2774 -0.4100
12537TIP3    H159026   2.599   1.528   0.311  1.8804 -0.5798  3.3848
12537TIP3    H259027   2.495   1.600   0.395 -1.0646 -0.7311  0.0870
12538TIP3   OH259028   6.406   6.074   4.879 -0.2996  0.7500  0.4500
12538TIP3    H159029   6.488   6.046   4.919  0.9301  2.9793 -0.3579
12538TIP3    H259030   6.386   6.157   4.921 -1.6276  0.7152 -0.0756
12539TIP3   OH259031   0.193   0.749   6.004  0.4040 -1.0012  0.1509
12539TIP3    H159032   0.280   0.767   6.040  0.5914 -1.4157 -0.0956
12539TIP3    H259033   0.168   0.665   6.042  1.8255 -2.9564 -2.8591
12540TIP3   OH259034   5.041   1.082   4.233  0.4054  0.0859  0.3138
12540TIP3    H159035   5.096   1.124   4.167  1.4014 -1.1305  0.3416
12540TIP3    H259036   5.069   1.121   4.316  1.5315 -0.7911  0.3723
12541TIP3   OH259037   3.548   4.369   1.173  0.0482 -0.1456 -0.5611
12541TIP3    H159038   3.628   4.324   1.200  0.5508  0.4036 -1.0970
12541TIP3    H259039   3.513   4.406   1.254  0.4297 -0.2401 -0.3489
12542TIP3   OH259040   4.057   6.334   1.498  0.4261 -0.0186 -0.3326
12542TIP3    H159041   4.020   6.303   1.581 -1.7052 -1.8133 -1.8264
12542TIP3    H259042   4.137   6.283   1.487 -0.3448 -1.2857 -0.2861
12543TIP3   OH259043   6.812   1.514   0.842  0.2130  0.1850  0.3088
12543TIP3    H159044   6.806   1.473   0.928  2.0046  0.4418  0.6001
12543TIP3    H259045   6.893   1.565   0.845  0.0062  0.6843 -1.3280
12544TIP3   OH259046   5.827   4.289  16.288 -0.7103 -0.5095  0.2145
12544TIP3    H159047   5.878   4.348  16.343  1.7052 -0.9741 -1.3940
12544TIP3    H259048   5.739   4.327  16.287  0.6532  3.0206 -0.6053
12545TIP3   OH259049   0.212   3.468  12.137  0.7711  0.3837 -0.1458
12545TIP3    H159050   0.195   3.384  12.179  0.2047  0.0339 -1.0325
12545TIP3    H259051   0.272   3.448  12.065 -0.3602  0.5003 -1.1582
12546TIP3   OH259052   5.616   2.376   3.573  0.2461  0.0575 -0.1476
12546TIP3    H159053   5.624   2.390   3.667 -2.3036  1.0446 -0.0025
12546TIP3    H259054   5.570   2.293   3.565 -0.3772  0.4300 -0.4792
12547TIP3   OH259055   0.716   4.687  10.538 -0.0205 -0.0141 -0.1347
12547TIP3    H159056   0.708   4.613  10.597  1.4258 -0.1960 -0.1336
12547TIP3    H259057   0.810   4.709  10.539 -0.4516  2.0200  0.1147
12548TIP3   OH259058   2.849   1.581   2.996 -0.6561  0.1312 -0.3989
12548TIP3    H159059   2.765   1.583   2.951 -0.5635  0.3176 -0.5653
12548TIP3    H259060   2.827   1.570   3.089 -0.8245 -1.0476 -0.5613
12549TIP3   OH259061   5.442   2.875   0.494 -0.1630 -0.2709  0.1817
12549TIP3    H159062   5.513   2.855   0.554  0.9201  0.6113 -0.7642
12549TIP3    H259063   5.432   2.795   0.442  1.0801  0.0535 -0.5885
12550TIP3   OH259064   2.751   1.296   4.891  0.0138  0.5434 -0.6077
12550TIP3    H159065   2.799   1.213   4.882 -0.9033  0.1843 -2.5997
12550TIP3    H259066   2.818   1.363   4.888  0.5629 -0.0274 -1.7143
12551TIP3   OH259067   5.629   0.013  11.535 -0.6846 -0.1705 -0.0329
12551TIP3    H159068   5.642  -0.074  11.499  0.8883  0.4766 -1.1241
12551TIP3    H259069   5.535   0.027  11.532 -0.8651 -1.4538 -0.7296
12552TIP3   OH259070   6.031   2.777  15.168 -0.1524 -0.4239 -0.2688
12552TIP3    H159071   6.076   2.697  15.141 -0.6519 -0.3849 -1.2329
12552TIP3    H259072   5.944   2.771  15.128 -0.0948  0.7384 -0.6138
12553TIP3   OH259073   2.154   6.251   3.820 -0.3475 -0.4452 -0.2140
12553TIP3    H159074   2.159   6.344   3.843 -0.9017  0.2003 -2.4714
12553TIP3    H259075   2.069   6.223   3.854  0.6968 -0.7590  2.3667
12554TIP3   OH259076   1.309   4.025   6.458  0.6996 -0.0854 -0.0867
12554TIP3    H159077   1.340   4.104   6.502  0.7941 -0.4039  0.4287
12554TIP3    H259078   1.382   3.997   6.403  0.6094  0.2724 -0.3880
12555TIP3   OH259079   2.027   1.905  12.565  0.0647  0.1569  0.4144
12555TIP3    H159080   2.093   1.926  12.499  0.8266 -0.9468  0.7984
12555TIP3    H259081   2.045   1.965  12.637 -0.9195  1.5326 -0.4322
12556TIP3   OH259082   1.856   3.896   2.046 -0.3378  0.0216  0.1208
12556TIP3    H159083   1.906   3.885   1.965 -1.3072 -0.2767 -0.4591
12556TIP3    H259084   1.863   3.989   2.067  0.0593  0.0677 -0.2024
12557TIP3   OH259085   3.469   1.109  12.636 -0.3665 -0.8375  0.4336
12557TIP3    H159086   3.431   1.060  12.709  1.4176 -1.1775  1.1902
12557TIP3    H259087   3.523   1.176  12.678 -0.7686  0.1534 -0.5913
12558TIP3   OH259088   6.770   1.000   5.460 -0.0703  0.7950  0.3882
12558TIP3    H159089   6.720   1.035   5.387 -0.6523 -0.4921  0.1532
12558TIP3    H259090   6.720   1.027   5.538 -0.3977  0.6654  0.2242
12559TIP3   OH259091   1.012   5.426   1.982 -0.2383  0.0829  0.0993
12559TIP3    H159092   1.004   5.449   2.075  0.0158  0.2299  0.0846
12559TIP3    H259093   0.927   5.387   1.960 -0.8748  1.4504 -0.0050
12560TIP3   OH259094   3.189   1.742  12.680  0.0787 -0.0333  0.2163
12560TIP3    H159095   3.095   1.744  12.697  0.6580  1.2068  4.2337
12560TIP3    H259096   3.217   1.657  12.713  0.6831  0.7572  1.8616
12561TIP3   OH259097   0.393   4.799   3.834 -0.3418  0.5524  0.2349
12561TIP3    H159098   0.386   4.762   3.746 -0.7699  2.1312 -0.4267
12561TIP3    H259099   0.323   4.865   3.839 -0.2136  0.6269  1.6986
12562TIP3   OH259100   3.458   1.635   2.000 -0.1520  0.3785 -0.2469
12562TIP3    H159101   3.456   1.539   2.003  1.7188  0.2994 -0.1495
12562TIP3    H259102   3.421   1.658   1.915 -0.6103 -0.4163 -0.2710
12563TIP3   OH259103   2.578   1.728   4.036  0.1761  0.1345 -0.3087
12563TIP3    H159104   2.640   1.791   4.075 -0.3895  0.1571  0.5752
12563TIP3    H259105   2.600   1.645   4.078  0.4415 -0.1118 -0.9382
12564TIP3   OH259106   6.627   2.886   4.704  0.8301 -0.4534  0.4625
12564TIP3    H159107   6.560   2.920   4.645  0.1938 -0.8007  0.9611
12564TIP3    H259108   6.705   2.878   4.650  0.8120  1.1254  0.1727
12565TIP3   OH259109   5.292   5.236  15.899 -0.3557 -0.2855  0.3879
12565TIP3    H159110   5.342   5.220  15.979  0.1064 -0.3295  0.0920
12565TIP3    H259111   5.286   5.332  15.893 -0.9411 -0.2903  0.8105
12566TIP3   OH259112   1.731   4.202  11.451  0.5435 -0.1308 -0.1578
12566TIP3    H159113   1.703   4.293  11.453 -2.0947 -0.7704 -2.1759
12566TIP3    H259114   1.717   4.171  11.541 -1.5075  0.7088 -0.1223
12567TIP3   OH259115   1.418   4.987   1.321  0.5696  0.4004 -0.4141
12567TIP3    H159116   1.371   4.920   1.371  1.1170  0.7237  0.5766
12567TIP3    H259117   1.387   4.977   1.231 -2.2181  1.3055  0.3499
12568TIP3   OH259118   2.230   1.653   4.904 -0.0348  0.1699  0.1483
12568TIP3    H159119   2.151   1.667   4.852 -0.9355 -0.0816  1.4112
12568TIP3    H259120   2.258   1.740   4.931  0.4692  0.3053 -0.7805
12569TIP3   OH259121   3.983   2.368  14.899  0.5798  0.0405  0.0099
12569TIP3    H159122   4.013   2.282  14.867  1.1770  0.1069  0.3870
12569TIP3    H259123   3.913   2.347  14.960  0.6786 -0.1793  0.0511
12570TIP3   OH259124   6.714   3.153  12.241 -0.4933  0.1194 -0.3877
12570TIP3    H159125   6.701   3.239  12.282 -0.5934  0.0405 -0.2541
12570TIP3    H259126   6.641   3.145  12.180  1.0149  1.3443 -2.4761
12571TIP3   OH259127   1.596   6.403   3.747  0.8778  0.2368  0.3522
12571TIP3    H159128   1.562   6.356   3.671 -0.5320  1.2530  0.3217
12571TIP3    H259129   1.588   6.341   3.820  0.9753 -0.2732 -0.0695
12572TIP3   OH259130   5.805   3.870   3.651 -0.6256  0.1286  0.4500
12572TIP3    H159131   5.801   3.958   3.689 -0.8508  0.2160  0.2292
12572TIP3    H259132   5.777   3.883   3.560 -1.7151 -0.3527  0.7111
12573TIP3   OH259133   4.911   4.878  11.121  0.2798  0.2319  0.1728
12573TIP3    H159134   4.827   4.854  11.161  0.5178 -1.0563 -0.0638
12573TIP3    H259135   4.893   4.960  11.075 -0.4647  0.7604  1.3513
12574TIP3   OH259136   6.142   0.772   1.815 -0.3733  0.1145 -0.1278
12574TIP3    H159137   6.219   0.790   1.761  0.1718 -0.4106  0.4656
12574TIP3    H259138   6.100   0.697   1.773  0.7271 -1.0882  0.8390
12575TIP3   OH259139   0.170   3.872   6.549  0.4674  0.3290  0.1525
12575TIP3    H159140   0.120   3.951   6.529 -2.1382 -0.2993  3.3760
12575TIP3    H259141   0.257   3.905   6.573 -0.1257  2.0663  0.0522
12576TIP3   OH259142   4.111   3.366  13.269 -0.5814 -0.1120 -0.2798
12576TIP3    H159143   4.144   3.374  13.359  0.6234 -2.1322 -0.4688
12576TIP3    H259144   4.185   3.392  13.214  0.1536 -2.7564 -0.6848
12577TIP3   OH259145   6.449   1.707   3.418  0.1015 -0.1536 -0.0465
12577TIP3    H159146   6.415   1.763   3.488  2.7259  0.8698  0.5236
12577TIP3    H259147   6.426   1.618   3.446 -1.9923  0.4147  0.2649
12578TIP3   OH259148   2.365   3.577   0.843  0.1706  0.0760  0.2067
12578TIP3    H159149   2.425   3.554   0.772 -1.4438 -0.7930 -0.9399
12578TIP3    H259150   2.317   3.653   0.811 -1.4489 -1.0701 -0.2468
12579TIP3   OH259151   4.799   4.909  11.537  0.1389 -0.1160 -0.2853
12579TIP3    H159152   4.738   4.978  11.512 -0.7210 -1.4395 -2.0796
12579TIP3    H259153   4.882   4.933  11.495  0.8283  1.4744  1.8225
12580TIP3   OH259154   2.883   5.604   4.443  0.0311  0.3347  0.3902
12580TIP3    H159155   2.968   5.561   4.430  0.5248  0.7728  1.9617
12580TIP3    H259156   2.903   5.697   4.440 -0.3522  0.4395  1.0453
12581TIP3   OH259157   5.409   0.711   3.068 -0.3123 -0.0882  0.0390
12581TIP3    H159158   5.388   0.619   3.052  1.7505 -0.3157 -1.9392
12581TIP3    H259159   5.456   0.711   3.151  0.0932 -0.8911 -0.1791
12582TIP3   OH259160   5.597   6.624   0.509  0.6930 -0.0434 -0.1428
12582TIP3    H159161   5.619   6.676   0.431 -0.1609 -0.7505 -0.8928
12582TIP3    H259162   5.681   6.595   0.544  1.2607  2.5313  0.8260
12583TIP3   OH259163   6.116   3.587  11.172 -0.2961  0.1820  0.0738
12583TIP3    H159164   6.045   3.645  11.200 -2.3121 -1.1995 -1.8551
12583TIP3    H259165   6.128   3.607  11.079 -0.3980 -1.7556 -0.4085
12584TIP3   OH259166   3.660   3.043   1.662 -0.2323 -0.8685 -0.0292
12584TIP3    H159167   3.603   2.968   1.672  0.5921 -1.5943 -0.6258
12584TIP3    H259168   3.608   3.108   1.615 -0.6194 -1.4363 -0.3793
12585TIP3   OH259169   5.231   3.823   3.217  0.1134  0.1161 -0.1605
12585TIP3    H159170   5.303   3.852   3.272 -0.1550  0.1683  0.1692
12585TIP3    H259171   5.196   3.904   3.179 -1.0938  0.3400  1.3255
12586TIP3   OH259172   6.195   5.303   2.184 -0.2401  0.4812 -0.0457
12586TIP3    H159173   6.152   5.220   2.162 -0.6873  0.1924  1.7730
12586TIP3    H259174   6.284   5.278   2.207  0.3715  0.8409 -1.8339
12587TIP3   OH259175   5.522   0.770  11.403 -0.2594  0.3081 -0.7819
12587TIP3    H159176   5.464   0.813  11.340 -1.7469 -1.2347 -0.5589
12587TIP3    H259177   5.479   0.784  11.487  2.1687  3.1374  0.1645
12588TIP3   OH259178   4.581   4.618   5.062 -0.6997 -0.3416  0.3743
12588TIP3    H159179   4.545   4.705   5.045 -1.8276 -0.5332  1.6956
12588TIP3    H259180   4.602   4.584   4.975 -2.2824  0.3925 -0.3297
12589TIP3   OH259181   2.233   4.426  15.005 -0.4731  0.1840  0.2460
12589TIP3    H159182   2.265   4.352  14.953  0.4648  0.4694  0.3996
12589TIP3    H259183   2.306   4.488  15.006 -0.1582 -0.1250  2.5111
12590TIP3   OH259184   4.665   1.844   0.088  0.0662 -0.0822 -0.2023
12590TIP3    H159185   4.708   1.825   0.171  0.6201 -1.1034 -0.7056
12590TIP3    H259186   4.596   1.778   0.082  0.9704 -0.9717 -1.2207
12591TIP3   OH259187   0.493   2.266  13.707  0.3561  0.5367  0.4028
12591TIP3    H159188   0.423   2.269  13.773  0.0971  0.0861  0.1549
12591TIP3    H259189   0.539   2.349  13.717 -0.2045  0.8297  0.5821
12592TIP3   OH259190   6.378   5.573  12.647  0.5965 -0.1230 -0.6579
12592TIP3    H159191   6.424   5.653  12.621  1.8847  0.1893  2.2748
12592TIP3    H259192   6.433   5.502  12.615  3.0554  0.2460  2.2977
12593TIP3   OH259193   5.878   1.323  15.776  0.0149 -0.2515  0.0651
12593TIP3    H159194   5.890   1.413  15.743 -0.8326 -0.5853 -1.2033
12593TIP3    H259195   5.877   1.269  15.697 -0.2833 -1.2947  0.7725
12594TIP3   OH259196   1.937   1.690   3.686 -0.8394  0.1251 -0.8666
12594TIP3    H159197   2.027   1.701   3.656 -0.6374 -1.5230 -0.9914
12594TIP3    H259198   1.924   1.758   3.752  0.6944  0.0471 -0.4560
12595TIP3   OH259199   2.585   4.721  15.385 -0.2505  0.3926  0.5066
12595TIP3    H159200   2.504   4.670  15.384  0.4533 -0.7691 -0.4716
12595TIP3    H259201   2.558   4.810  15.361 -1.1216 -0.1932 -0.7776
12596TIP3   OH259202   1.627   6.124  13.731  0.1674  0.0171 -0.6585
12596TIP3    H159203   1.625   6.029  13.731  0.8942 -0.0051 -1.1264
12596TIP3    H259204   1.583   6.149  13.812 -1.8403 -0.6525 -1.4908
12597TIP3   OH259205   3.364   3.328   2.289 -0.2211  0.4286  0.2635
12597TIP3    H159206   3.436   3.293   2.342 -0.2597  0.4752  0.3464
12597TIP3    H259207   3.300   3.359   2.353  0.4806  2.0763  0.1960
12598TIP3   OH259208   5.225   2.701   4.267 -0.3366  0.1879 -0.0275
12598TIP3    H159209   5.318   2.724   4.257 -0.6992  1.7500 -0.1396
12598TIP3    H259210   5.202   2.736   4.353 -1.3500  1.8804 -0.9356
12599TIP3   OH259211   2.124   2.096  11.196 -0.0436  0.1586  0.5445
12599TIP3    H159212   2.173   2.160  11.145 -1.9181  1.0120 -0.3007
12599TIP3    H259213   2.066   2.149  11.251 -0.1131 -0.8057  1.4217
12600TIP3   OH259214   6.611   3.402  11.606 -0.2148  0.3938 -0.1386
12600TIP3    H159215   6.704   3.379  11.600 -0.5675 -0.8699 -1.2128
12600TIP3    H259216   6.597   3.464  11.535 -0.7049 -1.4502 -1.7662
12601TIP3   OH259217   0.891   2.806  14.627  0.3366 -0.2385  0.1953
12601TIP3    H159218   0.977   2.764  14.620  0.5117  0.0999  0.2848
12601TIP3    H259219   0.828   2.734  14.628  0.5483 -0.4618 -0.9846
12602TIP3   OH259220   1.856   3.765  14.004 -0.1534 -0.3387 -0.2662
12602TIP3    H159221   1.944   3.760  13.966 -0.7219 -0.0184 -1.6423
12602TIP3    H259222   1.863   3.713  14.085  1.1639 -0.7317 -0.6028
12603TIP3   OH259223   2.856   0.516  12.621 -0.6227  0.4524 -0.0318
12603TIP3    H159224   2.870   0.597  12.572  2.6917 -0.0065 -0.0302
12603TIP3    H259225   2.859   0.542  12.713  2.5562  0.1784  0.0313
12604TIP3   OH259226   6.180   6.385  12.490  0.9352  0.3457 -0.1735
12604TIP3    H159227   6.240   6.459  12.478 -0.0798  0.8728 -2.6145
12604TIP3    H259228   6.191   6.360  12.581  6.5613 -1.0548 -0.8649
12605TIP3   OH259229   2.116   4.846  13.143  0.1437  0.0750 -0.3646
12605TIP3    H159230   2.055   4.821  13.213  1.6834  0.9871  1.3730
12605TIP3    H259231   2.060   4.881  13.074 -1.3416  0.6554  1.0731
12606TIP3   OH259232   0.026   3.624   3.852 -0.1364 -0.4559  0.3632
12606TIP3    H159233  -0.027   3.561   3.803 -1.2356  0.7673 -0.0831
12606TIP3    H259234  -0.011   3.623   3.940  0.7530 -1.4229  0.7485
12607TIP3   OH259235   6.079   3.483   0.146 -0.6210  0.1207 -0.0147
12607TIP3    H159236   6.024   3.496   0.068 -0.2043  1.8323 -0.0655
12607TIP3    H259237   6.027   3.424   0.201 -1.5386 -0.0326 -0.9869
12608TIP3   OH259238   2.136   1.187  16.998  0.1407  0.3222 -0.3381
12608TIP3    H159239   2.212   1.175  16.941 -0.1213 -1.2681 -0.4001
12608TIP3    H259240   2.157   1.137  17.077 -0.0109  1.5187  0.5041
12609TIP3   OH259241   4.391   2.063   5.320  0.2642 -0.0953  0.1549
12609TIP3    H159242   4.398   1.976   5.360  1.5620 -0.6950 -1.3143
12609TIP3    H259243   4.470   2.073   5.268  0.5934  2.3751  0.9946
12610TIP3   OH259244   1.356   3.616   4.355 -0.1235 -0.2439 -0.1588
12610TIP3    H159245   1.447   3.645   4.356  0.5087 -2.0444 -0.6177
12610TIP3    H259246   1.316   3.661   4.281  0.1039  1.2748  0.5967
12611TIP3   OH259247   5.573   1.647   0.653  0.6278 -0.0391 -0.6115
12611TIP3    H159248   5.591   1.738   0.677 -1.7777 -0.0692  1.8691
12611TIP3    H259249   5.493   1.652   0.601  1.4120 -0.6646 -1.9179
12612TIP3   OH259250   4.744   1.344  11.695  0.0238  0.8671  0.2662
12612TIP3    H159251   4.686   1.273  11.666 -1.3669  1.6648  0.9668
12612TIP3    H259252   4.807   1.354  11.624  1.0248 -1.8309  0.6293
12613TIP3   OH259253   3.965   3.785   3.475 -0.9155  0.0639  0.0349
12613TIP3    H159254   3.992   3.877   3.472 -1.5255  0.2218 -0.6702
12613TIP3    H259255   3.948   3.762   3.384 -2.3147 -0.2872  0.3685
12614TIP3   OH259256   0.336   2.855  11.839 -0.1699 -0.7266 -0.2717
12614TIP3    H159257   0.381   2.830  11.920  0.4713 -0.1061 -0.4268
12614TIP3    H259258   0.258   2.901  11.869 -0.7102 -1.7799 -0.0005
12615TIP3   OH259259   4.627   2.377  16.480 -0.4127  0.5185 -0.0392
12615TIP3    H159260   4.618   2.352  16.572 -0.1235 -0.7137 -0.3321
12615TIP3    H259261   4.538   2.395  16.451 -0.6465 -0.3508  0.1366
12616TIP3   OH259262   3.939   4.953   3.290 -0.1617 -0.6097  0.0403
12616TIP3    H159263   3.959   4.969   3.198  0.1044  1.4452  0.4027
12616TIP3    H259264   4.022   4.967   3.336  0.0555 -3.0350  0.4988
12617TIP3   OH259265   3.991   1.470   5.170 -0.3029 -0.0027  0.1775
12617TIP3    H159266   3.965   1.513   5.251 -2.4375 -0.5452 -0.1455
12617TIP3    H259267   3.931   1.505   5.104  0.9163 -0.1032 -1.0381
12618TIP3   OH259268   5.580   3.936   1.859  0.2387  0.1897 -0.1702
12618TIP3    H159269   5.539   3.853   1.835 -1.6573  1.0069  0.0372
12618TIP3    H259270   5.661   3.939   1.809  0.4715 -1.8946  0.0223
12619TIP3   OH259271   0.772   4.262   1.168  0.0222 -0.2269  0.3133
12619TIP3    H159272   0.691   4.255   1.116  0.0327 -0.2088  0.2946
12619TIP3    H259273   0.780   4.177   1.211 -1.1847  0.4776  2.0444
12620TIP3   OH259274   0.313   5.834   1.934  0.3406  0.2939  0.5912
12620TIP3    H159275   0.334   5.845   1.841 -0.8018 -1.6510  0.0550
12620TIP3    H259276   0.381   5.884   1.980  0.6077  1.7504 -1.2766
12621TIP3   OH259277   2.061   6.631  16.013 -0.0933 -0.2257 -0.3671
12621TIP3    H159278   2.084   6.655  16.102 -0.3795  1.3907 -0.6836
12621TIP3    H259279   2.066   6.536  16.011 -0.8597 -0.3516  1.5822
12622TIP3   OH259280   4.855   4.446   6.544  0.0451 -0.7356  0.1973
12622TIP3    H159281   4.932   4.502   6.557 -1.0770  0.6233  1.3090
12622TIP3    H259282   4.854   4.429   6.450  0.3669  1.2712 -0.2272
12623TIP3   OH259283   6.015   0.367  15.795 -0.0143 -0.1478 -0.3707
12623TIP3    H159284   6.002   0.462  15.800  0.1016 -0.1883  1.1926
12623TIP3    H259285   6.106   0.353  15.820  0.0330 -0.6637 -0.8103
12624TIP3   OH259286   0.222   0.084  11.657  0.3585 -0.4355  0.0339
12624TIP3    H159287   0.173   0.159  11.623  0.0354 -0.0217  1.3474
12624TIP3    H259288   0.156   0.018  11.675  0.6827 -1.2257 -1.4920
12625TIP3   OH259289   4.201   3.952   4.680 -0.0021 -0.3102  0.7779
12625TIP3    H159290   4.225   3.953   4.588 -0.7806 -1.2232  0.5472
12625TIP3    H259291   4.198   4.044   4.705  1.3018 -0.0784  0.2016
12626TIP3   OH259292   2.370   3.844  13.020 -0.4055 -0.0529 -0.5255
12626TIP3    H159293   2.345   3.758  12.986  1.0217  0.3387 -2.8403
12626TIP3    H259294   2.356   3.903  12.946  2.0998  1.0460 -0.2032
12627TIP3   OH259295   3.919   1.663  10.894 -0.9254  0.2620 -0.0709
12627TIP3    H159296   3.889   1.635  10.981 -0.9446  2.4283  0.6645
12627TIP3    H259297   4.013   1.676  10.904 -0.2391 -2.8103 -1.3700
12628TIP3   OH259298   0.612   0.647   5.063 -0.1711  0.0272 -0.0939
12628TIP3    H159299   0.564   0.672   4.984  1.4435  2.9078 -0.2831
12628TIP3    H259300   0.633   0.729   5.106  2.4114 -1.2271  1.2624
12629TIP3   OH259301   6.565   4.701  16.618 -0.1397 -0.0041 -0.2266
12629TIP3    H159302   6.568   4.606  16.629 -0.3685  0.1693  1.5770
12629TIP3    H259303   6.508   4.715  16.542 -0.7319 -1.2793 -0.0265
12630TIP3   OH259304   3.234   0.217   3.090  0.0710  0.5480  0.2123
12630TIP3    H159305   3.152   0.254   3.058  1.0227 -0.2490 -3.8281
12630TIP3    H259306   3.294   0.291   3.093  0.4272  0.4163 -1.9479
12631TIP3   OH259307   4.220   0.221  12.345  0.1695 -0.6288  0.2339
12631TIP3    H159308   4.222   0.125  12.349  1.1565 -0.6033  0.8967
12631TIP3    H259309   4.298   0.248  12.394  1.1116  0.4687 -1.7765
12632TIP3   OH259310   4.170   6.555   0.747 -0.6849  0.1422 -0.9787
12632TIP3    H159311   4.263   6.572   0.733 -0.5702 -0.0976 -0.5433
12632TIP3    H259312   4.148   6.487   0.684 -1.0164  1.4808 -2.3564
12633TIP3   OH259313   5.531   0.655  16.991  0.3335  0.1713 -0.5739
12633TIP3    H159314   5.584   0.643  16.912 -0.7771  1.4081 -1.5643
12633TIP3    H259315   5.524   0.750  17.000 -0.8116  0.0282  0.1674
12634TIP3   OH259316   4.490   5.163  14.019 -0.0404  0.2287  0.6306
12634TIP3    H159317   4.484   5.252  14.054  1.0304  0.2247  0.8649
12634TIP3    H259318   4.564   5.124  14.065  1.0518  0.0265 -1.2043
12635TIP3   OH259319   1.340   0.959  11.829  0.1274 -0.1408  0.1085
12635TIP3    H159320   1.421   1.010  11.826  0.0081  0.0713 -3.3469
12635TIP3    H259321   1.274   1.017  11.790 -1.1669 -1.1679  0.6830
12636TIP3   OH259322   4.108   2.154   0.806 -0.4799  0.1431  0.2724
12636TIP3    H159323   4.116   2.061   0.830  0.3489  0.2967  0.6066
12636TIP3    H259324   4.013   2.169   0.801 -0.6482 -0.4269  1.3881
12637TIP3   OH259325   2.370   6.761   5.346  0.4141  0.1970  0.2234
12637TIP3    H159326   2.276   6.747   5.335  0.1084  0.0755  2.4982
12637TIP3    H259327   2.392   6.716   5.428  2.1049  1.6968  0.6603
12638TIP3   OH259328   4.044   1.897   0.248 -0.1642  0.0448 -0.0363
12638TIP3    H159329   3.963   1.876   0.201 -0.4934 -1.0975  0.9963
12638TIP3    H259330   4.063   1.987   0.223  0.0463 -0.6996 -2.8755
12639TIP3   OH259331   2.568   1.575  15.373  0.6582  0.0931  0.7388
12639TIP3    H159332   2.618   1.578  15.454  2.7846  1.4184 -0.5002
12639TIP3    H259333   2.614   1.510  15.319  0.1111  0.2155  0.1180
12640TIP3   OH259334   4.566   2.949  17.028  0.6141 -0.3899  0.2923
12640TIP3    H159335   4.476   2.976  17.013  0.4505  0.1571  2.0825
12640TIP3    H259336   4.562   2.855  17.040  0.2472 -0.3298  0.6287
12641TIP3   OH259337   1.063   5.948   4.023 -0.4042  0.1482 -0.1513
12641TIP3    H159338   1.108   5.978   3.945 -1.5382 -0.2903 -1.0009
12641TIP3    H259339   1.120   5.974   4.095  0.9169  0.0968 -1.1434
12642TIP3   OH259340   1.346   3.887  10.664  0.5006 -0.0069 -0.9947
12642TIP3    H159341   1.375   3.837  10.588 -0.0334 -1.5965 -0.1869
12642TIP3    H259342   1.258   3.855  10.682  1.0212 -0.4769  0.9582
12643TIP3   OH259343   1.911   1.417  11.878 -0.6676 -0.4051 -0.2337
12643TIP3    H159344   1.961   1.498  11.880 -2.6690  1.0158 -2.2665
12643TIP3    H259345   1.968   1.355  11.833  0.0727  0.5565 -0.6573
12644TIP3   OH259346   2.747   1.249  14.678  0.3405  0.5414 -0.2728
12644TIP3    H159347   2.705   1.322  14.633  1.5848  1.0523 -0.6438
12644TIP3    H259348   2.792   1.289  14.753 -0.4143 -0.0915  0.5400
12645TIP3   OH259349   5.470   1.492  16.753  0.3176  0.1305  0.5042
12645TIP3    H159350   5.487   1.424  16.818 -0.3869 -0.3805  0.1685
12645TIP3    H259351   5.375   1.490  16.741  0.6848 -2.2431 -3.1544
12646TIP3   OH259352   2.915   1.092  15.622  0.2825  0.1434  0.1946
12646TIP3    H159353   2.844   1.155  15.611 -0.4114 -0.1661  2.3157
12646TIP3    H259354   2.871   1.007  15.628  1.1508 -0.5162 -1.9523
12647TIP3   OH259355   0.261   5.114  15.478  0.5927  0.0812  0.1806
12647TIP3    H159356   0.294   5.169  15.407  1.0186 -1.3021 -0.7473
12647TIP3    H259357   0.340   5.087  15.525  0.4841 -0.4869  0.0445
12648TIP3   OH259358   5.851   1.651  11.517 -0.3372  0.8927 -0.6972
12648TIP3    H159359   5.823   1.672  11.429 -2.5384  0.1624 -0.2170
12648TIP3    H259360   5.783   1.687  11.574  1.7409  2.6816  0.8711
12649TIP3   OH259361   1.125   5.722   1.095  0.4863 -0.8770  0.9910
12649TIP3    H159362   1.195   5.738   1.031 -1.1155 -1.4977 -1.0198
12649TIP3    H259363   1.140   5.631   1.123  0.5845 -0.9511  0.7025
12650TIP3   OH259364   1.775   4.595  10.979 -0.1084  0.3274 -0.1892
12650TIP3    H159365   1.699   4.618  11.033  0.0384  1.2477 -0.3618
12650TIP3    H259366   1.847   4.587  11.041  0.0042  1.1185 -0.2136
12651TIP3   OH259367   4.297   1.001  11.284 -0.2422  0.3707  0.1731
12651TIP3    H159368   4.305   1.026  11.376 -0.3645 -0.7351  0.4889
12651TIP3    H259369   4.207   1.024  11.261 -0.3294  0.2820  0.4305
12652TIP3   OH259370   6.375   0.805   4.812  0.4574  0.2033 -0.3083
12652TIP3    H159371   6.435   0.787   4.884 -0.1938 -1.1692 -0.0716
12652TIP3    H259372   6.288   0.792   4.849  0.1255 -0.9382 -1.4147
12653TIP3   OH259373   3.476   2.082  14.694 -0.3947 -0.0851 -0.0715
12653TIP3    H159374   3.393   2.054  14.733 -0.6270  1.0649  0.3043
12653TIP3    H259375   3.501   2.160  14.744 -0.1815  0.8301 -1.5389
12654TIP3   OH259376   1.831   0.614   2.775 -0.4595  0.3962 -0.3943
12654TIP3    H159377   1.862   0.695   2.733 -0.4477  0.5000 -0.1863
12654TIP3    H259378   1.819   0.553   2.702 -1.8996  1.0424 -0.7465
12655TIP3   OH259379   3.919   2.355   2.110 -0.5796  0.6309 -0.3925
12655TIP3    H159380   3.874   2.276   2.082 -1.1950  1.4286 -1.7712
12655TIP3    H259381   3.901   2.419   2.040  1.5047  1.4108 -0.2791
12656TIP3   OH259382   5.963   4.992   2.454 -0.1052  0.3813  0.0576
12656TIP3    H159383   6.024   5.031   2.518  1.1058  1.1953 -1.5159
12656TIP3    H259384   6.016   4.981   2.375 -1.6176 -0.4209 -0.8779
12657TIP3   OH259385   0.225   0.597  16.559  0.4855  0.6590  0.1123
12657TIP3    H159386   0.131   0.579  16.551  0.7951 -1.3684  0.3750
12657TIP3    H259387   0.263   0.559  16.480  1.1027  1.4957 -0.0065
12658TIP3   OH259388   0.517   3.903  15.026 -0.3867  0.0644 -0.3529
12658TIP3    H159389   0.583   3.882  14.961 -1.2602 -0.3889 -1.1284
12658TIP3    H259390   0.531   3.996  15.046  2.7627 -0.7993  2.2174
12659TIP3   OH259391   3.404   4.367   3.709  0.1701 -0.2082  0.3457
12659TIP3    H159392   3.381   4.456   3.680  0.9006 -0.5939 -1.5149
12659TIP3    H259393   3.320   4.329   3.735 -0.7938 -0.2225 -2.4842
12660TIP3   OH259394   1.273   0.810  14.008 -0.4412 -0.6875 -0.0253
12660TIP3    H159395   1.351   0.776  13.965 -0.0529  2.3950 -2.0769
12660TIP3    H259396   1.200   0.772  13.960 -0.0318  0.6152 -1.7889
12661TIP3   OH259397   4.478   3.462   4.301 -0.2320  0.2603  0.0770
12661TIP3    H159398   4.505   3.373   4.321 -0.4640  0.5816  2.0368
12661TIP3    H259399   4.386   3.465   4.327 -0.5507  0.7762 -1.0518
12662TIP3   OH259400   1.976   2.714   4.919  0.5128 -0.0895  0.3031
12662TIP3    H159401   1.921   2.771   4.972  1.3761 -1.0413  2.3194
12662TIP3    H259402   2.038   2.676   4.981  3.2107  0.6122 -1.7690
12663TIP3   OH259403   0.110   0.160  15.104 -0.4010 -0.2001 -0.5140
12663TIP3    H159404   0.183   0.126  15.053  0.6912  1.8851 -0.4214
12663TIP3    H259405   0.142   0.160  15.194 -0.5469  0.6219 -0.4557
12664TIP3   OH259406   1.113   4.406   3.133 -0.5217  0.1731  0.1711
12664TIP3    H159407   1.061   4.457   3.071 -0.3674  0.8176  0.5683
12664TIP3    H259408   1.048   4.364   3.189 -0.6567 -0.2717 -0.3083
12665TIP3   OH259409   0.166   5.444   1.002  0.1265 -0.0872  0.2679
12665TIP3    H159410   0.099   5.424   0.936  0.3815 -2.0132  0.5131
12665TIP3    H259411   0.150   5.381   1.073  1.8056 -0.2240  0.5872
12666TIP3   OH259412   2.202   6.760   2.067 -0.7501  0.2150 -0.1897
12666TIP3    H159413   2.184   6.839   2.015 -0.0490  0.5908  0.1234
12666TIP3    H259414   2.124   6.705   2.054 -0.6592  0.3510 -1.5222
12667TIP3   OH259415   3.718   0.286   3.642 -0.1769  0.7543  0.5087
12667TIP3    H159416   3.727   0.237   3.560  0.0863  1.8125 -0.1221
12667TIP3    H259417   3.630   0.267   3.672 -0.0491 -0.1653  0.3225
12668TIP3   OH259418   5.571   4.885  13.152 -0.1524  0.0693  0.1050
12668TIP3    H159419   5.595   4.889  13.059 -0.0086 -2.1947 -0.0075
12668TIP3    H259420   5.653   4.863  13.197 -0.4908 -0.1770  0.6118
12669TIP3   OH259421   1.681   4.137  16.537 -0.1402 -0.0589  0.1462
12669TIP3    H159422   1.718   4.185  16.610 -0.0617  0.1215 -0.0126
12669TIP3    H259423   1.588   4.161  16.537 -0.6006 -1.6201  1.4442
12670TIP3   OH259424   2.765   3.137  16.527  0.0553  0.3268 -0.3308
12670TIP3    H159425   2.776   3.051  16.567 -2.4550  1.0220  2.1505
12670TIP3    H259426   2.741   3.118  16.436 -0.7752 -1.6188  0.2496
12671TIP3   OH259427   3.813   4.630   0.746 -0.6610  0.2355  0.2263
12671TIP3    H159428   3.897   4.621   0.791  0.1346  0.9779 -1.0315
12671TIP3    H259429   3.792   4.542   0.714 -0.1932  0.1061  0.2782
12672TIP3   OH259430   6.388   4.110  16.773  0.1694  0.5939 -0.4817
12672TIP3    H159431   6.360   4.029  16.730 -0.0406  1.4732 -2.0973
12672TIP3    H259432   6.453   4.082  16.837  0.3429 -0.8266 -1.2335
12673TIP3   OH259433   4.146   3.388   3.748  0.1178 -0.5183 -0.0265
12673TIP3    H159434   4.102   3.471   3.731 -0.8932 -1.0002  0.1422
12673TIP3    H259435   4.236   3.402   3.721  0.2582  1.0011  1.1051
12674TIP3   OH259436   4.024   3.210  14.371 -0.9099  0.5172  0.3347
12674TIP3    H159437   4.004   3.233  14.462  1.9627 -1.5278  1.6374
12674TIP3    H259438   3.964   3.138  14.351  0.1587 -0.7868  1.6160
12675TIP3   OH259439   1.982   5.778  15.051 -0.0570 -0.0316  0.1733
12675TIP3    H159440   1.970   5.862  15.006 -0.9292  0.4736  1.2871
12675TIP3    H259441   1.905   5.726  15.026 -0.8947  0.4906  1.5233
12676TIP3   OH259442   3.304   2.285  17.047 -0.5089 -0.4043 -0.2496
12676TIP3    H159443   3.378   2.231  17.019 -2.3348 -3.4497  0.3241
12676TIP3    H259444   3.333   2.324  17.129  0.6901 -0.9533 -0.3862
12677TIP3   OH259445   4.590   0.343   2.365 -0.1229 -0.5464 -0.4891
12677TIP3    H159446   4.544   0.282   2.308  0.3600 -0.6660 -0.7561
12677TIP3    H259447   4.674   0.357   2.322 -0.1412  0.1385 -0.3220
12678TIP3   OH259448   0.222   4.762   5.420  0.2676  0.5116  0.1968
12678TIP3    H159449   0.225   4.738   5.327  3.2586  2.2642 -0.3008
12678TIP3    H259450   0.129   4.765   5.441 -0.5044 -0.2289 -2.6559
12679TIP3   OH259451   5.753   1.176  16.445 -0.4613  0.2990 -0.1095
12679TIP3    H159452   5.699   1.228  16.504 -0.6543 -0.8506  0.7556
12679TIP3    H259453   5.704   1.095  16.433  1.3405 -1.0439  1.2048
12680TIP3   OH259454   5.593   3.240  16.409  0.0920  0.3212 -0.2959
12680TIP3    H159455   5.636   3.259  16.493 -0.7705 -1.2836  0.5747
12680TIP3    H259456   5.523   3.179  16.432 -0.6976  0.4908 -2.0951
12681TIP3   OH259457   0.490   2.412  16.801 -0.2169  0.0318  0.2454
12681TIP3    H159458   0.571   2.426  16.753  0.0308 -1.9780 -0.0373
12681TIP3    H259459   0.451   2.499  16.810  1.4980  0.9121 -0.4242
12682TIP3   OH259460   6.126   0.145  13.831  0.2165  0.5947 -0.2787
12682TIP3    H159461   6.193   0.202  13.869 -1.0400  1.0763  1.3277
12682TIP3    H259462   6.079   0.200  13.769 -0.4741  1.1161  0.6769
12683TIP3   OH259463   3.984   1.571  15.212 -0.1614 -0.0185 -0.1066
12683TIP3    H159464   3.927   1.539  15.281 -1.1350 -1.0862 -1.3621
12683TIP3    H259465   4.024   1.493  15.175  0.2650  0.5231 -0.8156
12684TIP3   OH259466   0.979   0.623  14.207  0.3961 -0.3387 -0.6053
12684TIP3    H159467   0.923   0.566  14.260 -0.3066 -0.9190 -1.9278
12684TIP3    H259468   1.067   0.587  14.219  0.2651 -0.3884  0.2450
12685TIP3   OH259469   3.262   2.647   4.435  0.2792 -0.8297 -0.4100
12685TIP3    H159470   3.259   2.565   4.385  0.5520 -0.4490 -1.0581
12685TIP3    H259471   3.192   2.701   4.398  2.7446  0.9013 -3.0091
12686TIP3   OH259472   1.461   2.687  12.178 -0.0475 -0.4610  0.5880
12686TIP3    H159473   1.446   2.780  12.196  0.7532 -0.1700 -0.1505
12686TIP3    H259474   1.435   2.676  12.086 -0.6251 -1.0889  0.8154
12687TIP3   OH259475   5.146   1.121  13.477 -0.0037  0.0823  0.0141
12687TIP3    H159476   5.202   1.190  13.512 -1.6276  2.4816 -1.7435
12687TIP3    H259477   5.059   1.140  13.513 -0.3466 -1.4869  0.0491
12688TIP3   OH259478   0.849   2.698  16.805 -0.3932 -0.2370  0.3328
12688TIP3    H159479   0.929   2.709  16.856 -0.0721 -1.8311  0.2511
12688TIP3    H259480   0.799   2.632  16.854 -0.6789 -0.8073 -0.6893
12689TIP3   OH259481   1.257   3.790   1.707 -0.0387 -0.6543 -0.1051
12689TIP3    H159482   1.286   3.718   1.763 -0.3653 -1.3742 -0.8410
12689TIP3    H259483   1.337   3.840   1.687  0.1265 -0.5787  0.7256
12690TIP3   OH259484   1.161   0.369   1.606  0.0043  0.0935  0.4186
12690TIP3    H159485   1.247   0.368   1.650  0.6142 -2.3430 -0.6683
12690TIP3    H259486   1.140   0.462   1.598  2.6497  0.8066  0.5302
12691TIP3   OH259487   1.254   2.937   0.792 -0.2721  0.1567  0.2254
12691TIP3    H159488   1.346   2.939   0.817 -0.2000 -0.6378  0.0447
12691TIP3    H259489   1.255   2.909   0.700 -0.7849 -1.6874  0.7570
12692TIP3   OH259490   5.227   5.463   3.162  0.2470  0.6780  0.4331
12692TIP3    H159491   5.163   5.427   3.223 -0.4175  0.5167 -0.3509
12692TIP3    H259492   5.286   5.514   3.218  1.6014 -2.0437  1.6856
12693TIP3   OH259493   3.216   1.008  10.735  0.0441  0.1420 -0.2481
12693TIP3    H159494   3.253   0.945  10.674 -0.7819 -0.4769 -0.1200
12693TIP3    H259495   3.291   1.061  10.764  0.4519  0.4045 -1.7366
12694TIP3   OH259496   1.165   4.826  15.572  0.7456 -0.5131 -0.1716
12694TIP3    H159497   1.147   4.740  15.534 -3.2864 -0.5081  1.2185
12694TIP3    H259498   1.146   4.888  15.501 -4.1172 -0.6324  0.6303
12695TIP3   OH259499   5.427   5.701   1.195 -0.4048  0.7584  0.1297
12695TIP3    H159500   5.352   5.647   1.170 -0.2384  0.4372  0.3142
12695TIP3    H259501   5.413   5.784   1.150 -0.7683  0.6301  0.0047
12696TIP3   OH259502   2.965   3.522  16.028 -1.0114 -0.3136 -0.1806
12696TIP3    H159503   2.887   3.494  15.980  0.1965 -0.4554 -2.1868
12696TIP3    H259504   3.038   3.485  15.978  0.3695  0.1787  1.3843
12697TIP3   OH259505   5.047   6.600  13.719  0.5511  0.2410  0.0368
12697TIP3    H159506   4.952   6.593  13.706  0.4444  0.3426  0.7361
12697TIP3    H259507   5.062   6.693  13.737  0.7847  0.2247 -0.0653
12698TIP3   OH259508   1.389   4.343  13.438 -0.3238 -0.2515 -0.2421
12698TIP3    H159509   1.432   4.273  13.389 -0.4305 -0.8441  0.4787
12698TIP3    H259510   1.309   4.302  13.472 -0.7366  0.4238 -0.3877
12699TIP3   OH259511   0.572   0.839   4.822  0.2699 -0.6827  0.4618
12699TIP3    H159512   0.540   0.878   4.741  0.4565 -1.2423  0.1144
12699TIP3    H259513   0.529   0.889   4.892  0.0373 -0.2622  0.0205
12700TIP3   OH259514   1.242   0.424  17.077 -0.1488  0.3197  0.2316
12700TIP3    H159515   1.248   0.402  16.984  0.3946  0.5917  0.1954
12700TIP3    H259516   1.205   0.346  17.118 -0.9365  0.4146 -0.2929
12701TIP3   OH259517   1.330   2.747   3.233 -0.5425 -0.1076 -0.0484
12701TIP3    H159518   1.416   2.713   3.211  0.3651  1.4731  0.8859
12701TIP3    H259519   1.298   2.688   3.302 -0.6724 -1.2944 -1.0974
12702TIP3   OH259520   6.328   3.145   4.329  0.1458  0.3099  0.1175
12702TIP3    H159521   6.336   3.068   4.272  2.0074 -1.6124  2.7002
12702TIP3    H259522   6.234   3.160   4.337 -0.2454 -1.2375 -1.0584
12703TIP3   OH259523   3.643   1.517  16.251  0.2296 -0.0213  0.6067
12703TIP3    H159524   3.554   1.481  16.249  0.1511  0.1159  1.2564
12703TIP3    H259525   3.676   1.505  16.162 -0.5641  0.2351  0.2642
12704TIP3   OH259526   4.831   3.457  12.549 -0.7631 -0.1136 -0.2566
12704TIP3    H159527   4.924   3.475  12.558 -0.4716 -1.5397 -0.1738
12704TIP3    H259528   4.814   3.462  12.455 -1.0529  2.1012 -0.1231
12705TIP3   OH259529   6.218   2.402   2.777 -0.0606 -0.1068 -0.2503
12705TIP3    H159530   6.272   2.330   2.811 -1.4611 -2.1435 -2.0430
12705TIP3    H259531   6.237   2.404   2.683  0.1510  2.1130 -0.2084
12706TIP3   OH259532   2.979   3.798   5.753  0.6140  0.5218  0.3666
12706TIP3    H159533   2.955   3.861   5.820  0.8283  0.7193  0.2576
12706TIP3    H259534   2.903   3.740   5.746  0.5532  0.5614  0.7060
12707TIP3   OH259535   3.154   6.807   1.739  0.2170 -0.1461  0.5325
12707TIP3    H159536   3.149   6.713   1.751 -0.4958 -0.1806  0.0437
12707TIP3    H259537   3.234   6.834   1.786  0.5104 -1.0036  0.5318
12708TIP3   OH259538   4.083   6.170   3.474  0.0958  0.1982  0.4030
12708TIP3    H159539   4.004   6.197   3.521 -0.2793 -1.0298  0.5292
12708TIP3    H259540   4.148   6.155   3.543 -0.6280 -2.1716  0.6455
12709TIP3   OH259541   0.684   4.968  15.302 -0.0554 -0.1811  0.1086
12709TIP3    H159542   0.682   4.880  15.265  2.3568  0.1634 -1.0271
12709TIP3    H259543   0.720   5.023  15.233  1.3067  1.1299  1.7597
12710TIP3   OH259544   6.323   4.477  16.518 -0.6961  0.2269  0.1537
12710TIP3    H159545   6.261   4.431  16.461 -1.1088  2.3824 -1.2718
12710TIP3    H259546   6.284   4.471  16.605  0.0762 -3.3689  0.3863
12711TIP3   OH259547   4.575   1.074   6.468 -0.2370 -0.2765  0.2272
12711TIP3    H159548   4.671   1.081   6.464 -0.0198 -2.0477  1.2536
12711TIP3    H259549   4.559   0.987   6.505 -2.2578 -0.0255  0.0467
12712TIP3   OH259550   5.660   1.555  16.410  0.3412  0.3467 -0.0697
12712TIP3    H159551   5.612   1.476  16.384 -2.1162  2.0289 -1.0557
12712TIP3    H259552   5.722   1.570  16.339 -0.0046 -0.0835 -0.4707
12713TIP3   OH259553   6.424   0.130   2.416  0.1039 -0.6962 -0.3666
12713TIP3    H159554   6.440   0.084   2.334  0.2632 -1.5523  0.1311
12713TIP3    H259555   6.342   0.177   2.402 -0.6631 -2.0313 -0.5275
12714TIP3   OH259556   4.689   6.497   0.680  0.6625  0.4572  0.4748
12714TIP3    H159557   4.674   6.421   0.625  0.6731 -0.3632  1.5815
12714TIP3    H259558   4.766   6.539   0.642  0.6099 -0.0275 -0.1908
12715TIP3   OH259559   0.505   0.373   0.240  0.1348 -0.3840 -0.1762
12715TIP3    H159560   0.529   0.421   0.319 -0.5090  0.6066 -0.5553
12715TIP3    H259561   0.564   0.298   0.238  1.8971  0.9546 -0.1111
12716TIP3   OH259562   3.972   6.488  12.230 -0.4551  0.5188  0.0489
12716TIP3    H159563   3.904   6.448  12.174  0.2062  0.7726 -0.9711
12716TIP3    H259564   4.049   6.433  12.215  0.0598  1.3082 -0.2335
12717TIP3   OH259565   5.005   2.663   2.530 -0.9928  0.2844 -0.3443
12717TIP3    H159566   4.942   2.687   2.597 -1.4245 -0.1235 -0.6028
12717TIP3    H259567   5.004   2.738   2.469  0.0101  1.0313  0.5227
12718TIP3   OH259568   0.685   0.544   2.856  0.1771  0.7516  0.1273
12718TIP3    H159569   0.736   0.484   2.801 -0.3730  1.8596 -1.6605
12718TIP3    H259570   0.689   0.628   2.811 -1.2606  1.4452  1.1972
12719TIP3   OH259571   6.018   3.795   3.830  0.4639 -0.0299  0.0276
12719TIP3    H159572   5.941   3.821   3.780  0.2501 -1.1388 -0.2573
12719TIP3    H259573   6.093   3.818   3.774  0.4156  1.7921  0.6465
12720TIP3   OH259574   4.696   6.426   5.968  0.1122  0.3599 -0.7229
12720TIP3    H159575   4.618   6.382   5.935 -0.5914 -0.3147  1.6409
12720TIP3    H259576   4.715   6.382   6.052  1.5047  2.2146  0.0079
12721TIP3   OH259577   2.951   0.424  16.688 -0.4081  0.6264  0.2049
12721TIP3    H159578   2.894   0.411  16.612  0.9512  0.0596 -0.7765
12721TIP3    H259579   2.974   0.517  16.685  0.2876  0.4466 -0.6003
12722TIP3   OH259580   4.839   4.468  14.749  0.7556 -0.1301 -0.1818
12722TIP3    H159581   4.789   4.437  14.824  0.8601 -0.2955 -0.1794
12722TIP3    H259582   4.905   4.526  14.787  0.8769 -0.2980 -0.1326
12723TIP3   OH259583   5.197   5.345   4.151 -0.0653  0.4831 -0.1294
12723TIP3    H159584   5.112   5.376   4.182 -0.1230  1.7920 -1.4614
12723TIP3    H259585   5.176   5.274   4.091 -0.1448  0.1325  0.3071
12724TIP3   OH259586   5.401   1.648  16.175  0.4258  0.0427  0.0476
12724TIP3    H159587   5.425   1.684  16.090 -1.1792 -2.1840 -1.4621
12724TIP3    H259588   5.454   1.569  16.183 -0.6201 -0.6464  0.3319
12725TIP3   OH259589   1.264   1.412   5.689 -0.0414 -0.1114  0.0984
12725TIP3    H159590   1.263   1.325   5.648 -0.9013  0.1121 -0.3587
12725TIP3    H259591   1.237   1.472   5.620 -2.8843  0.1233  1.2687
12726TIP3   OH259592   5.105   0.189  13.212 -1.0875  0.3058 -0.1942
12726TIP3    H159593   5.036   0.189  13.146 -0.3618  0.3220 -0.9728
12726TIP3    H259594   5.131   0.098  13.220 -1.1436  0.3089  0.0466
12727TIP3   OH259595   2.116   3.020  13.845  0.0083  0.0793 -0.1666
12727TIP3    H159596   2.204   2.998  13.873 -0.2221 -1.1096 -0.3189
12727TIP3    H259597   2.060   2.998  13.920 -0.0589  2.0028  0.4011
12728TIP3   OH259598   3.724   3.314  11.025 -0.2040  0.0205 -0.0976
12728TIP3    H159599   3.629   3.324  11.027 -0.1530  0.5310  0.1160
12728TIP3    H259600   3.757   3.403  11.007  0.2220 -0.1934 -0.4018
12729TIP3   OH259601   1.061   3.998  13.353 -0.6566  0.2608  0.0821
12729TIP3    H159602   1.020   3.914  13.331 -1.5868  0.5649  0.5929
12729TIP3    H259603   1.114   4.020  13.277  0.6130 -1.4029  0.4419
12730TIP3   OH259604   1.299   4.803   1.673  0.4493  0.3130 -0.4715
12730TIP3    H159605   1.294   4.898   1.662  1.4232  0.1404 -3.0785
12730TIP3    H259606   1.253   4.768   1.597 -0.5659 -1.3607  0.8428
12731TIP3   OH259607   2.830   3.614  10.490  0.2599  0.3641 -0.1980
12731TIP3    H159608   2.862   3.555  10.557 -3.4180 -0.2479  1.2303
12731TIP3    H259609   2.843   3.567  10.408  1.7562 -0.3018  0.3901
12732TIP3   OH259610   3.782   5.679   2.483  0.5237  0.4623  0.3192
12732TIP3    H159611   3.747   5.651   2.568 -1.8562  0.3943 -0.6157
12732TIP3    H259612   3.839   5.753   2.504  0.7086 -0.1140  2.0394
12733TIP3   OH259613   4.743   3.004  16.554  0.2057 -0.1708  0.2783
12733TIP3    H159614   4.769   3.070  16.619 -0.5954  0.4904 -0.0522
12733TIP3    H259615   4.767   2.920  16.594 -0.3449  0.2148  1.4720
12734TIP3   OH259616   3.099   1.356   4.630  0.2050  0.2002  0.5585
12734TIP3    H159617   3.153   1.338   4.553 -0.9071 -0.3249 -0.1311
12734TIP3    H259618   3.141   1.431   4.672  1.3394 -0.0681 -0.0706
12735TIP3   OH259619   1.073   1.165  14.238  0.0057  0.5051 -0.1900
12735TIP3    H159620   1.073   1.070  14.225 -0.6312  0.2396  1.4979
12735TIP3    H259621   1.148   1.196  14.188 -0.2765 -0.7667 -1.4808
12736TIP3   OH259622   2.512   0.729  12.084  0.1213  0.0714  0.0343
12736TIP3    H159623   2.596   0.740  12.039  0.5214  1.5268  1.0382
12736TIP3    H259624   2.532   0.751  12.176 -1.5986  1.6906  0.0728
12737TIP3   OH259625   5.792   4.431   1.238 -0.0618 -0.0398 -0.0876
12737TIP3    H159626   5.887   4.422   1.239  0.0313  0.7917  1.0706
12737TIP3    H259627   5.763   4.388   1.319 -0.6994 -0.4921 -0.5470
12738TIP3   OH259628   2.341   4.695   5.232 -0.0039  0.0722 -0.4913
12738TIP3    H159629   2.335   4.605   5.199 -0.9705  0.0415 -0.2767
12738TIP3    H259630   2.282   4.745   5.176 -0.3294  0.3490  0.0906
12739TIP3   OH259631   2.828   3.536   3.065  0.2544  0.1533 -0.6523
12739TIP3    H159632   2.740   3.545   3.029 -0.4555  0.1366  0.9824
12739TIP3    H259633   2.822   3.464   3.128  1.3198  0.4399 -0.1852
12740TIP3   OH259634   5.350   5.756  13.003  0.4726  0.1203  0.0877
12740TIP3    H159635   5.322   5.767  13.094 -0.4425 -0.6073 -0.0856
12740TIP3    H259636   5.271   5.726  12.958  0.2707  2.6676 -1.4171
12741TIP3   OH259637   2.107   6.133   6.551 -0.5763  0.8824  0.1187
12741TIP3    H159638   2.186   6.080   6.566 -1.0018  0.4427  0.8111
12741TIP3    H259639   2.140   6.223   6.547 -0.1900  0.8413  1.7703
12742TIP3   OH259640   3.296   2.393  12.392 -0.1976  1.0153  0.1870
12742TIP3    H159641   3.349   2.415  12.316  1.4442 -0.2934  0.8922
12742TIP3    H259642   3.343   2.431  12.466 -0.0389 -0.4531  0.8654
12743TIP3   OH259643   0.923   5.275  16.502  0.4237 -0.0837 -0.5467
12743TIP3    H159644   0.935   5.223  16.422  3.3000 -0.3650 -0.0403
12743TIP3    H259645   0.917   5.365  16.470  0.0714 -0.3118 -1.1577
12744TIP3   OH259646   0.655   1.217   1.602  0.2203 -0.0492  0.2089
12744TIP3    H159647   0.742   1.256   1.591  0.3125 -0.1574  0.5407
12744TIP3    H259648   0.650   1.149   1.535 -0.9972  2.3080 -2.3067
12745TIP3   OH259649   0.555   5.604  13.197  0.0590  0.3513 -0.5754
12745TIP3    H159650   0.622   5.590  13.264 -2.6504 -0.8469  2.0921
12745TIP3    H259651   0.535   5.698  13.202 -0.2361  0.2380  0.4265
12746TIP3   OH259652   2.964   0.900   4.064 -0.1296 -0.2761 -0.0369
12746TIP3    H159653   2.989   0.811   4.042  0.2215  0.0830 -1.1619
12746TIP3    H259654   3.008   0.918   4.148  0.3774 -0.9078 -0.1647
12747TIP3   OH259655   6.667   3.450   1.285  0.0313  0.4877  0.3638
12747TIP3    H159656   6.727   3.505   1.235  2.3151 -1.6326  0.6261
12747TIP3    H259657   6.639   3.506   1.358  0.1017  2.1490 -0.8304
12748TIP3   OH259658   0.107   4.183   2.764  0.2448 -0.4605 -0.3452
12748TIP3    H159659   0.151   4.248   2.819 -0.4297 -0.8408  0.6711
12748TIP3    H259660   0.100   4.224   2.679 -1.9480  1.6221  0.7424
12749TIP3   OH259661   1.180   4.396  11.260  0.2609  0.4119 -0.1921
12749TIP3    H159662   1.101   4.343  11.273  0.8763 -0.7156 -0.8703
12749TIP3    H259663   1.167   4.473  11.316 -0.7684 -0.3384  0.6362
12750TIP3   OH259664   4.516   4.077   4.727  0.4172  0.0060  0.2393
12750TIP3    H159665   4.590   4.020   4.707  1.4939  1.1732  0.7790
12750TIP3    H259666   4.474   4.092   4.642  1.8355  0.7186 -0.3653
12751TIP3   OH259667   5.118   4.306  13.032  0.4488 -0.0184  0.1494
12751TIP3    H159668   5.031   4.344  13.019  0.0383 -0.9853 -0.0122
12751TIP3    H259669   5.144   4.334  13.120 -0.7070 -1.0332  0.8343
12752TIP3   OH259670   2.858   2.391  16.361 -0.2808  0.1905  0.0245
12752TIP3    H159671   2.797   2.329  16.322  0.5548 -1.3472  1.0398
12752TIP3    H259672   2.805   2.468  16.380 -1.1074  0.2698 -2.3113
12753TIP3   OH259673   6.209   5.668  16.260  0.6358 -0.5953  0.3354
12753TIP3    H159674   6.179   5.744  16.309 -1.7128 -1.1652 -0.0930
12753TIP3    H259675   6.236   5.703  16.175 -1.2009 -0.2962 -0.1524
12754TIP3   OH259676   1.802   6.122  15.325  0.1007  0.1074  0.0315
12754TIP3    H159677   1.863   6.159  15.261  0.1355  1.5936  0.8864
12754TIP3    H259678   1.856   6.061  15.377  0.4679  0.1678 -0.2719
12755TIP3   OH259679   5.237   2.604   3.180  0.1378  0.2581  0.1976
12755TIP3    H159680   5.217   2.661   3.254  1.0464  1.0871 -0.1750
12755TIP3    H259681   5.235   2.661   3.104 -1.4819 -0.7167 -0.5518
12756TIP3   OH259682   4.513   3.530  11.815  0.4628  0.1743  0.0432
12756TIP3    H159683   4.501   3.595  11.884 -0.5281 -0.1690  0.1980
12756TIP3    H259684   4.564   3.460  11.856  0.5370  0.3173  0.1992
12757TIP3   OH259685   2.912   2.122  14.221  0.2127 -0.4447 -0.5331
12757TIP3    H159686   2.844   2.156  14.279  1.2716 -0.4387  0.7553
12757TIP3    H259687   2.864   2.088  14.145 -1.3913 -2.0378  1.0934
12758TIP3   OH259688   4.198   3.954   2.251  0.0230 -0.1557 -0.1976
12758TIP3    H159689   4.267   3.925   2.192  0.0097 -1.7181  0.4925
12758TIP3    H259690   4.244   3.970   2.334 -0.4146 -1.3465  0.3062
12759TIP3   OH259691   2.936   6.383   2.625 -0.2390  0.0850 -0.0550
12759TIP3    H159692   2.845   6.409   2.636 -1.0174 -2.8196  1.3362
12759TIP3    H259693   2.986   6.464   2.635 -2.4776  1.3311  1.9458
12760TIP3   OH259694   4.103   2.599  13.459  0.7575 -0.0814  0.4992
12760TIP3    H159695   4.122   2.678  13.408  3.4035  0.9049  2.7613
12760TIP3    H259696   4.039   2.628  13.524 -0.3396 -0.5704 -0.3269
12761TIP3   OH259697   2.770   4.067   2.796  0.6503 -0.1748 -0.2287
12761TIP3    H159698   2.827   4.027   2.731 -0.4638  1.1039 -2.0732
12761TIP3    H259699   2.685   4.025   2.781  0.4760 -0.1962  0.7469
12762TIP3   OH259700   3.968   1.589  16.609 -0.3201  0.4937 -0.4977
12762TIP3    H159701   3.912   1.547  16.543  0.8613 -0.8797 -0.6682
12762TIP3    H259702   3.970   1.527  16.682 -0.7604  1.5270  0.4201
12763TIP3   OH259703   3.551   5.486   4.035  0.2957  0.3844  0.1809
12763TIP3    H159704   3.517   5.504   3.947  0.0681 -1.3227 -0.1190
12763TIP3    H259705   3.645   5.506   4.029  0.3692 -0.1559 -0.5975
12764TIP3   OH259706   4.995   3.071  11.284  0.2865  0.6414  0.0534
12764TIP3    H159707   4.906   3.080  11.317  0.6050 -0.2037  1.1782
12764TIP3    H259708   5.050   3.112  11.351  0.7704  1.0392 -0.5681
12765TIP3   OH259709   6.699   5.854   4.405  0.1003  0.0611  0.3545
12765TIP3    H159710   6.724   5.845   4.313  0.4567 -0.2677  0.4815
12765TIP3    H259711   6.721   5.945   4.427  1.7350 -0.3645  0.6153
12766TIP3   OH259712   0.090   4.066  10.923  0.7256  0.3744 -0.1196
12766TIP3    H159713   0.158   4.063  10.855  0.9482 -0.9961  0.1182
12766TIP3    H259714   0.139   4.070  11.005  0.4808  1.0129 -0.0058
12767TIP3   OH259715   3.364   6.218   2.642  0.3489  0.0442  0.5752
12767TIP3    H159716   3.428   6.148   2.654 -0.1157 -0.2831  1.1822
12767TIP3    H259717   3.368   6.268   2.724 -0.3882 -0.1617  0.7419
12768TIP3   OH259718   0.904   3.177   1.774  0.0311  0.0128 -0.0446
12768TIP3    H159719   0.894   3.261   1.819 -0.4076  0.0909 -0.2841
12768TIP3    H259720   0.832   3.175   1.711  0.3636 -0.3065 -0.4155
12769TIP3   OH259721   1.016   1.014  12.019 -0.5672 -0.1581 -0.1929
12769TIP3    H159722   0.947   0.989  11.958 -1.0888 -0.0357  0.3399
12769TIP3    H259723   0.983   0.987  12.105  0.4089 -0.8541 -0.0284
12770TIP3   OH259724   1.957   3.260   4.861 -0.4628  0.2495 -0.2137
12770TIP3    H159725   2.033   3.292   4.910 -0.0584 -1.8849  0.6403
12770TIP3    H259726   1.898   3.336   4.858  0.7177  1.2875  1.0947
12771TIP3   OH259727   0.492   2.330  15.030  0.2897 -0.4601 -0.1880
12771TIP3    H159728   0.522   2.282  15.107  1.4154 -1.1246 -1.0162
12771TIP3    H259729   0.494   2.266  14.959 -2.4255 -0.3481 -0.4717
12772TIP3   OH259730   5.464   1.388   2.996 -0.2746  0.1605 -0.2100
12772TIP3    H159731   5.429   1.301   2.980 -0.8389  0.3683 -0.1289
12772TIP3    H259732   5.559   1.378   2.986 -0.2533 -0.6413  0.6502
12773TIP3   OH259733   4.021   0.774   4.320  0.1465 -0.2445 -0.4917
12773TIP3    H159734   4.094   0.826   4.287 -0.2214 -0.2883 -1.4086
12773TIP3    H259735   4.029   0.780   4.415  0.9373  0.3169 -0.5773
12774TIP3   OH259736   5.602   4.553   3.146 -0.6197  0.2939 -0.3010
12774TIP3    H159737   5.619   4.544   3.052 -0.5812 -3.9238 -0.0907
12774TIP3    H259738   5.509   4.531   3.156 -0.6219  0.6760  0.6766
12775TIP3   OH259739   2.672   3.033  12.951  0.6686  0.2432 -0.7961
12775TIP3    H159740   2.622   3.087  13.012  1.2441  1.2539 -1.2077
12775TIP3    H259741   2.665   3.078  12.867  2.3197  0.4458 -0.8419
12776TIP3   OH259742   3.037   5.160   5.518 -0.1231 -0.0445 -0.5587
12776TIP3    H159743   2.987   5.215   5.578 -0.2136 -0.8334  0.1142
12776TIP3    H259744   3.113   5.213   5.494  0.1917  0.0963  0.6808
12777TIP3   OH259745   1.638   6.059  13.215 -0.0216 -0.0398 -0.4540
12777TIP3    H159746   1.715   6.088  13.263 -0.4174 -1.7794  1.3733
12777TIP3    H259747   1.569   6.121  13.241  0.4912  0.8943 -1.2744
12778TIP3   OH259748   2.183   6.075   1.732 -0.0510  0.7328  0.2740
12778TIP3    H159749   2.215   5.986   1.748  0.1053  0.8924  0.9257
12778TIP3    H259750   2.152   6.075   1.642  0.2259  0.0995  0.1770
12779TIP3   OH259751   5.388   0.991   4.528 -0.2804 -0.3909  0.3317
12779TIP3    H159752   5.469   0.985   4.579  1.2951  0.9392 -1.8131
12779TIP3    H259753   5.416   0.977   4.437 -2.4636  0.1324 -0.4837
12780TIP3   OH259754   0.920   3.827  15.899  0.1991 -0.2044  0.3707
12780TIP3    H159755   0.853   3.844  15.833  0.3028  3.6045  1.0168
12780TIP3    H259756   0.993   3.791  15.850 -0.1987  1.2752 -1.4360
12781TIP3   OH259757   5.228   0.378  14.968  0.5990 -0.6203 -0.0484
12781TIP3    H159758   5.275   0.459  14.950 -0.5724  0.3067  0.8618
12781TIP3    H259759   5.192   0.390  15.056 -0.3907 -1.7398 -0.2704
12782TIP3   OH259760   3.164   3.182  14.478  0.1704  0.1439  0.1423
12782TIP3    H159761   3.134   3.182  14.569 -0.4079 -0.8308 -0.0391
12782TIP3    H259762   3.157   3.274  14.451  1.0879  0.5703  1.3056
12783TIP3   OH259763   0.719   1.689  16.748 -0.5610  0.0657  0.3079
12783TIP3    H159764   0.712   1.755  16.817 -1.4590  1.2179 -0.8251
12783TIP3    H259765   0.756   1.737  16.673 -1.7496 -0.5511 -0.7158
12784TIP3   OH259766   5.567   0.756  12.795  0.6996  0.5141 -0.4779
12784TIP3    H159767   5.583   0.750  12.701 -0.4853  0.7658 -0.7066
12784TIP3    H259768   5.557   0.666  12.824  0.9758  0.4418 -0.6059
12785TIP3   OH259769   4.663   1.597   5.590 -0.4968 -0.4024 -0.0237
12785TIP3    H159770   4.717   1.521   5.612  1.7287  1.0373 -0.1440
12785TIP3    H259771   4.602   1.605   5.663  0.1381 -1.5236  0.6565
12786TIP3   OH259772   5.808   0.172   1.676 -0.1111 -0.1548 -0.3257
12786TIP3    H159773   5.767   0.100   1.723 -0.6921  0.7294  0.5516
12786TIP3    H259774   5.795   0.150   1.583 -2.4696 -0.0083 -0.1045
12787TIP3   OH259775   0.571   2.157  10.671  0.6280 -0.8552 -0.7050
12787TIP3    H159776   0.594   2.219  10.602  0.9687  0.4785  0.5540
12787TIP3    H259777   0.497   2.198  10.716  0.3849 -1.7217 -0.2970
12788TIP3   OH259778   5.680   3.900   3.405 -0.1510 -0.1728  0.1944
12788TIP3    H159779   5.749   3.854   3.357  0.4412  0.2446  0.6221
12788TIP3    H259780   5.700   3.993   3.392 -0.0550 -0.0501  1.1204
12789TIP3   OH259781   0.597   5.907   1.150  0.2123 -0.3506 -0.3383
12789TIP3    H159782   0.537   5.978   1.126  2.3921  1.3394 -1.1819
12789TIP3    H259783   0.629   5.874   1.066  0.3034 -1.3709  0.0852
12790TIP3   OH259784   1.675   3.440  13.614  0.3198  0.4315  0.1142
12790TIP3    H159785   1.702   3.482  13.695  2.1686  1.3782 -0.9105
12790TIP3    H259786   1.756   3.405  13.577 -0.7161 -1.3942 -0.5837
12791TIP3   OH259787   0.777   0.700  15.324  0.0430 -0.0498  0.5650
12791TIP3    H159788   0.798   0.790  15.297  2.3364 -1.0025 -1.1052
12791TIP3    H259789   0.861   0.655  15.326 -1.0381 -2.1715  1.4896
12792TIP3   OH259790   5.041   2.983   0.563  0.3542 -0.4155 -0.3578
12792TIP3    H159791   5.008   2.954   0.478 -1.5980 -0.5750  0.3880
12792TIP3    H259792   4.963   3.019   0.607  1.5385  0.6945  0.9344
12793TIP3   OH259793   5.473   0.515   5.307 -0.0662 -0.5565 -0.7769
12793TIP3    H159794   5.511   0.565   5.379 -1.2829 -0.1596 -0.3787
12793TIP3    H259795   5.464   0.426   5.341 -2.0745 -0.0526  0.1795
12794TIP3   OH259796   0.801   2.610   4.418 -0.0605  0.4229  0.6502
12794TIP3    H159797   0.838   2.623   4.505 -3.9138 -1.7136  2.8882
12794TIP3    H259798   0.796   2.515   4.409 -0.7162  0.6145 -1.4729
12795TIP3   OH259799   3.131   2.872  15.890 -0.4183 -0.2930 -0.0676
12795TIP3    H159800   3.201   2.824  15.846 -0.2991  1.4623 -1.9962
12795TIP3    H259801   3.067   2.889  15.820 -2.2892 -0.9484  1.4062
12796TIP3   OH259802   0.176   2.823  13.401 -0.3339 -0.4008 -0.1238
12796TIP3    H159803   0.222   2.742  13.381 -0.9899 -1.4038  2.0623
12796TIP3    H259804   0.244   2.882  13.434  0.1460 -0.0248 -1.7254
12797TIP3   OH259805   6.524   6.646   2.860  0.2457 -0.0180  0.2713
12797TIP3    H159806   6.589   6.579   2.838 -0.5864 -0.8829  0.3987
12797TIP3    H259807   6.446   6.621   2.811 -0.3049  0.4473  0.8900
12798TIP3   OH259808   5.238   1.679  17.017 -0.1750  0.3580  0.2344
12798TIP3    H159809   5.157   1.710  17.056 -0.5562  0.6832 -0.7942
12798TIP3    H259810   5.223   1.586  16.999 -0.1949  0.3408  0.3388
12799TIP3   OH259811   0.718   2.069   0.041 -0.2152 -0.2890 -0.1832
12799TIP3    H159812   0.647   2.129   0.021  0.2854  0.2084 -0.5081
12799TIP3    H259813   0.708   2.050   0.135 -0.6464 -0.0589 -0.1838
12800TIP3   OH259814   6.078   6.083   1.199  0.3159 -0.3066 -0.1231
12800TIP3    H159815   6.056   6.052   1.111  1.2048  0.9941 -0.8430
12800TIP3    H259816   6.141   6.154   1.184 -0.1139  0.4607  1.5349
12801TIP3   OH259817   6.043   6.035  12.043 -0.5418  0.7944 -0.4044
12801TIP3    H159818   6.004   5.981  12.111  0.3362  0.1694 -0.3772
12801TIP3    H259819   5.988   6.114  12.039 -2.0881 -0.2593 -0.7255
12802TIP3   OH259820   5.174   5.913  11.869  0.6438 -0.3066 -0.4673
12802TIP3    H159821   5.153   5.919  11.776  0.4428 -1.9780 -0.5646
12802TIP3    H259822   5.108   5.967  11.912  1.3219  1.2866 -1.3242
12803TIP3   OH259823   1.768   2.111  13.141 -0.0024 -0.3866 -0.0383
12803TIP3    H159824   1.756   2.204  13.161  0.2060 -0.1142 -1.1304
12803TIP3    H259825   1.680   2.079  13.123 -0.0007 -0.2609 -0.2638
12804TIP3   OH259826   1.429   5.615  11.484  0.1038  0.0269  0.0944
12804TIP3    H159827   1.507   5.576  11.523  0.2029 -0.6114 -0.7328
12804TIP3    H259828   1.365   5.544  11.481  0.2660 -0.0783 -1.3659
12805TIP3   OH259829   6.591   4.043   1.722 -0.6373 -0.6798  0.1069
12805TIP3    H159830   6.607   4.106   1.792  0.8984 -0.8654 -0.0628
12805TIP3    H259831   6.628   3.961   1.755 -0.7186 -0.9867 -0.5587
12806TIP3   OH259832   0.087   2.272   2.623 -0.1731  0.1277 -0.4080
12806TIP3    H159833   0.179   2.270   2.595 -0.5241 -1.7649 -1.5928
12806TIP3    H259834   0.067   2.366   2.631  2.4750  0.6359  2.2256
12807TIP3   OH259835   5.756   1.180  12.144 -0.4558 -0.4299  0.0936
12807TIP3    H159836   5.679   1.235  12.158  0.3875  0.4905  1.3429
12807TIP3    H259837   5.746   1.146  12.055 -2.4862 -0.6467  0.3776
12808TIP3   OH259838   2.321   1.980   0.615 -0.7890 -0.3252 -0.1490
12808TIP3    H159839   2.342   1.981   0.709 -0.9534 -1.4091 -0.0878
12808TIP3    H259840   2.370   2.054   0.579  2.2825 -1.9905  0.2075
12809TIP3   OH259841   3.750   1.985   1.463 -0.3520  1.1405  0.6270
12809TIP3    H159842   3.818   1.962   1.527  0.8933 -2.9835 -1.8395
12809TIP3    H259843   3.799   2.020   1.389 -0.7383 -1.7980 -1.1450
12810TIP3   OH259844   3.295   0.584   6.522 -0.5205  0.1091  0.8932
12810TIP3    H159845   3.298   0.612   6.430  0.5615  0.4735  1.0269
12810TIP3    H259846   3.351   0.506   6.524 -3.2214 -1.9777  0.5892
12811TIP3   OH259847   3.013   1.384   4.919  0.0534  0.5164  0.0150
12811TIP3    H159848   3.008   1.379   4.823 -1.0479 -0.6198  0.1007
12811TIP3    H259849   3.086   1.326   4.942  0.0768  0.4912 -0.1205
12812TIP3   OH259850   2.296   6.467   5.217  0.3551  0.1499  0.2278
12812TIP3    H159851   2.359   6.527   5.257  0.7968 -0.2120  0.0787
12812TIP3    H259852   2.220   6.522   5.197  0.9811  0.7783 -0.4460
12813TIP3   OH259853   3.071   3.320  11.815  0.7109 -0.3483 -0.5651
12813TIP3    H159854   3.023   3.240  11.838 -3.1516  2.3649  1.9446
12813TIP3    H259855   3.143   3.323  11.877 -0.6799 -0.6725  1.1464
12814TIP3   OH259856   5.635   0.899  16.697 -0.0438 -0.0730 -0.0414
12814TIP3    H159857   5.668   0.818  16.735 -0.5098  0.6727  2.0883
12814TIP3    H259858   5.577   0.935  16.764  0.2416  2.0756 -0.8668
12815TIP3   OH259859   2.750   1.564  12.716 -0.1828  0.4111  0.2587
12815TIP3    H159860   2.672   1.524  12.678 -0.7279 -1.2696  2.8706
12815TIP3    H259861   2.730   1.572  12.809  2.3381  1.0377  0.8394
12816TIP3   OH259862   4.452   3.195  12.995 -0.0588 -0.4014  0.6847
12816TIP3    H159863   4.386   3.264  12.995  1.4209  1.0621  0.6708
12816TIP3    H259864   4.499   3.206  12.913  2.0591  0.4817  1.9454
12817TIP3   OH259865   2.304   2.024   0.313  0.3086 -0.4684 -0.1816
12817TIP3    H159866   2.346   1.940   0.295 -1.4443 -0.9490 -2.6272
12817TIP3    H259867   2.220   2.001   0.352  0.4216  0.2596  0.5251
12818TIP3   OH259868   6.229   3.418  11.877 -0.1524  0.1012  0.3968
12818TIP3    H159869   6.181   3.353  11.826  1.2594  0.7182 -1.9125
12818TIP3    H259870   6.314   3.378  11.894 -0.6907 -0.2142  2.6787
12819TIP3   OH259871   3.129   6.713   4.504  0.5342 -0.0309 -0.0797
12819TIP3    H159872   3.038   6.718   4.474  0.7731  0.7671 -0.6805
12819TIP3    H259873   3.179   6.759   4.437  1.3672 -0.3014  0.3478
12820TIP3   OH259874   0.354   0.454  10.477 -0.0898 -1.0002 -0.0136
12820TIP3    H159875   0.389   0.429  10.562 -0.6738  0.9670  0.8565
12820TIP3    H259876   0.373   0.547  10.470 -3.2386 -0.2810 -0.4263
12821TIP3   OH259877   0.251   2.491  12.058 -0.3265  0.4562 -0.7631
12821TIP3    H159878   0.341   2.457  12.061 -0.4987 -0.0431 -1.1364
12821TIP3    H259879   0.241   2.524  11.969 -0.7131 -0.0396 -0.9042
12822TIP3   OH259880   5.345   1.590  14.351  0.0317  0.2542  1.0954
12822TIP3    H159881   5.360   1.547  14.435  0.6315  0.5402  1.1426
12822TIP3    H259882   5.295   1.669  14.373  1.5823  1.1899  1.4090
12823TIP3   OH259883   6.645   1.479   1.761 -0.1564  0.5920 -0.8113
12823TIP3    H159884   6.633   1.479   1.856  1.0772  1.4086 -0.6332
12823TIP3    H259885   6.666   1.570   1.739 -1.6969  0.6792 -2.0519
12824TIP3   OH259886   0.444   1.646   1.789  0.2339 -0.7883 -0.1377
12824TIP3    H159887   0.397   1.600   1.859 -0.7904  0.4353 -0.0024
12824TIP3    H259888   0.404   1.614   1.708  0.9637 -1.6962 -0.1602
12825TIP3   OH259889   0.506   0.447  15.812  0.1091  0.3430  0.2190
12825TIP3    H159890   0.593   0.474  15.783 -0.2651 -0.2388 -1.5300
12825TIP3    H259891   0.453   0.527  15.805  0.1627  0.3508 -0.0780
12826TIP3   OH259892   1.483   5.020   1.589  0.8940  0.2503 -0.1119
12826TIP3    H159893   1.516   4.932   1.606  2.4747  0.7827 -0.2193
12826TIP3    H259894   1.489   5.030   1.494  0.8378  0.5205 -0.0882
12827TIP3   OH259895   0.988   2.652   0.428 -0.4674  0.2943  0.0266
12827TIP3    H159896   0.901   2.660   0.466 -0.7061  0.6294 -0.5836
12827TIP3    H259897   1.044   2.704   0.486 -0.6404 -0.0277  0.4947
12828TIP3   OH259898   5.200   6.240   3.098  0.1073  0.1483  0.7634
12828TIP3    H159899   5.111   6.206   3.086  0.2380  0.1458 -0.2209
12828TIP3    H259900   5.216   6.294   3.021  0.6182  0.9163  1.3932
12829TIP3   OH259901   2.596   0.866  16.771  0.2587 -0.1367 -0.1687
12829TIP3    H159902   2.642   0.882  16.689  1.4569  1.0275  0.6931
12829TIP3    H259903   2.635   0.785  16.805 -1.5474 -1.6996 -1.5879
12830TIP3   OH259904   2.567   3.413   0.648  0.6882 -0.2179 -0.4908
12830TIP3    H159905   2.639   3.356   0.678  2.2965  1.0627 -1.7073
12830TIP3    H259906   2.610   3.496   0.629 -1.6263  1.5743  1.5675
12831TIP3   OH259907   3.125   3.877  13.996 -0.0420  0.0378  0.2926
12831TIP3    H159908   3.087   3.956  14.034 -0.2563 -0.2661  0.7205
12831TIP3    H259909   3.173   3.908  13.919  0.7382  0.7159  1.0336
12832TIP3   OH259910   4.243   1.230  11.041  0.6438 -0.2645 -0.7346
12832TIP3    H159911   4.286   1.287  10.976 -2.0296 -0.2936 -2.7113
12832TIP3    H259912   4.254   1.142  11.006 -0.3683 -0.3300 -0.9191
12833TIP3   OH259913   2.658   3.669   1.815  0.2088  0.2346  0.2589
12833TIP3    H159914   2.719   3.631   1.752 -1.0334  0.3038 -1.0656
12833TIP3    H259915   2.628   3.595   1.868  0.0760 -0.1296 -0.3108
12834TIP3   OH259916   6.584   1.824   5.374 -0.0373 -0.4173 -0.8739
12834TIP3    H159917   6.523   1.887   5.411 -0.0201  0.6729 -2.5348
12834TIP3    H259918   6.669   1.868   5.379  0.1454 -0.7364 -1.1123
12835TIP3   OH259919   0.248   4.357  15.283 -0.5649 -0.7615 -0.0200
12835TIP3    H159920   0.248   4.447  15.314 -0.3014 -0.7426 -0.0675
12835TIP3    H259921   0.327   4.318  15.323  0.1087 -0.5697 -1.1197
12836TIP3   OH259922   0.660   1.958   3.794  0.6980  0.4264  0.5143
12836TIP3    H159923   0.739   1.919   3.756  0.2396 -1.6796  1.5732
12836TIP3    H259924   0.608   1.985   3.718  2.0713  1.1597 -0.2134
12837TIP3   OH259925   5.031   6.263   3.702 -0.1044 -0.1338 -0.0753
12837TIP3    H159926   5.020   6.324   3.629 -1.2622 -0.8403 -0.5272
12837TIP3    H259927   5.030   6.177   3.661 -3.0796 -0.6825  0.9143
12838TIP3   OH259928   4.712   5.357   5.683  0.7961 -0.0436  0.2923
12838TIP3    H159929   4.665   5.412   5.746  1.4240 -0.8414  1.4829
12838TIP3    H259930   4.705   5.268   5.717  1.9156 -0.3739 -0.2834
12839TIP3   OH259931   4.439   5.433  14.051 -0.0930 -0.1699 -0.1342
12839TIP3    H159932   4.376   5.499  14.079 -0.6574 -0.0308 -1.6286
12839TIP3    H259933   4.436   5.436  13.955  0.3235 -1.9176 -0.2382
12840TIP3   OH259934   4.416   3.413  12.683  0.0649  0.2110 -0.4882
12840TIP3    H159935   4.497   3.408  12.733  0.1546  1.0362 -0.5355
12840TIP3    H259936   4.383   3.323  12.681  0.6176 -0.0112  0.1209
12841TIP3   OH259937   1.112   3.501  13.422 -0.1754  0.8205 -0.7206
12841TIP3    H159938   1.095   3.589  13.454 -0.3480 -0.1353  2.0606
12841TIP3    H259939   1.026   3.468  13.396 -0.4860  0.6989  0.4218
12842TIP3   OH259940   1.706   2.276   1.005  0.4321 -0.4385  0.3682
12842TIP3    H159941   1.663   2.206   1.054  0.6399 -1.4137 -0.7733
12842TIP3    H259942   1.644   2.297   0.935  1.5279 -1.5266 -1.0108
12843TIP3   OH259943   3.941   2.382   0.763  0.1049  0.1599 -0.0067
12843TIP3    H159944   3.845   2.377   0.766  0.1316 -0.1112  0.5514
12843TIP3    H259945   3.967   2.399   0.854  0.6569 -1.2823  0.1332
12844TIP3   OH259946   5.576   4.925   3.542  0.3684  0.7354 -0.4152
12844TIP3    H159947   5.660   4.883   3.562  0.4669  1.2695  0.2881
12844TIP3    H259948   5.599   5.014   3.516  0.1309  0.4603 -1.6499
12845TIP3   OH259949   6.717   0.763   0.376  0.0545 -0.0147 -0.2897
12845TIP3    H159950   6.812   0.774   0.382  0.1794 -1.2300  0.1714
12845TIP3    H259951   6.702   0.738   0.285  0.1131  0.6336 -0.4852
12846TIP3   OH259952   0.251   6.342   0.779  0.3112 -0.3915  0.3927
12846TIP3    H159953   0.263   6.249   0.761  1.1184  0.1675 -2.3402
12846TIP3    H259954   0.171   6.365   0.732  1.0362  0.6154 -0.3868
12847TIP3   OH259955   6.359   5.274  16.302 -0.2676  0.5755 -0.0458
12847TIP3    H159956   6.296   5.219  16.348 -0.2337  0.0875 -0.5736
12847TIP3    H259957   6.379   5.345  16.363 -1.3133  0.7228  0.1349
12848TIP3   OH259958   5.330   4.467  10.523  0.2300  0.2973  0.5592
12848TIP3    H159959   5.277   4.528  10.473 -0.2279 -0.7347 -0.2580
12848TIP3    H259960   5.410   4.456  10.472  0.0929 -0.1683  0.4403
12849TIP3   OH259961   6.247   5.227  11.953  0.6328 -0.4203  0.0910
12849TIP3    H159962   6.256   5.299  11.891  0.5290  1.3688  2.0392
12849TIP3    H259963   6.180   5.256  12.015  1.6073 -1.5615  1.7687
12850TIP3   OH259964   6.438   2.743   4.424  0.3190 -0.1878 -0.0742
12850TIP3    H159965   6.524   2.783   4.439  0.7993 -0.8548 -0.9115
12850TIP3    H259966   6.396   2.802   4.361 -0.0016  0.3374  0.6128
12851TIP3   OH259967   2.902   4.446   5.813  0.2162 -0.3028  0.6378
12851TIP3    H159968   2.895   4.474   5.905 -0.2566 -3.2013  1.5749
12851TIP3    H259969   2.996   4.447   5.795  0.2863  0.7327  0.9577
12852TIP3   OH259970   0.858   5.234  16.833 -0.5220  0.0052 -0.3212
12852TIP3    H159971   0.773   5.250  16.791  0.0912  1.2579 -1.1603
12852TIP3    H259972   0.837   5.183  16.911 -1.9374 -0.5335 -1.0241
12853TIP3   OH259973   0.584   1.380  16.424 -0.3698  0.1159 -0.4707
12853TIP3    H159974   0.628   1.443  16.367  0.5744 -1.5175 -1.6368
12853TIP3    H259975   0.656   1.336  16.470 -0.9952 -0.2358  0.1864
12854TIP3   OH259976   1.253   4.484  14.958  0.2894  0.1506 -0.5525
12854TIP3    H159977   1.244   4.561  14.902 -1.2792 -0.2597 -0.9236
12854TIP3    H259978   1.335   4.443  14.929  0.0957  0.5744 -1.7804
12855TIP3   OH259979   3.067   0.413  10.800  0.2401 -0.5181  0.1417
12855TIP3    H159980   3.113   0.404  10.716 -0.9451 -1.3785 -0.4484
12855TIP3    H259981   2.990   0.466  10.780 -1.7537 -3.2608 -0.1051
12856TIP3   OH259982   2.470   5.236  12.363 -0.0535  0.1184  0.6466
12856TIP3    H159983   2.491   5.180  12.438 -0.6808  1.2634  1.7033
12856TIP3    H259984   2.544   5.223  12.303  0.7276 -0.4195  1.6803
12857TIP3   OH259985   1.740   2.701  16.176  0.3379 -0.2426  0.7361
12857TIP3    H159986   1.779   2.716  16.089  0.6903  0.0280  0.9342
12857TIP3    H259987   1.653   2.667  16.158 -0.2401  1.3971  0.2419
12858TIP3   OH259988   4.937   6.435   1.799 -0.3117 -0.4419 -0.2264
12858TIP3    H159989   4.871   6.501   1.822  0.0846 -0.7375  1.9677
12858TIP3    H259990   4.937   6.374   1.873  0.1701 -2.2735 -1.6456
12859TIP3   OH259991   3.094   6.744   3.372  0.4330 -0.1747 -0.1049
12859TIP3    H159992   3.137   6.828   3.358 -0.8190  0.6013  0.5697
12859TIP3    H259993   3.013   6.765   3.419 -0.0274 -1.7261 -0.1345
12860TIP3   OH259994   5.565   2.660   1.567  0.0881 -0.8504  0.0532
12860TIP3    H159995   5.622   2.603   1.516  1.0546 -0.7649  0.9893
12860TIP3    H259996   5.576   2.631   1.657 -0.7145 -0.2736  0.3516
12861TIP3   OH259997   4.270   1.024  16.715  0.5494 -0.0535  0.3279
12861TIP3    H159998   4.263   1.118  16.698 -0.4634 -0.2245 -0.2700
12861TIP3    H259999   4.358   1.012  16.750  0.8906  1.0400 -0.1338
12862TIP3   OH260000   0.050   1.847  12.201  0.1177 -0.2270  0.3679
12862TIP3    H160001   0.078   1.932  12.167  1.1057 -0.4680  0.5447
12862TIP3    H260002   0.116   1.785  12.170 -1.3558 -1.2095 -0.9992
12863TIP3   OH260003   1.851   2.769  15.919  0.5696 -0.1147 -0.0676
12863TIP3    H160004   1.776   2.740  15.867  0.8789 -1.4275  0.1691
12863TIP3    H260005   1.896   2.833  15.865  0.8716 -1.4380 -1.4562
12864TIP3   OH260006   0.407   3.047   5.598  0.0389  0.0627 -0.4085
12864TIP3    H160007   0.386   3.101   5.674  0.9556  1.3326 -0.9980
12864TIP3    H260008   0.494   3.012   5.617 -0.8352 -1.8213  0.2692
12865TIP3   OH260009   2.653   6.148   2.544 -0.5064  0.0493  0.6758
12865TIP3    H160010   2.717   6.155   2.472 -0.7549 -0.7414  0.3763
12865TIP3    H260011   2.707   6.132   2.621 -0.3246 -0.5738  0.4303
12866TIP3   OH260012   6.422   4.107   4.010 -0.5048  0.1518  0.0507
12866TIP3    H160013   6.475   4.183   4.031 -2.9786  1.7363  1.0477
12866TIP3    H260014   6.422   4.054   4.090  0.8846 -0.7399 -0.5092
12867TIP3   OH260015   3.172   0.757   2.501 -0.2044 -0.0547 -0.1941
12867TIP3    H160016   3.245   0.791   2.450 -0.7971  1.1318 -0.3029
12867TIP3    H260017   3.110   0.830   2.504 -0.1876 -0.0595  2.2255
12868TIP3   OH260018   0.559   5.196   4.896  0.1906  0.0954 -0.1999
12868TIP3    H160019   0.533   5.249   4.820 -0.6954 -1.3274 -0.9244
12868TIP3    H260020   0.486   5.203   4.957 -0.5720 -1.3984 -0.9049
12869TIP3   OH260021   6.484   1.988  16.915 -0.4044  0.8854  0.5382
12869TIP3    H160022   6.565   1.977  16.866 -0.8982  1.5524 -0.4578
12869TIP3    H260023   6.426   1.920  16.881 -0.7694  1.3928  0.1129
12870TIP3   OH260024   5.928   6.383   0.953 -0.2465 -0.2930  0.4881
12870TIP3    H160025   5.904   6.449   0.888  1.5280  0.5909  0.6766
12870TIP3    H260026   5.877   6.305   0.929 -1.0363  0.5918 -0.8010
12871TIP3   OH260027   4.654   5.182  12.969  0.1457  0.2697  0.0380
12871TIP3    H160028   4.605   5.215  12.893  0.1102 -0.3108 -0.1977
12871TIP3    H260029   4.637   5.088  12.969  1.2909  0.0462 -0.0730
12872TIP3   OH260030   1.436   4.469   2.331  0.2776  0.4685  0.2513
12872TIP3    H160031   1.420   4.428   2.245  0.0966 -1.1533  1.0238
12872TIP3    H260032   1.515   4.426   2.363 -0.0655  0.5361  1.2061
12873TIP3   OH260033   3.012   3.676  15.458 -0.7560  0.7670 -0.2676
12873TIP3    H160034   2.922   3.680  15.426 -0.8284  2.2389  0.0345
12873TIP3    H260035   3.004   3.671  15.553 -0.5243  0.7081 -0.2499
12874TIP3   OH260036   3.366   3.123  13.455  0.1936  0.4939 -0.3765
12874TIP3    H160037   3.398   3.099  13.542 -0.4131  0.4103 -0.1729
12874TIP3    H260038   3.296   3.060  13.438  0.0401  0.7666 -0.7548
12875TIP3   OH260039   4.965   0.844   1.035  0.5809  0.2652 -0.6434
12875TIP3    H160040   4.904   0.880   1.099  0.8602  0.2064 -0.3447
12875TIP3    H260041   5.001   0.921   0.991  0.0383  0.2892 -1.0597
12876TIP3   OH260042   6.306   5.365   5.455  0.1465  0.0753  0.0678
12876TIP3    H160043   6.278   5.406   5.374 -0.0123 -1.1267 -0.5083
12876TIP3    H260044   6.290   5.271   5.442 -1.1042 -0.0340  1.9556
12877TIP3   OH260045   0.136   2.342  16.825  0.4188 -0.0166  0.0729
12877TIP3    H160046   0.168   2.432  16.820 -0.3279  0.4234  2.0494
12877TIP3    H260047   0.047   2.345  16.790  0.4573 -0.0120 -0.0224
12878TIP3   OH260048   4.215   0.732   3.083  0.1198  0.5786 -0.5048
12878TIP3    H160049   4.132   0.711   3.042  0.8879  0.9512 -2.3323
12878TIP3    H260050   4.191   0.774   3.166 -1.4982  0.6135 -0.9570
12879TIP3   OH260051   5.496   0.781  14.764 -0.2154  0.4808  0.0447
12879TIP3    H160052   5.543   0.722  14.705  2.7609  2.9252 -0.2862
12879TIP3    H260053   5.435   0.827  14.708 -1.7199 -1.3082  0.0989
12880TIP3   OH260054   0.539   2.335  12.801 -0.6038 -0.3009 -0.8138
12880TIP3    H160055   0.554   2.423  12.768 -1.3154  0.3048  0.4011
12880TIP3    H260056   0.556   2.341  12.895 -0.4740 -1.5017 -0.7400
12881TIP3   OH260057   2.372   4.006   5.210 -0.0220  0.1972  0.1776
12881TIP3    H160058   2.370   3.914   5.237  1.9598  0.6513  2.1381
12881TIP3    H260059   2.286   4.020   5.169 -0.7825 -2.2412  0.7164
12882TIP3   OH260060   1.237   3.565   2.022 -0.1608  0.1754 -0.6272
12882TIP3    H160061   1.158   3.604   1.983 -0.2652  0.0605 -0.5346
12882TIP3    H260062   1.228   3.471   2.005 -0.7679 -0.0169  0.6386
12883TIP3   OH260063   1.674   0.112   6.097  0.2572 -0.3519  0.0723
12883TIP3    H160064   1.650   0.202   6.116  0.8974  0.0395 -0.9073
12883TIP3    H260065   1.653   0.064   6.178 -1.6039  0.3566  0.0556
12884TIP3   OH260066   0.923   0.542  15.881  0.3971  0.9126 -0.0644
12884TIP3    H160067   0.910   0.454  15.917 -0.0036  0.3157 -1.5596
12884TIP3    H260068   0.834   0.578  15.874 -0.0806 -0.5232 -3.9624
12885TIP3   OH260069   5.181   1.750   0.826 -0.4257  0.5390  0.2129
12885TIP3    H160070   5.237   1.812   0.780  3.6120 -3.5383 -1.0832
12885TIP3    H260071   5.134   1.704   0.757 -0.9898  0.0657  0.8914
12886TIP3   OH260072   1.325   3.231  14.861 -0.0787  1.0718 -0.2338
12886TIP3    H160073   1.263   3.302  14.875 -1.2449  0.5789 -2.4664
12886TIP3    H260074   1.382   3.263  14.791 -0.5851 -0.1457 -1.2291
12887TIP3   OH260075   0.276   2.145   0.376  0.4387  0.1642 -0.0084
12887TIP3    H160076   0.251   2.236   0.390 -1.3857  0.0330 -1.9616
12887TIP3    H260077   0.208   2.095   0.421  0.1122 -0.2086 -0.8940
12888TIP3   OH260078   6.173   6.285  11.540  0.1969  0.4660  0.4982
12888TIP3    H160079   6.124   6.367  11.549 -1.6014 -0.6576  1.6006
12888TIP3    H260080   6.154   6.237  11.620  0.4800 -1.3900 -0.5020
12889TIP3   OH260081   3.167   6.813  11.210 -0.5694  0.1758  0.6708
12889TIP3    H160082   3.216   6.855  11.280 -2.0373 -0.1986  1.9676
12889TIP3    H260083   3.091   6.868  11.197  0.1340  0.7661 -1.3479
12890TIP3   OH260084   1.113   3.954   4.324  0.6635  0.4849 -0.2897
12890TIP3    H160085   1.042   3.895   4.298  0.4406  0.6227 -0.0043
12890TIP3    H260086   1.069   4.024   4.373  1.1960 -0.5218  1.7742
12891TIP3   OH260087   0.533   4.084  13.349 -0.3046 -0.0622 -0.2170
12891TIP3    H160088   0.542   4.009  13.408  1.1656 -0.0047 -0.3339
12891TIP3    H260089   0.595   4.149  13.383 -0.0946  0.3215 -1.2923
12892TIP3   OH260090   3.826   6.301   5.984  0.1278 -0.2747 -0.1534
12892TIP3    H160091   3.766   6.269   5.918 -0.4471 -1.2437  0.8155
12892TIP3    H260092   3.797   6.391   6.002 -2.1684 -1.2669  1.5280
12893TIP3   OH260093   0.057   5.948  13.550 -0.1406 -0.0567 -0.1713
12893TIP3    H160094   0.134   6.006  13.549  1.0013 -1.5293 -1.1631
12893TIP3    H260095   0.038   5.936  13.643 -0.5721  2.0772  0.0693
12894TIP3   OH260096   3.314   1.103  13.540 -0.7138  0.2135 -0.2601
12894TIP3    H160097   3.234   1.055  13.519 -0.6948 -0.4028  0.9699
12894TIP3    H260098   3.284   1.191  13.564 -1.0092  0.0515 -0.0279
12895TIP3   OH260099   1.764   5.233   0.046 -0.5475  0.2158 -0.4243
12895TIP3    H160100   1.718   5.150   0.058  0.5038 -0.4306 -0.6778
12895TIP3    H260101   1.851   5.218   0.083 -0.7696  1.6565  0.7594
12896TIP3   OH260102   5.436   6.713   3.382 -0.0942 -0.0734  0.5893
12896TIP3    H160103   5.396   6.744   3.301  1.2051  0.2658  0.0503
12896TIP3    H260104   5.362   6.696   3.440 -1.0604 -0.3530 -0.6704
12897TIP3   OH260105   0.204   1.219  14.648 -0.1837  0.0430  0.1110
12897TIP3    H160106   0.207   1.175  14.562  1.1650 -0.8200  0.5573
12897TIP3    H260107   0.294   1.212  14.681 -0.8132 -0.1870  1.8614
12898TIP3   OH260108   2.052   5.120   4.448 -0.3106 -0.5530 -0.4012
12898TIP3    H160109   2.095   5.076   4.521  2.6587  2.1870 -0.2750
12898TIP3    H260110   2.116   5.117   4.377 -1.3107  0.7293 -1.4197
12899TIP3   OH260111   3.385   0.907   4.524  0.6536 -0.1459 -1.0251
12899TIP3    H160112   3.409   0.841   4.458  0.6554 -0.0276 -1.1428
12899TIP3    H260113   3.389   0.860   4.607  1.5634 -0.0729 -1.0105
12900TIP3   OH260114   1.425   3.236  12.535 -0.0294 -0.1656 -0.2434
12900TIP3    H160115   1.425   3.319  12.582 -1.0119 -0.3526  0.1100
12900TIP3    H260116   1.489   3.182  12.581  0.3794  0.2895 -0.2773
12901TIP3   OH260117   1.909   3.912   3.516 -1.1387  0.1440 -0.4060
12901TIP3    H160118   1.891   4.003   3.538 -2.9182 -0.2559 -0.0360
12901TIP3    H260119   1.830   3.882   3.470 -1.6985 -1.8777  1.6428
12902TIP3   OH260120   0.696   3.152   3.148  0.2621  0.0776  0.2425
12902TIP3    H160121   0.784   3.170   3.180  0.2457 -0.9850  0.9488
12902TIP3    H260122   0.687   3.205   3.069  0.7153  1.9521  1.3860
12903TIP3   OH260123   2.145   0.539   5.039 -0.7623 -0.1404  0.0031
12903TIP3    H160124   2.224   0.549   4.987  0.0920 -0.8876  1.0904
12903TIP3    H260125   2.103   0.625   5.036  1.4088  1.0678  1.4336
12904TIP3   OH260126   4.590   1.491  12.858 -0.8153  0.2673  0.0801
12904TIP3    H160127   4.555   1.579  12.871 -0.2210  0.2069  2.5181
12904TIP3    H260128   4.540   1.435  12.917 -0.6411 -0.9159 -0.8443
12905TIP3   OH260129   5.996   4.399   6.244 -0.2881  0.1317 -0.0658
12905TIP3    H160130   6.006   4.304   6.247 -0.0746  0.1040 -1.3539
12905TIP3    H260131   5.983   4.424   6.336 -3.1783 -1.4384  0.0713
12906TIP3   OH260132   6.782   0.544  16.460  0.4778 -0.1633 -0.2143
12906TIP3    H160133   6.714   0.480  16.439 -0.1266  0.2985  0.2800
12906TIP3    H260134   6.733   0.625  16.477  1.2725  0.6179 -1.5077
12907TIP3   OH260135   5.794   0.694  15.672  0.0408  0.3911 -0.2200
12907TIP3    H160136   5.809   0.789  15.666 -1.8388  0.7286 -0.2134
12907TIP3    H260137   5.877   0.659  15.704  0.2068  2.2409  1.5895
12908TIP3   OH260138   2.980   2.740   3.632  0.3778  0.4135 -0.0840
12908TIP3    H160139   2.930   2.721   3.711  0.1525  0.0334 -0.3163
12908TIP3    H260140   2.919   2.723   3.560  1.1695 -1.2524 -0.4252
12909TIP3   OH260141   6.034   5.494  10.576  0.6919 -0.0013 -0.1121
12909TIP3    H160142   6.104   5.548  10.613  1.1969 -0.1033 -0.8893
12909TIP3    H260143   6.080   5.424  10.530  0.1223  0.6028 -1.6668
12910TIP3   OH260144   5.878   5.929  12.243  0.0979  0.1262 -0.4112
12910TIP3    H160145   5.810   5.864  12.259  0.1787 -0.5762 -2.5758
12910TIP3    H260146   5.940   5.918  12.315 -1.1727 -0.4310  0.6302
12911TIP3   OH260147   6.498   3.437  16.126  0.6791 -0.1291 -0.2977
12911TIP3    H160148   6.405   3.450  16.107  0.3361 -0.7450  0.8791
12911TIP3    H260149   6.543   3.496  16.065 -0.5725  2.2182  0.8996
12912TIP3   OH260150   2.100   3.166  14.524 -0.0909 -0.0953 -0.3355
12912TIP3    H160151   2.115   3.136  14.614 -0.1967 -0.4319 -0.4277
12912TIP3    H260152   2.056   3.250  14.534  1.9946  1.0209 -0.0563
12913TIP3   OH260153   0.989   6.722  12.819 -0.2726  0.4372 -0.4805
12913TIP3    H160154   1.021   6.674  12.742 -1.5902 -0.1311 -0.7106
12913TIP3    H260155   0.963   6.653  12.881  0.4847  0.8913  0.3623
12914TIP3   OH260156   6.694   1.500  11.499  0.2639 -0.1492  0.3434
12914TIP3    H160157   6.730   1.527  11.584  0.1248 -1.8032  0.9571
12914TIP3    H260158   6.637   1.426  11.520  1.0947 -1.3042 -1.3119
12915TIP3   OH260159   2.046   6.084  16.307 -0.0828  0.1602 -0.4891
12915TIP3    H160160   2.096   6.105  16.386  0.3280  0.4771 -0.8247
12915TIP3    H260161   2.021   5.992  16.317 -2.6912  0.9736  1.4406
12916TIP3   OH260162   5.008   4.234   1.406  0.1887 -0.5069 -1.1056
12916TIP3    H160163   4.962   4.311   1.440  1.0418  0.8238 -2.8156
12916TIP3    H260164   4.941   4.185   1.357  0.0313  0.1145 -1.5202
12917TIP3   OH260165   2.435   5.500  13.763  1.0931  0.2451  0.4418
12917TIP3    H160166   2.450   5.494  13.858 -2.5822 -2.2786  1.0887
12917TIP3    H260167   2.510   5.455  13.724  1.8316 -0.2019  2.2735
12918TIP3   OH260168   6.265   3.677  15.522  0.3227 -0.4846 -0.1716
12918TIP3    H160169   6.223   3.763  15.521  0.7188 -0.2885 -0.3432
12918TIP3    H260170   6.301   3.667  15.434  0.8912 -0.5148  0.0595
12919TIP3   OH260171   5.045   2.160   2.703 -0.3222  0.2388 -0.7428
12919TIP3    H160172   4.954   2.167   2.675 -0.5834  1.6057  0.3513
12919TIP3    H260173   5.062   2.240   2.752  1.1746 -0.4410 -0.0756
12920TIP3   OH260174   3.636   2.014   3.884 -0.2999  0.4246 -0.5720
12920TIP3    H160175   3.656   1.934   3.836  0.2611 -0.3468  0.8548
12920TIP3    H260176   3.721   2.042   3.919 -0.7471  0.6405  0.3907
12921TIP3   OH260177   1.700   0.076   3.000  0.5925  0.6523 -0.2903
12921TIP3    H160178   1.786   0.039   3.021  0.1197  0.3561  1.3107
12921TIP3    H260179   1.711   0.170   3.008  0.3538  0.5542  1.9351
12922TIP3   OH260180   5.605   2.943   1.668 -0.2354 -0.2363  0.0879
12922TIP3    H160181   5.527   2.998   1.665  0.9123  1.4189 -0.3676
12922TIP3    H260182   5.573   2.859   1.703 -2.7379 -0.5826 -2.6661
12923TIP3   OH260183   6.632   5.709   3.648  0.0130 -0.7951  0.3316
12923TIP3    H160184   6.565   5.750   3.702 -0.0463  0.8368 -0.8892
12923TIP3    H260185   6.715   5.736   3.687  0.0408 -3.0158  1.9892
12924TIP3   OH260186   0.230   0.533  11.206  0.3589 -0.0534  0.2800
12924TIP3    H160187   0.243   0.622  11.171 -3.0798 -0.4237 -2.5318
12924TIP3    H260188   0.289   0.478  11.155  1.0567  0.3523  0.6373
12925TIP3   OH260189   4.432   4.119  16.369 -0.8021  0.1580 -0.5621
12925TIP3    H160190   4.448   4.146  16.459 -0.5000  0.1376 -0.6095
12925TIP3    H260191   4.458   4.027  16.366 -0.7814  0.1673 -0.6773
12926TIP3   OH260192   0.314   2.728  13.923  0.4504  0.4995 -0.1818
12926TIP3    H160193   0.288   2.691  13.839  0.7486 -0.8482  0.3005
12926TIP3    H260194   0.248   2.795  13.941 -1.4445 -1.2998 -0.0507
12927TIP3   OH260195   5.719   0.801   4.202  0.1681 -0.0493  0.4357
12927TIP3    H160196   5.751   0.840   4.120  1.0365  0.5586  1.0454
12927TIP3    H260197   5.705   0.709   4.180 -1.7774  0.5274 -0.9835
12928TIP3   OH260198   6.434   0.287  11.945  0.1661 -0.0705  0.4782
12928TIP3    H160199   6.517   0.280  11.993 -0.1376 -0.5145  0.9627
12928TIP3    H260200   6.459   0.286  11.853  0.6549 -1.1635  0.5978
12929TIP3   OH260201   1.071   0.243   2.803 -0.3101 -0.2737  0.2019
12929TIP3    H160202   1.099   0.334   2.805 -0.3351 -0.1998 -1.6165
12929TIP3    H260203   1.106   0.206   2.884  1.6173  0.7835 -0.0837
12930TIP3   OH260204   2.754   6.306  11.674  0.1297 -0.2399 -0.1264
12930TIP3    H160205   2.737   6.372  11.741 -0.9829  1.5851 -2.1135
12930TIP3    H260206   2.683   6.243  11.684  0.8524 -0.8865  1.3745
12931TIP3   OH260207   6.381   4.419   4.613 -0.6084  0.3527  0.7863
12931TIP3    H160208   6.428   4.503   4.615  0.1915 -0.0960  1.7899
12931TIP3    H260209   6.435   4.360   4.665 -0.8950 -0.9423 -0.3378
12932TIP3   OH260210   5.430   0.761   1.148  0.5557 -0.3213  0.5133
12932TIP3    H160211   5.437   0.733   1.239  0.0045 -0.1630  0.6116
12932TIP3    H260212   5.520   0.776   1.119  1.0084 -3.1913  0.1361
12933TIP3   OH260213   3.237   4.557   5.598 -0.1111 -0.1551 -0.1403
12933TIP3    H160214   3.153   4.580   5.558  0.2602 -0.7598 -1.3114
12933TIP3    H260215   3.295   4.630   5.578 -0.1548 -0.0670  0.0481
12934TIP3   OH260216   1.447   6.037   1.087 -0.6752  0.1020  0.1445
12934TIP3    H160217   1.460   6.131   1.095  2.2356 -0.1693 -0.1890
12934TIP3    H260218   1.425   6.007   1.175  0.1698  0.9020  0.6373
12935TIP3   OH260219   0.838   4.951   3.857  0.6036  0.1332  0.0693
12935TIP3    H160220   0.832   4.973   3.950  1.4413  0.9704 -0.0558
12935TIP3    H260221   0.828   4.855   3.855 -1.9428  0.3051  0.7443
12936TIP3   OH260222   3.539   0.794   0.155 -0.1503  0.1715 -0.3130
12936TIP3    H160223   3.571   0.726   0.096 -1.6360 -2.5299  1.7561
12936TIP3    H260224   3.510   0.865   0.097 -1.6642 -2.3381 -2.9042
12937TIP3   OH260225   3.483   0.126   4.376 -1.1158  0.0419  0.1664
12937TIP3    H160226   3.572   0.113   4.344 -1.4668  3.6229 -2.9004
12937TIP3    H260227   3.493   0.150   4.468  1.1037  0.5721 -0.1747
12938TIP3   OH260228   3.113   1.308   2.701 -0.4916 -0.0397  0.3506
12938TIP3    H160229   3.093   1.237   2.763  0.1365  1.3394  2.2419
12938TIP3    H260230   3.087   1.388   2.748 -1.1398  1.0128 -1.6911
12939TIP3   OH260231   0.529   4.507  13.386  0.3848  0.0228  0.1276
12939TIP3    H160232   0.545   4.559  13.308 -1.2106  0.0968 -0.1822
12939TIP3    H260233   0.473   4.562  13.441  0.4288 -0.5361  0.7440
12940TIP3   OH260234   5.387   4.752  15.140  0.5625 -0.0401 -0.5504
12940TIP3    H160235   5.390   4.684  15.072  1.0064  1.1371 -1.7448
12940TIP3    H260236   5.405   4.834  15.093 -0.0708  0.9312  0.8357
12941TIP3   OH260237   2.612   1.832  15.232  0.2556 -0.1691  0.2904
12941TIP3    H160238   2.686   1.880  15.269  0.1368 -0.8834  1.5209
12941TIP3    H260239   2.620   1.744  15.268 -1.3534 -0.1927  0.6890
12942TIP3   OH260240   1.469   1.983  14.928 -0.4432 -0.1580 -0.1046
12942TIP3    H160241   1.487   2.077  14.921 -2.0840  0.2821  0.8748
12942TIP3    H260242   1.498   1.960  15.017 -0.6749 -0.4016 -0.0889
12943TIP3   OH260243   1.204   0.003  11.309  0.8574 -0.8989 -0.3190
12943TIP3    H160244   1.266   0.059  11.356  2.1770 -1.8560 -0.8602
12943TIP3    H260245   1.147   0.064  11.262  0.9895  0.0189  0.6801
12944TIP3   OH260246   0.958   1.982   2.720 -0.0168 -0.1571  0.0865
12944TIP3    H160247   1.041   1.937   2.705  1.7997  3.0186 -0.4521
12944TIP3    H260248   0.963   2.012   2.811 -0.6067 -0.0127  0.0762
12945TIP3   OH260249   5.675   1.217  12.952 -0.2795 -0.0814 -0.7713
12945TIP3    H160250   5.729   1.151  12.909 -0.0408 -1.8975  2.0263
12945TIP3    H260251   5.631   1.170  13.023 -0.7825  2.5793  0.8334
12946TIP3   OH260252   5.821   1.796   6.758 -0.3029 -0.3597  0.0163
12946TIP3    H160253   5.889   1.829   6.699 -0.9295  0.4362 -0.2742
12946TIP3    H260254   5.856   1.712   6.790  1.1557  0.3760  0.4555
12947TIP3   OH260255   6.498   3.840   3.611 -0.2769 -0.2816  0.3305
12947TIP3    H160256   6.515   3.844   3.705  0.4942 -1.1833  0.2504
12947TIP3    H260257   6.566   3.780   3.578  1.5355  2.4810 -1.3004
12948TIP3   OH260258   3.594   2.196   0.196  0.3949 -0.5881  0.1013
12948TIP3    H160259   3.616   2.201   0.289 -1.0481  1.8919  0.4024
12948TIP3    H260260   3.541   2.274   0.180 -0.5215 -1.6449 -2.5193
12949TIP3   OH260261   1.492   5.293  11.176 -0.0965  0.0069 -0.5647
12949TIP3    H160262   1.532   5.344  11.105 -2.2644  1.4505 -0.8178
12949TIP3    H260263   1.427   5.238  11.133  0.3274 -0.9986  0.0404
12950TIP3   OH260264   5.373   4.884  12.082  0.2086  0.9228  0.1575
12950TIP3    H160265   5.446   4.943  12.100 -0.6878  1.8133  1.0273
12950TIP3    H260266   5.413   4.797  12.077  1.3823  1.4423  0.1383
12951TIP3   OH260267   6.120   3.553  13.566  0.2043  0.0219  0.1506
12951TIP3    H160268   6.099   3.494  13.639 -0.9677 -0.9777 -0.9477
12951TIP3    H260269   6.105   3.641  13.602 -0.9969 -0.4739  0.9415
12952TIP3   OH260270   0.427   2.787  16.596 -0.0570 -0.0141  0.0624
12952TIP3    H160271   0.357   2.752  16.541 -0.7480  2.7248 -1.0172
12952TIP3    H260272   0.395   2.874  16.622  2.8959  1.3663 -0.4750
12953TIP3   OH260273   5.875   0.076   4.883  0.0657 -0.3856  0.2992
12953TIP3    H160274   5.859   0.101   4.974  1.5613 -1.9497  1.0410
12953TIP3    H260275   5.801   0.019   4.860 -1.7453  2.0688 -0.4267
12954TIP3   OH260276   3.195   6.767   6.266 -0.0034 -0.4960  0.0852
12954TIP3    H160277   3.287   6.744   6.254 -0.6996 -2.7209 -1.6401
12954TIP3    H260278   3.197   6.850   6.313  2.8506 -1.0804  1.1968
12955TIP3   OH260279   1.130   1.054  13.094 -0.2617  0.2190  0.3448
12955TIP3    H160280   1.036   1.068  13.108 -0.4540 -1.3186  0.8035
12955TIP3    H260281   1.139   1.040  13.000 -0.0981  2.7764 -0.0974
12956TIP3   OH260282   2.710   6.208  12.651 -0.0440  0.1290 -0.0642
12956TIP3    H160283   2.659   6.174  12.725 -1.5373  1.0235 -0.6345
12956TIP3    H260284   2.759   6.132  12.619 -0.8727 -0.7294  0.6452
12957TIP3   OH260285   5.359   0.135  12.257  0.8137  0.5527  0.1720
12957TIP3    H160286   5.400   0.217  12.281  0.6304 -0.1277  3.1083
12957TIP3    H260287   5.318   0.103  12.337 -1.2257 -1.2257 -1.4478
12958TIP3   OH260288   3.696   2.614   3.530 -0.5412  0.6546  0.6483
12958TIP3    H160289   3.760   2.683   3.546 -0.1921  0.4326  0.2181
12958TIP3    H260290   3.732   2.537   3.574 -1.3530  0.9478  1.8791
12959TIP3   OH260291   1.775   1.880  14.924 -0.4901 -0.9029 -0.1544
12959TIP3    H160292   1.738   1.862  15.011  1.4518  0.2037  0.9583
12959TIP3    H260293   1.701   1.915  14.874 -1.1035  1.0402  1.9176
12960TIP3   OH260294   2.827   2.479  14.557  0.1059  0.3025  0.0918
12960TIP3    H160295   2.754   2.433  14.515  0.3587  0.3594 -0.4149
12960TIP3    H260296   2.801   2.571  14.556  0.3760  0.3759 -0.4907
12961TIP3   OH260297   4.424   4.873  12.241 -0.4555 -0.3849  0.4983
12961TIP3    H160298   4.384   4.960  12.234  0.5520  0.1403  1.0351
12961TIP3    H260299   4.495   4.884  12.304 -0.2674 -1.5898  0.5229
12962TIP3   OH260300   1.024   1.978   3.921  0.1883 -0.1498 -0.0041
12962TIP3    H160301   0.947   1.963   3.976 -0.2623 -0.0475 -0.6001
12962TIP3    H260302   1.084   1.907   3.944 -0.1694 -0.3546  0.3120
12963TIP3   OH260303   0.671   0.461   3.631 -0.5921  0.1369  0.1792
12963TIP3    H160304   0.629   0.496   3.552 -1.8782  1.4144  1.3738
12963TIP3    H260305   0.623   0.381   3.650 -0.2047 -0.2349 -0.3883
12964TIP3   OH260306   4.357   5.776   3.523 -0.2257 -0.4167 -0.9141
12964TIP3    H160307   4.271   5.736   3.534 -1.2342  2.1349  1.4998
12964TIP3    H260308   4.387   5.795   3.612  1.9914  0.4893 -1.7693
12965TIP3   OH260309   4.448   0.628   0.304  0.2396 -0.0261 -0.1501
12965TIP3    H160310   4.492   0.712   0.291  2.3648 -0.7571  1.6302
12965TIP3    H260311   4.462   0.581   0.222  0.1931  0.8611 -0.6749
12966TIP3   OH260312   4.828   5.914  14.813  0.2052  0.4239  0.6734
12966TIP3    H160313   4.887   5.966  14.869 -0.9959  0.8977  1.5438
12966TIP3    H260314   4.838   5.952  14.726  1.6742  0.0565  0.6494
12967TIP3   OH260315   0.719   2.329  14.020 -0.8081 -0.2412 -0.2137
12967TIP3    H160316   0.654   2.399  14.020  1.4962  2.1452  2.2215
12967TIP3    H260317   0.796   2.367  13.977  0.0595 -1.8313 -0.1529
12968TIP3   OH260318   1.840   3.570  10.884  0.1789 -0.3079  0.5567
12968TIP3    H160319   1.885   3.491  10.913 -0.6361 -0.9296  0.1541
12968TIP3    H260320   1.763   3.576  10.941 -0.6483 -0.7299 -0.4871
12969TIP3   OH260321   4.920   5.336   3.095  0.3458 -0.3816 -0.3392
12969TIP3    H160322   4.968   5.340   3.178 -0.5527  0.6203  0.1492
12969TIP3    H260323   4.924   5.244   3.070 -0.9342 -1.0625  1.7599
12970TIP3   OH260324   3.869   1.785   5.255 -0.6146 -0.8490  0.9781
12970TIP3    H160325   3.787   1.821   5.289 -0.1477 -0.5441  1.8014
12970TIP3    H260326   3.933   1.801   5.324  0.1329 -1.1308  0.3649
12971TIP3   OH260327   1.776   2.288   6.041  0.3820  0.0268 -0.6790
12971TIP3    H160328   1.703   2.236   6.007  0.4298 -0.4772 -0.0207
12971TIP3    H260329   1.734   2.358   6.092  0.3504  0.0247 -0.7018
12972TIP3   OH260330   3.803   5.148  13.882  0.3648 -0.6086 -0.3545
12972TIP3    H160331   3.897   5.138  13.874  0.5780  1.0138 -0.2915
12972TIP3    H260332   3.792   5.222  13.942 -0.9603 -1.2073  0.1906
12973TIP3   OH260333   2.575   4.497   2.092 -0.2516 -0.2164  0.8028
12973TIP3    H160334   2.550   4.588   2.104 -1.6914 -0.3968 -0.6311
12973TIP3    H260335   2.671   4.498   2.093 -0.0920  1.8635 -2.5891
12974TIP3   OH260336   0.214   6.257   5.039  0.1689  0.1555  0.5209
12974TIP3    H160337   0.133   6.294   5.074  0.4605  1.1944  0.1340
12974TIP3    H260338   0.262   6.332   5.005  1.1913 -0.4820  0.5196
12975TIP3   OH260339   6.810   5.764  14.090  0.5106 -0.2741  0.3725
12975TIP3    H160340   6.878   5.765  14.158  0.6617 -0.0220  0.2176
12975TIP3    H260341   6.789   5.856  14.077  0.2972 -0.3399  0.2602
12976TIP3   OH260342   1.890   6.793  14.516  0.2871  0.3356 -0.4943
12976TIP3    H160343   1.918   6.742  14.592  1.4350 -1.1915 -1.8974
12976TIP3    H260344   1.801   6.762  14.499 -0.3539  1.3827  0.7662
12977TIP3   OH260345   4.578   2.605   5.505  0.3295 -0.2882 -0.1575
12977TIP3    H160346   4.637   2.648   5.442 -0.8467  0.2937 -0.8949
12977TIP3    H260347   4.589   2.512   5.487  2.1206 -0.2927  0.7361
12978TIP3   OH260348   0.355   1.583  11.779 -0.5731 -0.3305  0.2021
12978TIP3    H160349   0.398   1.500  11.798 -0.2374  0.1272  1.5544
12978TIP3    H260350   0.329   1.576  11.687  0.1523 -1.6063  0.0694
12979TIP3   OH260351   1.115   5.501  15.228 -0.0752  0.5712 -0.0536
12979TIP3    H160352   1.168   5.554  15.170  0.6883  0.5297  0.5887
12979TIP3    H260353   1.050   5.562  15.263 -0.3241  0.6712 -0.6757
12980TIP3   OH260354   2.514   3.098   1.452  0.0077 -0.8519 -0.0201
12980TIP3    H160355   2.426   3.134   1.441  0.9399  1.1388 -1.5436
12980TIP3    H260356   2.554   3.155   1.518  0.4472 -1.1852 -0.0001
12981TIP3   OH260357   1.769   2.432  16.402 -0.2385 -0.1686  0.5189
12981TIP3    H160358   1.781   2.401  16.312 -0.8957  1.0197 -0.0008
12981TIP3    H260359   1.727   2.517  16.392 -0.2227  0.0225  1.9606
12982TIP3   OH260360   0.739   5.197  11.276 -0.5282  0.4405 -0.0352
12982TIP3    H160361   0.747   5.195  11.181  1.1671 -1.0221  0.0794
12982TIP3    H260362   0.694   5.278  11.295 -1.3244  0.5295 -2.1145
12983TIP3   OH260363   1.200   6.746   6.613  0.4761  0.2836 -0.0818
12983TIP3    H160364   1.108   6.729   6.630  0.3763 -0.5454 -1.3130
12983TIP3    H260365   1.237   6.769   6.698 -0.9918  1.2709  0.3110
12984TIP3   OH260366   1.329   4.260   3.992 -0.0942  0.4620  0.1733
12984TIP3    H160367   1.264   4.273   3.923 -0.4089 -0.9065  0.1761
12984TIP3    H260368   1.293   4.307   4.068 -0.6189  0.5057 -0.0943
12985TIP3   OH260369   5.831   6.462  10.823 -0.2002  0.1363 -0.3570
12985TIP3    H160370   5.868   6.543  10.856 -0.3633 -1.2485  3.7879
12985TIP3    H260371   5.901   6.422  10.772  0.2119  2.2965 -1.6207
12986TIP3   OH260372   5.323   0.099  12.532  0.1178 -0.2099 -0.4751
12986TIP3    H160373   5.293   0.155  12.604 -2.1709 -0.7437 -0.9274
12986TIP3    H260374   5.395   0.048  12.569 -1.9556 -1.5934  2.0216
12987TIP3   OH260375   0.680   6.706  14.289 -0.0082  0.4346  0.1862
12987TIP3    H160376   0.747   6.693  14.222 -1.0949 -1.4583 -0.6130
12987TIP3    H260377   0.729   6.711  14.371  1.2752  1.7428 -0.6105
12988TIP3   OH260378   5.995   2.338   5.246  0.2712  0.6309 -0.2068
12988TIP3    H160379   5.953   2.253   5.235  0.7696  0.2306  0.9040
12988TIP3    H260380   6.065   2.338   5.181  0.4675  0.0649  0.0004
12989TIP3   OH260381   5.732   4.650   6.346 -0.3953 -0.0098  0.4402
12989TIP3    H160382   5.721   4.574   6.290  3.0598  0.3609 -0.9542
12989TIP3    H260383   5.758   4.721   6.287 -0.8731  1.5969  2.0342
12990TIP3   OH260384   0.559   4.398  13.652  0.1380 -0.0173  0.0709
12990TIP3    H160385   0.649   4.428  13.667  0.5931 -1.0478 -0.4867
12990TIP3    H260386   0.547   4.405  13.557 -0.3359  0.0080  0.1308
12991TIP3   OH260387   2.186   3.495  15.928  0.4925 -0.4702  0.5830
12991TIP3    H160388   2.187   3.587  15.903 -1.3771 -0.0044  1.9733
12991TIP3    H260389   2.171   3.496  16.022 -0.9077 -2.1915  0.4282
12992TIP3   OH260390   0.148   1.375  15.793  0.3736  0.4539  0.0576
12992TIP3    H160391   0.189   1.327  15.865  0.4753  0.8592  0.2753
12992TIP3    H260392   0.111   1.453  15.835  2.9063  2.2022 -0.7038
12993TIP3   OH260393   5.201   2.026   1.759 -0.1362 -0.7392  0.2376
12993TIP3    H160394   5.140   2.097   1.741 -0.1914 -0.9244 -0.3439
12993TIP3    H260395   5.195   2.011   1.853 -0.1561 -0.0074  0.3581
12994TIP3   OH260396   4.105   0.021  14.966 -0.0196 -0.1223  0.4241
12994TIP3    H160397   4.139   0.109  14.951 -1.4446  0.6731  1.6264
12994TIP3    H260398   4.155  -0.035  14.905 -1.7078  2.0332 -3.2717
12995TIP3   OH260399   5.655   5.408  14.155 -0.0982 -0.1886  0.3915
12995TIP3    H160400   5.699   5.424  14.072 -0.1719  0.2642  0.4344
12995TIP3    H260401   5.562   5.415  14.136 -0.1721  4.3626  1.2563
12996TIP3   OH260402   5.574   3.021  11.193 -0.3052  0.1628 -0.2051
12996TIP3    H160403   5.626   2.943  11.213 -0.9588  0.1693  1.6625
12996TIP3    H260404   5.637   3.093  11.195 -0.3412  0.2039  2.2875
12997TIP3   OH260405   4.572   0.491   2.884  0.2885 -0.9146 -0.2622
12997TIP3    H160406   4.605   0.496   2.795  0.3139  0.8409 -0.1783
12997TIP3    H260407   4.519   0.411   2.885  0.5476 -1.1370 -1.7335
12998TIP3   OH260408   5.711   1.662   6.218  0.0120 -0.7978 -0.0230
12998TIP3    H160409   5.734   1.716   6.294 -0.0405 -1.0377  0.1650
12998TIP3    H260410   5.709   1.724   6.145  0.1378 -0.5771  0.1566
12999TIP3   OH260411   4.498   5.867   1.613  0.3746 -0.2428  0.5356
12999TIP3    H160412   4.561   5.907   1.673 -0.2038  1.5007  0.0222
12999TIP3    H260413   4.436   5.821   1.670 -0.0310  1.1861  1.2827
13000TIP3   OH260414   1.912   5.026  15.739 -0.5220 -0.2827 -0.3022
13000TIP3    H160415   1.820   5.046  15.720 -0.2916  0.8348 -0.3234
13000TIP3    H260416   1.956   5.036  15.654 -0.4304 -1.1450 -0.3589
13001TIP3   OH260417   3.144   4.076  12.782  0.0801 -0.1132  0.8913
13001TIP3    H160418   3.087   4.107  12.854 -1.1928 -1.4718  0.5179
13001TIP3    H260419   3.232   4.100  12.810 -0.6270  1.8348  1.6319
13002TIP3   OH260420   0.906   2.401  14.668 -0.2499  0.0517  0.2741
13002TIP3    H160421   0.816   2.432  14.676 -0.2198  0.1487  0.2318
13002TIP3    H260422   0.960   2.475  14.696 -0.1142  0.5890 -1.2830
13003TIP3   OH260423   1.846   0.139   6.358 -0.2346 -0.5076  0.5130
13003TIP3    H160424   1.761   0.097   6.346  0.6791 -2.5184  0.7770
13003TIP3    H260425   1.907   0.067   6.375  1.8998  0.6799 -1.5082
13004TIP3   OH260426   2.205   3.490  11.935  0.3215  0.8981 -0.3140
13004TIP3    H160427   2.155   3.411  11.957 -1.0104  1.7330 -0.1981
13004TIP3    H260428   2.221   3.531  12.020  0.2272  1.2048 -0.4463
13005TIP3   OH260429   0.244   4.229   0.933 -0.4082 -0.1693 -0.3378
13005TIP3    H160430   0.169   4.180   0.966  0.1434 -0.3974  0.6142
13005TIP3    H260431   0.264   4.190   0.848  0.9510 -2.6706  1.0069
13006TIP3   OH260432   1.068   0.785  10.383 -0.2810 -0.0825  0.4462
13006TIP3    H160433   1.153   0.829  10.384  0.0831 -0.6315 -1.8703
13006TIP3    H260434   1.087   0.697  10.352 -1.6960 -0.2416 -0.0335
13007TIP3   OH260435   6.639   5.912   2.586 -0.2011  0.0860 -0.1014
13007TIP3    H160436   6.637   5.986   2.647 -1.8484 -0.1513  0.1839
13007TIP3    H260437   6.616   5.836   2.640  1.7146 -0.7175 -0.3348
13008TIP3   OH260438   2.630   0.118   3.464  0.2244  0.2568 -0.2509
13008TIP3    H160439   2.688   0.148   3.534  0.7000 -1.5912  0.2174
13008TIP3    H260440   2.552   0.085   3.510 -0.2480  0.6900 -0.7255
13009TIP3   OH260441   3.169   3.698   0.856 -0.9839 -0.0350 -0.0184
13009TIP3    H160442   3.194   3.617   0.810  1.9730  0.5125  0.4347
13009TIP3    H260443   3.130   3.753   0.788  2.2488  0.3186 -1.8232
13010TIP3   OH260444   2.006   2.017   5.216  0.0333 -0.4372 -0.3186
13010TIP3    H160445   2.083   2.070   5.199  0.2315 -0.5297  0.2893
13010TIP3    H260446   2.037   1.927   5.209  0.0113 -0.4747  0.0563
13011TIP3   OH260447   1.355   4.346  11.551  0.2434 -0.3876  0.0868
13011TIP3    H160448   1.399   4.316  11.630  1.9874  0.4358 -0.5232
13011TIP3    H260449   1.391   4.292  11.481  2.7974  2.3502 -0.9013
13012TIP3   OH260450   1.691   0.922  13.678  0.1396  0.2954 -0.2420
13012TIP3    H160451   1.723   1.007  13.706  1.2534 -0.0137 -0.5352
13012TIP3    H260452   1.596   0.932  13.673  0.0330  0.8899  1.8807
13013TIP3   OH260453   5.036   0.312   2.075 -0.4770  0.2673  0.7563
13013TIP3    H160454   4.968   0.259   2.033 -0.8025  1.3949 -0.2031
13013TIP3    H260455   5.116   0.290   2.027 -1.0089  2.2511 -1.2413
13014TIP3   OH260456   6.564   3.954  14.949  0.0834 -0.1807 -0.2015
13014TIP3    H160457   6.593   4.043  14.969  1.8185 -0.7263 -0.1587
13014TIP3    H260458   6.509   3.964  14.872 -1.5632  1.1798  1.0699
13015TIP3   OH260459   1.028   1.674  11.045  0.3253 -0.0956  0.1259
13015TIP3    H160460   1.007   1.701  10.956  0.6941 -1.7852 -0.5083
13015TIP3    H260461   0.976   1.595  11.060 -1.3663  1.2886  2.2116
13016TIP3   OH260462   6.542   2.522   3.862  0.5500  0.8633 -0.3928
13016TIP3    H160463   6.545   2.566   3.947 -0.4838  0.2490 -0.0214
13016TIP3    H260464   6.505   2.587   3.802  0.5620  1.0380 -0.2107
13017TIP3   OH260465   0.468   2.720   3.449  0.0205 -0.4792  0.4067
13017TIP3    H160466   0.532   2.748   3.384 -0.3201  1.0471  0.6695
13017TIP3    H260467   0.514   2.656   3.503  1.0260 -0.0786  0.0380
13018TIP3   OH260468   4.595   3.916   1.327 -0.0014 -0.3727 -0.0734
13018TIP3    H160469   4.525   3.859   1.358 -0.1013 -1.6930 -2.4856
13018TIP3    H260470   4.551   3.985   1.278  0.3203 -0.7882 -0.9677
13019TIP3   OH260471   4.786   0.683   2.082  0.1719  0.4564 -0.6775
13019TIP3    H160472   4.827   0.768   2.096  1.2070  0.0325 -1.0505
13019TIP3    H260473   4.713   0.681   2.144  0.6969  1.2430 -0.0126
13020TIP3   OH260474   1.501   3.104   3.828  0.0819 -0.2021 -0.4198
13020TIP3    H160475   1.491   3.051   3.908  0.2358  0.2949 -0.0696
13020TIP3    H260476   1.419   3.092   3.781 -0.7862  1.0215  0.7268
13021TIP3   OH260477   0.749   1.972   0.607 -0.0345 -0.2471  0.4760
13021TIP3    H160478   0.736   2.032   0.534 -0.0591 -1.2890 -0.3983
13021TIP3    H260479   0.687   1.901   0.591  1.7599 -1.7936  0.0895
13022TIP3   OH260480   0.527   3.812   4.304 -0.2842  0.0237  0.0233
13022TIP3    H160481   0.540   3.723   4.338 -1.3836  0.2378  1.0638
13022TIP3    H260482   0.594   3.864   4.349 -2.2441  0.4679  2.6760
13023TIP3   OH260483   4.391   0.539   3.643 -0.1511 -0.1877 -0.0177
13023TIP3    H160484   4.333   0.466   3.619 -0.6704 -0.0037  0.6588
13023TIP3    H260485   4.457   0.499   3.699  0.1393 -0.3185 -0.4475
13024TIP3   OH260486   5.706   4.299   0.066  0.1031 -0.6125 -0.0877
13024TIP3    H160487   5.730   4.210   0.093 -1.7938 -0.8989  0.8399
13024TIP3    H260488   5.691   4.292  -0.028  1.8708 -0.7895 -0.3939
13025TIP3   OH260489   0.589   3.543   2.176  0.0762  0.0137 -0.1438
13025TIP3    H160490   0.631   3.497   2.249 -2.5805  1.1811  2.2937
13025TIP3    H260491   0.623   3.632   2.183  1.7647 -0.3985 -2.0623
13026TIP3   OH260492   3.321   0.162  11.387 -0.3806 -0.0728  0.6130
13026TIP3    H160493   3.367   0.082  11.416 -1.9332 -1.5124 -0.6902
13026TIP3    H260494   3.242   0.165  11.442 -1.8220 -1.1506 -1.2788
13027TIP3   OH260495   2.334   2.127   5.994  0.2276  0.3393  0.7928
13027TIP3    H160496   2.365   2.037   5.996 -1.1409 -0.1836 -0.2282
13027TIP3    H260497   2.413   2.179   5.977  0.8706 -0.7586  0.3120
13028TIP3   OH260498   4.970   2.122  11.654 -0.1933  0.4400 -0.0149
13028TIP3    H160499   4.918   2.137  11.575  0.8640 -0.2372 -0.8655
13028TIP3    H260500   4.983   2.027  11.656  0.4473  0.5362  0.5449
13029TIP3   OH260501   6.524   6.710   0.384  0.8470  0.1939 -0.4662
13029TIP3    H160502   6.441   6.731   0.341  1.6618  1.7481 -1.3354
13029TIP3    H260503   6.556   6.794   0.417  1.8603 -0.4598  0.2731
13030TIP3   OH260504   4.088   6.277  16.003 -0.3051  0.3394 -0.3827
13030TIP3    H160505   4.148   6.349  16.024  1.3406 -1.2043  0.5154
13030TIP3    H260506   4.136   6.221  15.943 -1.7227  0.1787 -1.4273
13031TIP3   OH260507   3.544   1.029   1.372 -0.5831  0.0650  0.2165
13031TIP3    H160508   3.613   1.093   1.354 -2.6772  2.0769 -1.1692
13031TIP3    H260509   3.496   1.065   1.446 -2.6372  0.9446 -1.4477
13032TIP3   OH260510   3.772   0.867  16.979 -0.0957 -0.1602 -0.2743
13032TIP3    H160511   3.858   0.900  16.955 -1.1551  2.3007 -0.9519
13032TIP3    H260512   3.735   0.834  16.897 -0.1551 -0.4303 -0.1436
13033TIP3   OH260513   0.532   4.066   3.257 -0.1102  0.3002  0.1302
13033TIP3    H160514   0.530   4.149   3.305  1.6411 -0.3401  1.4174
13033TIP3    H260515   0.536   3.999   3.325 -4.4771 -1.1773 -0.7190
13034TIP3   OH260516   5.009   1.078   5.669  0.0747 -0.4022 -0.9677
13034TIP3    H160517   5.064   1.155   5.653 -0.6946  0.3110 -0.2784
13034TIP3    H260518   5.007   1.069   5.764 -0.2907 -0.9463 -1.0213
13035TIP3   OH260519   5.166   6.618  12.025 -0.0460  0.2288 -0.3281
13035TIP3    H160520   5.233   6.670  11.981 -0.3260  0.0885 -0.9251
13035TIP3    H260521   5.203   6.531  12.032  0.4125  0.4817  0.6475
13036TIP3   OH260522   5.202   4.999   3.791 -0.3872 -0.3773  0.2600
13036TIP3    H160523   5.149   4.974   3.715 -1.1456 -1.6982  1.1930
13036TIP3    H260524   5.272   4.934   3.795 -0.9503 -0.9407  1.2829
13037TIP3   OH260525   6.198   2.314   4.086 -0.0114  0.1929 -0.3161
13037TIP3    H160526   6.206   2.322   4.181  0.6808  0.6603 -0.4059
13037TIP3    H260527   6.286   2.291   4.056 -0.1396  0.4159 -0.8807
13038TIP3   OH260528   4.802   2.319   0.743  0.2076 -0.0480  0.3641
13038TIP3    H160529   4.728   2.376   0.724  1.0305  1.7406  2.1499
13038TIP3    H260530   4.838   2.353   0.825  2.7888 -1.0469 -0.2492
13039TIP3   OH260531   3.570   0.826  12.500 -0.1820 -0.5971 -0.1541
13039TIP3    H160532   3.534   0.795  12.417 -0.6821  0.1754 -0.2348
13039TIP3    H260533   3.493   0.836  12.557  0.1544 -1.1482  0.4183
13040TIP3   OH260534   0.184   2.187   5.202 -0.1477  0.2707  0.0246
13040TIP3    H160535   0.237   2.185   5.123 -0.7243  2.1684 -0.4844
13040TIP3    H260536   0.113   2.126   5.186 -1.1514  1.7894 -1.6571
13041TIP3   OH260537   2.625   1.308   3.046 -0.4905  0.5227 -0.4562
13041TIP3    H160538   2.678   1.287   3.123 -0.9234  2.3432  0.3800
13041TIP3    H260539   2.683   1.290   2.972  0.1949 -0.5349  0.3040
13042TIP3   OH260540   3.084   1.554   2.843 -0.3768 -0.4147 -0.1945
13042TIP3    H160541   3.012   1.567   2.906  0.1116  2.6119 -0.1055
13042TIP3    H260542   3.161   1.541   2.898  0.1615  2.8478  0.0477
13043TIP3   OH260543   2.143   4.650   0.733 -0.2228 -0.3504  0.0956
13043TIP3    H160544   2.185   4.736   0.728 -1.8055  0.4814  0.5373
13043TIP3    H260545   2.207   4.595   0.779  0.1017  1.0571  1.4132
13044TIP3   OH260546   5.809   5.266  10.647  0.1778  0.1041  0.0229
13044TIP3    H160547   5.866   5.264  10.571  1.9185 -0.3675  1.2611
13044TIP3    H260548   5.720   5.263  10.611  0.9138  0.6603 -1.9726
13045TIP3   OH260549   6.666   0.381   3.779  0.5057  0.0106  0.1723
13045TIP3    H160550   6.677   0.468   3.742 -0.3262  1.0017  2.0927
13045TIP3    H260551   6.616   0.333   3.713  1.4578  0.7795 -1.1549
13046TIP3   OH260552   2.038   3.841  16.339 -0.3381  0.5704  0.0231
13046TIP3    H160553   1.970   3.900  16.371  0.7798  0.9551  1.8350
13046TIP3    H260554   2.116   3.896  16.331  0.2480 -0.2575 -0.1199
13047TIP3   OH260555   6.270   2.110  16.561 -0.2764 -0.2104 -0.0272
13047TIP3    H160556   6.175   2.101  16.550 -0.4365 -0.1868  1.2113
13047TIP3    H260557   6.280   2.151  16.647  0.9082 -1.5448  0.4928
13048TIP3   OH260558   2.322   1.073   2.416 -0.2067 -0.1453  0.5975
13048TIP3    H160559   2.415   1.088   2.401 -0.6921  3.3016  0.2119
13048TIP3    H260560   2.304   0.989   2.374  2.4270 -0.2050 -0.6051
13049TIP3   OH260561   6.055   1.019  14.372  0.4260 -0.0685  0.2710
13049TIP3    H160562   5.967   1.031  14.336  0.0045 -0.5267  1.0936
13049TIP3    H260563   6.114   1.049  14.303 -0.3609 -0.2838 -0.5166
13050TIP3   OH260564   3.077   3.164   4.812 -0.4365  0.3746  0.5743
13050TIP3    H160565   3.162   3.188   4.851 -0.2503 -1.9530  1.7749
13050TIP3    H260566   3.052   3.083   4.857 -2.5310  0.1100 -0.9221
13051TIP3   OH260567   2.314   2.719  11.395 -0.1265 -0.1507 -0.3363
13051TIP3    H160568   2.228   2.677  11.398 -1.1281  1.3418 -3.8684
13051TIP3    H260569   2.301   2.802  11.443 -1.1171  0.6744 -1.9521
13052TIP3   OH260570   1.812   0.039  13.782  0.2464  0.0687  0.2936
13052TIP3    H160571   1.887   0.081  13.823 -0.3030  1.4654 -0.0966
13052TIP3    H260572   1.841   0.018  13.693  0.2150  0.4933  0.1841
13053TIP3   OH260573   0.196   2.465  14.660  0.3485 -0.5430  0.5072
13053TIP3    H160574   0.161   2.517  14.587 -1.2042 -3.0684 -0.6895
13053TIP3    H260575   0.171   2.514  14.738  1.4295  1.8808 -0.5428
13054TIP3   OH260576   5.372   1.929  11.935  0.4371 -0.0069 -0.5938
13054TIP3    H160577   5.364   1.938  12.030  0.4607 -1.6716 -0.4192
13054TIP3    H260578   5.302   1.984  11.900  0.5700  0.8075  0.3548
13055TIP3   OH260579   4.852   6.487  14.689 -0.0039 -0.9256  0.4907
13055TIP3    H160580   4.865   6.533  14.772 -0.1738 -0.8778  0.4909
13055TIP3    H260581   4.773   6.434  14.703 -2.8574  2.5288 -1.1424
13056TIP3   OH260582   4.903   5.591  17.000  0.1085  0.3548  0.1869
13056TIP3    H160583   4.861   5.525  16.944 -2.6292  1.2857  0.9824
13056TIP3    H260584   4.996   5.570  16.996 -0.3601 -1.7575 -1.8821
13057TIP3   OH260585   3.960   1.030  14.409 -0.0826  0.2329  0.0223
13057TIP3    H160586   4.046   1.038  14.452 -0.9758  0.0256  1.9493
13057TIP3    H260587   3.927   0.945  14.439  0.0009 -0.8223 -2.6317
13058TIP3   OH260588   3.747   0.822   0.713 -0.3080  0.1375 -0.2566
13058TIP3    H160589   3.695   0.889   0.668 -0.4562  0.3127  0.1727
13058TIP3    H260590   3.698   0.804   0.794  0.8255  1.0355  0.6544
13059TIP3   OH260591   2.634   2.095  15.919  0.2547 -0.6594 -0.3044
13059TIP3    H160592   2.558   2.113  15.865  0.7521  1.4769 -0.3700
13059TIP3    H260593   2.709   2.123  15.866  0.8817 -0.2349  0.7508
13060TIP3   OH260594   6.647   0.214  12.858  0.2944 -0.0703 -0.0096
13060TIP3    H160595   6.703   0.241  12.931  0.6155 -0.0618 -0.2585
13060TIP3    H260596   6.690   0.251  12.780 -0.0013 -0.1500 -0.2109
13061TIP3   OH260597   1.483   0.760   2.429  0.7368  0.6615 -0.6383
13061TIP3    H160598   1.403   0.723   2.465  0.0531  1.1535 -1.6062
13061TIP3    H260599   1.492   0.846   2.470  0.5768  0.7510 -0.7901
13062TIP3   OH260600   5.780   1.459  15.413  0.1921 -0.3330  0.4824
13062TIP3    H160601   5.739   1.373  15.412 -0.9320  0.1706  0.6709
13062TIP3    H260602   5.711   1.517  15.446  1.3142  0.4415  1.5453
13063TIP3   OH260603   5.768   3.183   1.653 -0.3305 -0.0550  0.0413
13063TIP3    H160604   5.790   3.172   1.561 -0.3508 -1.6385  0.2034
13063TIP3    H260605   5.711   3.109   1.674 -0.2291  0.2040  1.3703
13064TIP3   OH260606   6.001   2.093   1.257  0.4072 -0.3792 -0.2411
13064TIP3    H160607   6.005   2.158   1.327  3.6335 -1.0783  0.3839
13064TIP3    H260608   5.939   2.027   1.288  1.2134 -0.3029  1.6690
13065TIP3   OH260609   5.851   4.987  16.560  0.3251 -0.1447  0.6109
13065TIP3    H160610   5.882   4.940  16.483  2.3486 -0.3667  1.5104
13065TIP3    H260611   5.859   5.080  16.537  0.3316 -0.2153  0.3354
13066TIP3   OH260612   2.861   2.494  12.089 -0.3303 -0.1055 -0.5041
13066TIP3    H160613   2.801   2.436  12.043 -0.7820  0.0823 -0.1645
13066TIP3    H260614   2.881   2.448  12.171  0.0530 -0.2025 -0.6496
13067TIP3   OH260615   2.258   6.632  14.060  0.2291 -0.9140 -0.4064
13067TIP3    H160616   2.274   6.716  14.016 -0.6800  0.6752  2.0769
13067TIP3    H260617   2.343   6.589  14.061  0.5208 -0.5177 -2.6000
13068TIP3   OH260618   5.592   2.103  12.395  0.1390 -0.0704 -0.1034
13068TIP3    H160619   5.609   2.009  12.385 -0.9538 -0.1157 -2.0077
13068TIP3    H260620   5.631   2.143  12.317  0.3909  1.0400  0.5693
13069TIP3   OH260621   1.507   3.694   2.757 -0.8303 -0.1348  0.0767
13069TIP3    H160622   1.441   3.625   2.757  0.0698 -1.0858 -2.1552
13069TIP3    H260623   1.578   3.658   2.810 -0.3726 -0.9677 -1.0616
13070TIP3   OH260624   1.005   5.312   2.409  0.4002 -0.2356  0.4207
13070TIP3    H160625   1.044   5.231   2.379 -0.1642 -0.7571  1.0574
13070TIP3    H260626   1.009   5.371   2.333  0.3201 -1.0316 -0.2125
13071TIP3   OH260627   6.518   4.922   5.418  0.7458  0.5889  0.2364
13071TIP3    H160628   6.605   4.884   5.429  0.5271 -1.6493 -3.6911
13071TIP3    H260629   6.524   4.970   5.335 -1.3236  1.9614  0.8123
13072TIP3   OH260630   0.367   2.486  10.610 -0.6694  0.1926  0.0847
13072TIP3    H160631   0.405   2.524  10.530  0.0397  0.3057  0.4647
13072TIP3    H260632   0.338   2.399  10.583 -1.1070  0.5038 -0.4735
13073TIP3   OH260633   4.804   3.677   1.429  0.4016 -0.3685  0.2471
13073TIP3    H160634   4.818   3.757   1.379 -0.4083 -0.9297 -0.9126
13073TIP3    H260635   4.876   3.675   1.492  0.8835  0.8508 -0.2405
13074TIP3   OH260636   6.635   5.218  14.238 -0.8801  0.4443 -0.0029
13074TIP3    H160637   6.622   5.144  14.298  0.3220  1.8323  2.0692
13074TIP3    H260638   6.628   5.296  14.293  1.0400  1.7688 -1.5029
13075TIP3   OH260639   0.844   0.639  13.803  0.1754 -0.2845 -0.4077
13075TIP3    H160640   0.815   0.716  13.850  1.0274 -0.1810 -0.0324
13075TIP3    H260641   0.767   0.608  13.756 -0.0869  0.9943 -0.8397
13076TIP3   OH260642   2.212   2.879  16.786 -0.6130 -0.3764  0.0414
13076TIP3    H160643   2.165   2.849  16.708  0.7445 -1.0142 -0.5600
13076TIP3    H260644   2.165   2.839  16.859 -1.2194 -0.7131 -0.5192
13077TIP3   OH260645   3.231   3.806  14.657  0.3949 -0.4940 -0.3516
13077TIP3    H160646   3.197   3.776  14.572  0.1969  0.8582 -0.7676
13077TIP3    H260647   3.161   3.860  14.693 -0.0480 -2.0766  1.2903
13078TIP3   OH260648   1.318   4.642   1.137 -0.1067  0.4337 -0.3947
13078TIP3    H160649   1.324   4.735   1.116 -0.3549  0.2701 -1.2059
13078TIP3    H260650   1.271   4.603   1.063  1.5158 -0.6166 -0.9395
13079TIP3   OH260651   1.820   6.339   6.771  0.2042 -0.1139  0.7761
13079TIP3    H160652   1.914   6.348   6.784  0.2417 -0.7091  0.9722
13079TIP3    H260653   1.795   6.414   6.717  1.0383 -0.7112 -0.4689
13080TIP3   OH260654   4.408   0.866  11.079 -0.1020 -0.0191  0.6657
13080TIP3    H160655   4.412   0.793  11.141  0.6805 -0.5442  0.0101
13080TIP3    H260656   4.363   0.935  11.127  1.1451 -0.1457  2.1097
13081TIP3   OH260657   6.214   1.529   5.003 -0.3970 -0.1075  0.2464
13081TIP3    H160658   6.258   1.587   5.066 -1.1356  0.9739 -0.2046
13081TIP3    H260659   6.159   1.472   5.057 -1.3497  1.0898  0.5966
13082TIP3   OH260660   3.976   4.095  11.369 -0.2955  0.0575  0.2195
13082TIP3    H160661   4.070   4.115  11.372 -0.4381  0.6400  1.2874
13082TIP3    H260662   3.962   4.061  11.281  0.9866 -0.3830  0.1621
13083TIP3   OH260663   6.057   0.756  12.103 -0.1486 -0.0010  0.5673
13083TIP3    H160664   6.066   0.664  12.129 -0.4668 -0.1717  0.1042
13083TIP3    H260665   6.004   0.796  12.172 -0.1917 -0.2185  0.6591
13084TIP3   OH260666   0.530   1.993  10.337 -0.2657 -0.2731 -0.3370
13084TIP3    H160667   0.569   1.938  10.405 -0.3515 -1.9530 -1.5822
13084TIP3    H260668   0.436   1.974  10.342 -0.3951  0.3411 -0.3100
13085TIP3   OH260669   2.682   2.591   4.382  0.0045 -0.5419 -0.0125
13085TIP3    H160670   2.740   2.631   4.446  1.3487 -1.6941 -0.4513
13085TIP3    H260671   2.686   2.497   4.401  2.0615 -1.1769 -2.9561
13086TIP3   OH260672   6.808   0.842  16.692 -0.1228 -0.8809 -0.5726
13086TIP3    H160673   6.732   0.790  16.667  0.7439 -2.4526 -0.0993
13086TIP3    H260674   6.865   0.839  16.615  0.3548 -1.4835 -0.2057
13087TIP3   OH260675   5.056   2.792  15.690 -0.3152 -0.4937 -0.2018
13087TIP3    H160676   5.028   2.827  15.774  0.4140 -0.0208 -0.1394
13087TIP3    H260677   5.137   2.744  15.710  1.3541  1.8075 -0.9679
13088TIP3   OH260678   4.331   4.383  15.771 -0.3927 -0.0286  0.1835
13088TIP3    H160679   4.417   4.362  15.736 -1.0522 -0.1683 -1.4370
13088TIP3    H260680   4.312   4.313  15.834  0.0150 -0.8930 -0.6332
13089TIP3   OH260681   5.940   6.458  12.291  0.3783 -0.0539  0.2046
13089TIP3    H160682   5.955   6.552  12.292 -1.4317  0.2879 -0.1428
13089TIP3    H260683   6.007   6.422  12.349  0.9295  1.4767  0.5623
13090TIP3   OH260684   0.355   0.758   4.069  0.7141 -0.0310  0.1190
13090TIP3    H160685   0.383   0.849   4.074  1.9976 -0.2518 -1.8706
13090TIP3    H260686   0.326   0.747   3.978  1.2864 -1.7813  0.1145
13091TIP3   OH260687   0.679   1.602   0.993  0.4707 -0.2029 -0.3698
13091TIP3    H160688   0.649   1.544   1.064 -0.5966  0.7061 -0.0396
13091TIP3    H260689   0.635   1.568   0.915  1.9824 -1.4702 -0.7273
13092TIP3   OH260690   4.845   6.089   6.075  0.2072  0.1373  0.2672
13092TIP3    H160691   4.919   6.033   6.052  2.0491  3.0462 -1.5752
13092TIP3    H260692   4.874   6.137   6.152 -0.0261  0.7271 -0.0009
13093TIP3   OH260693   4.358   5.634  14.892  0.5543  0.2155  0.6089
13093TIP3    H160694   4.451   5.658  14.887  0.9760 -1.3953 -0.0418
13093TIP3    H260695   4.321   5.667  14.810  0.4477  1.2347  1.0603
13094TIP3   OH260696   6.609   5.415   0.065  0.6845  0.5655  0.5413
13094TIP3    H160697   6.571   5.336   0.105  1.4341 -1.2672 -2.0672
13094TIP3    H260698   6.579   5.412  -0.026 -0.1139  3.9528  0.5803
13095TIP3   OH260699   0.580   0.622   0.043  0.3366 -0.6122 -0.1452
13095TIP3    H160700   0.631   0.564  -0.015  0.5410 -0.3022 -0.2769
13095TIP3    H260701   0.534   0.562   0.102  1.4819 -0.8701  0.5020
13096TIP3   OH260702   4.913   0.879   1.811  0.6386 -0.3833  0.1608
13096TIP3    H160703   4.958   0.896   1.894  0.7073 -0.2871  0.1040
13096TIP3    H260704   4.953   0.941   1.750  0.4847 -0.3545  0.0914
13097TIP3   OH260705   3.617   1.436   5.698 -0.0560  0.6597 -0.3035
13097TIP3    H160706   3.704   1.401   5.678  0.0425  0.5838  0.2408
13097TIP3    H260707   3.627   1.477   5.783 -0.3016  1.5637 -0.6991
13098TIP3   OH260708   5.793   2.435   4.669 -0.5322 -0.3119  0.1461
13098TIP3    H160709   5.824   2.411   4.756 -0.8494 -0.2400  0.2811
13098TIP3    H260710   5.721   2.375   4.651 -0.6107 -0.1840  0.0253
13099TIP3   OH260711   6.364   3.708  14.474 -0.4045  0.2318 -0.0921
13099TIP3    H160712   6.422   3.660  14.414  2.7445  2.3085  1.0647
13099TIP3    H260713   6.362   3.655  14.553  0.9850  0.6895  0.2808
13100TIP3   OH260714   0.085   5.812  14.910 -0.3167  0.2385 -0.2250
13100TIP3    H160715   0.010   5.860  14.875  0.1839 -0.0198 -1.7113
13100TIP3    H260716   0.125   5.770  14.833 -0.2777 -1.9286  0.8972
13101TIP3   OH260717   5.784   2.766  15.019 -0.2977  0.1828 -0.3548
13101TIP3    H160718   5.718   2.807  15.075 -1.6042 -0.8425 -1.0580
13101TIP3    H260719   5.773   2.672  15.034  0.8523 -0.0218 -0.6758
13102TIP3   OH260720   0.533   0.556   0.536 -0.2155 -0.1159 -0.3263
13102TIP3    H160721   0.559   0.464   0.541 -0.8720 -0.2433  1.7809
13102TIP3    H260722   0.475   0.569   0.612  0.5527  2.2332 -0.0526
13103TIP3   OH260723   3.715   6.817   2.792  0.0535  0.1833  0.4657
13103TIP3    H160724   3.794   6.860   2.825  1.3749 -0.5300 -1.5386
13103TIP3    H260725   3.748   6.736   2.751 -2.0099 -1.3722  1.6940
13104TIP3   OH260726   3.196   3.609   1.730  0.3954  0.3122  0.0272
13104TIP3    H160727   3.178   3.688   1.679  0.2368 -0.5155 -1.2667
13104TIP3    H260728   3.120   3.553   1.716  1.6061 -1.1172 -1.2604
13105TIP3   OH260729   5.999   6.559   2.601 -0.2285  0.3700  0.1968
13105TIP3    H160730   5.976   6.603   2.683 -0.1916  1.0655 -0.1583
13105TIP3    H260731   6.060   6.620   2.558  3.2377 -1.8086  1.6003
13106TIP3   OH260732   0.348   5.515   1.562 -0.8180 -0.3360  0.1439
13106TIP3    H160733   0.386   5.431   1.588  1.8862 -0.2054 -2.8115
13106TIP3    H260734   0.296   5.495   1.484 -1.7708  0.4859  0.5443
13107TIP3   OH260735   2.739   1.521   3.584 -0.2721 -0.0083  0.5904
13107TIP3    H160736   2.778   1.607   3.602 -0.9990  0.5158 -0.2493
13107TIP3    H260737   2.802   1.477   3.527 -0.4102  0.4206  0.0956
13108TIP3   OH260738   3.844   2.415   3.641  1.3170 -0.0408 -0.1274
13108TIP3    H160739   3.851   2.488   3.702  0.7614  0.1864 -0.3272
13108TIP3    H260740   3.829   2.338   3.697  1.1622  0.1127  0.0421
13109TIP3   OH260741   2.317   0.530  10.924  0.2875  0.3904 -0.0125
13109TIP3    H160742   2.399   0.541  10.877 -0.2985  2.1964 -0.6805
13109TIP3    H260743   2.322   0.592  10.996 -1.0915  1.6549 -0.9555
13110TIP3   OH260744   0.017   5.679   3.957  0.1681 -0.1371 -0.2237
13110TIP3    H160745   0.060   5.723   3.884  0.6985 -0.4705 -0.1145
13110TIP3    H260746   0.087   5.660   4.019 -0.3021  0.3161  0.4682
13111TIP3   OH260747   3.112   0.173   5.568 -0.1040 -0.5207 -0.0887
13111TIP3    H160748   3.049   0.169   5.496 -1.2561 -0.2740  0.8750
13111TIP3    H260749   3.058   0.176   5.647  1.1280 -1.1658  0.8173
13112TIP3   OH260750   1.024   2.057  10.403 -0.0031  0.8457 -0.8658
13112TIP3    H160751   0.932   2.076  10.385  0.1076  1.3063 -0.9562
13112TIP3    H260752   1.066   2.143  10.410  0.3627  0.6463 -0.5270
13113TIP3   OH260753   2.906   5.589  12.314  0.3755  0.3695 -0.6886
13113TIP3    H160754   2.823   5.636  12.325 -0.4114 -0.9042 -1.0066
13113TIP3    H260755   2.884   5.512  12.261  1.7625  0.0110 -0.7843
13114TIP3   OH260756   5.821   6.387  17.022  0.7474  0.6989  0.0334
13114TIP3    H160757   5.795   6.319  17.084  0.1342  1.0291  0.1373
13114TIP3    H260758   5.871   6.450  17.075 -0.1628  1.2138  0.2883
13115TIP3   OH260759   2.516   6.198  15.139  0.7153  0.7611 -0.3905
13115TIP3    H160760   2.528   6.120  15.085  0.4376  0.7155 -0.3889
13115TIP3    H260761   2.445   6.175  15.199  1.5541  0.5283  0.5349
13116TIP3   OH260762   5.694   1.404   4.412 -0.6479 -0.3227 -0.0155
13116TIP3    H160763   5.781   1.436   4.390 -0.9266  0.3689 -0.1270
13116TIP3    H260764   5.663   1.463   4.481 -1.1394 -0.3855 -0.1737
13117TIP3   OH260765   0.646   4.542   5.972 -0.8494 -0.5105 -0.0206
13117TIP3    H160766   0.692   4.624   5.952 -0.0046 -0.5143  1.7609
13117TIP3    H260767   0.553   4.564   5.960 -0.6503  0.7615  0.5173
13118TIP3   OH260768   5.975   6.819   5.667 -0.6103 -0.2590  0.4874
13118TIP3    H160769   6.070   6.812   5.660 -0.4801  2.3020 -2.0712
13118TIP3    H260770   5.960   6.890   5.730 -0.7971 -0.3218  0.5150
13119TIP3   OH260771   4.586   0.388   0.697 -0.1839  0.2008  0.6169
13119TIP3    H160772   4.502   0.432   0.681  0.5720  1.3543 -0.3513
13119TIP3    H260773   4.593   0.324   0.626  0.2126  0.8376  0.0645
13120TIP3   OH260774   6.055   4.955  17.055 -0.2543 -0.2783 -0.3098
13120TIP3    H160775   6.051   4.926  16.964 -1.4081 -0.5876 -0.1734
13120TIP3    H260776   6.050   5.050  17.050 -1.2231 -0.3303 -0.5399
13121TIP3   OH260777   0.970   6.515   1.257  0.2589 -0.6291 -0.8813
13121TIP3    H160778   0.889   6.473   1.229 -1.9519  2.2067  0.7182
13121TIP3    H260779   0.985   6.483   1.346  0.1447 -0.1713 -0.6955
13122TIP3   OH260780   1.599   1.306   5.852 -0.1734  0.3510 -0.5213
13122TIP3    H160781   1.618   1.256   5.931 -2.3520  0.5833  0.2108
13122TIP3    H260782   1.555   1.385   5.883 -1.3448  0.3126 -1.9561
13123TIP3   OH260783   6.534   5.378   6.219  0.0623  0.1621 -0.4661
13123TIP3    H160784   6.468   5.397   6.287  1.3373  0.7705  0.6412
13123TIP3    H260785   6.613   5.420   6.250  1.2706 -1.4283 -1.2497
13124TIP3   OH260786   5.905   5.070   4.429 -0.1782 -0.1044  0.3645
13124TIP3    H160787   5.876   5.146   4.480  1.3254 -0.1783  1.3841
13124TIP3    H260788   5.826   5.039   4.384 -0.6374  2.7831 -1.0732
13125TIP3   OH260789   1.816   4.939   3.031 -0.0602  0.9694 -0.0090
13125TIP3    H160790   1.723   4.944   3.050  0.2098  2.4430  1.1601
13125TIP3    H260791   1.828   4.855   2.986 -1.6362 -0.1648  1.5710
13126TIP3   OH260792   6.736   3.134  13.071  0.3058 -0.2283 -0.0755
13126TIP3    H160793   6.774   3.048  13.090 -1.0354 -0.6474  0.9276
13126TIP3    H260794   6.788   3.195  13.123  1.1895 -0.4333 -0.6941
13127TIP3   OH260795   6.120   1.484   0.788  0.3721  0.0387 -0.6050
13127TIP3    H160796   6.182   1.543   0.828  0.3499  0.7426 -1.5757
13127TIP3    H260797   6.038   1.533   0.785  0.2350 -0.2067 -0.9956
13128TIP3   OH260798   2.085   3.941  11.840  0.5420  0.2093  0.0936
13128TIP3    H160799   2.040   4.000  11.901  0.8791 -0.5173  1.0760
13128TIP3    H260800   2.031   3.862  11.840  1.9548 -0.8374  1.6026
13129TIP3   OH260801   0.634   4.533  14.107 -0.3119  0.3522 -0.3487
13129TIP3    H160802   0.635   4.438  14.122  1.2423  0.5706  1.2535
13129TIP3    H260803   0.641   4.542  14.012 -1.3205 -1.1249 -0.5993
13130TIP3   OH260804   2.253   0.458   2.113 -0.0655  0.6147  0.2326
13130TIP3    H160805   2.216   0.395   2.174  0.6409 -1.1709 -1.1113
13130TIP3    H260806   2.319   0.505   2.164  2.1575 -2.4023  0.3707
13131TIP3   OH260807   6.505   2.342   4.279  0.0986 -0.3922 -0.0132
13131TIP3    H160808   6.434   2.325   4.341  0.7536 -0.4296  0.7376
13131TIP3    H260809   6.476   2.299   4.198  0.0390 -1.9172  0.7730
13132TIP3   OH260810   4.935   4.143   4.252  0.1587  0.3756  0.4310
13132TIP3    H160811   4.840   4.145   4.265 -0.0462  1.2372 -0.9329
13132TIP3    H260812   4.972   4.166   4.337 -0.9322  2.3612  0.4120
13133TIP3   OH260813   6.037   0.017   0.422 -0.5163  0.5133 -0.2834
13133TIP3    H160814   5.984  -0.047   0.375 -0.3687  0.3170 -0.1885
13133TIP3    H260815   6.065  -0.030   0.502  1.3478 -0.0472 -1.1954
13134TIP3   OH260816   3.249   0.308   4.356 -0.7808  0.0583 -0.9047
13134TIP3    H160817   3.239   0.214   4.372 -0.7036 -0.3223 -2.8190
13134TIP3    H260818   3.234   0.348   4.441 -0.8429 -1.6824 -0.0389
13135TIP3   OH260819   4.720   1.001  15.210  0.8732 -0.2393  0.1941
13135TIP3    H160820   4.707   1.014  15.116 -1.2342 -0.2471  0.4279
13135TIP3    H260821   4.634   1.019  15.248  1.8622  0.4944  2.2116
13136TIP3   OH260822   4.171   4.656  11.877 -0.4586 -0.0319  0.4869
13136TIP3    H160823   4.105   4.643  11.946 -0.8713  0.8451  0.2772
13136TIP3    H260824   4.247   4.692  11.922 -0.8949  0.9865  0.4318
13137TIP3   OH260825   3.868   6.021   1.368 -0.2617 -0.4410  0.0447
13137TIP3    H160826   3.835   6.097   1.417  0.3595 -0.1908  0.0728
13137TIP3    H260827   3.963   6.029   1.370 -0.2122  0.0749 -1.9906
13138TIP3   OH260828   2.678   3.824  11.229  0.6268 -0.5551 -0.3137
13138TIP3    H160829   2.637   3.848  11.146  0.8112  0.1852 -0.1935
13138TIP3    H260830   2.618   3.760  11.267  1.3057 -2.0990 -1.7162
13139TIP3   OH260831   1.557   5.862  12.094 -0.0906 -0.0278 -0.0279
13139TIP3    H160832   1.495   5.788  12.094 -1.3666  0.9897  0.8750
13139TIP3    H260833   1.523   5.921  12.028 -0.1697  0.6061  0.5725
13140TIP3   OH260834   2.812   1.104   0.800  0.1678 -0.0888  0.0208
13140TIP3    H160835   2.804   1.118   0.894 -0.4670 -1.3842  0.1878
13140TIP3    H260836   2.826   1.191   0.763  0.5937  0.4139  1.3234
13141TIP3   OH260837   4.646   4.277  14.906 -0.4432  0.0528  0.6180
13141TIP3    H160838   4.654   4.228  14.988  0.9990  0.3624  0.6845
13141TIP3    H260839   4.648   4.210  14.838 -2.0288 -0.2382  0.8288
13142TIP3   OH260840   2.176   5.705   5.663 -0.2034 -0.1063 -0.5657
13142TIP3    H160841   2.103   5.738   5.716 -0.3396 -1.8344  0.4128
13142TIP3    H260842   2.157   5.612   5.652  0.6363 -0.1064 -2.3730
13143TIP3   OH260843   0.721   2.405   0.188  0.1435  0.7613 -0.3359
13143TIP3    H160844   0.727   2.333   0.251 -0.5341  0.2298 -0.8623
13143TIP3    H260845   0.633   2.441   0.202  0.1776  0.9607 -0.6403
13144TIP3   OH260846   5.720   6.794   2.539  0.0972 -0.3801  0.3162
13144TIP3    H160847   5.764   6.842   2.469 -0.4831 -2.7198 -1.8152
13144TIP3    H260848   5.736   6.702   2.518 -2.0921 -1.2262  1.9554
13145TIP3   OH260849   1.938   1.045  16.871  0.1140 -0.2795 -0.0833
13145TIP3    H160850   1.854   1.044  16.916  0.4066 -1.2232  0.4852
13145TIP3    H260851   1.991   1.108  16.921 -0.4463  0.7996 -0.8334
13146TIP3   OH260852   4.603   5.884   5.499  0.7982 -0.1300  0.0264
13146TIP3    H160853   4.515   5.883   5.463  0.5544  2.6872  0.3257
13146TIP3    H260854   4.597   5.832   5.579 -0.8764  0.7898  0.5459
13147TIP3   OH260855   3.464   5.566  12.727 -1.2580  0.0882 -0.1916
13147TIP3    H160856   3.495   5.544  12.815 -1.2102 -1.6744 -0.6151
13147TIP3    H260857   3.370   5.552  12.730 -1.0097 -2.0335 -0.9454
13148TIP3   OH260858   2.067   4.023   0.562  0.0442  0.1788  0.2162
13148TIP3    H160859   2.055   3.945   0.616 -0.5560  1.1740  1.6035
13148TIP3    H260860   2.162   4.038   0.562  0.3285 -1.3474 -1.3128
13149TIP3   OH260861   4.785   1.319   3.198  0.3887  0.1772 -0.4421
13149TIP3    H160862   4.761   1.241   3.248 -0.6483 -0.5809 -2.0338
13149TIP3    H260863   4.826   1.377   3.262 -1.6737 -0.3540  1.4702
13150TIP3   OH260864   4.410   6.772  16.606 -0.4744  0.4876  0.3797
13150TIP3    H160865   4.382   6.832  16.674 -1.2016 -0.2002  0.7003
13150TIP3    H260866   4.501   6.797  16.587  0.6414 -0.8617  3.3551
13151TIP3   OH260867   2.929   0.084   2.571 -0.0953  0.1140 -0.7491
13151TIP3    H160868   2.984   0.153   2.534 -0.8697 -0.0644 -2.3045
13151TIP3    H260869   2.846   0.091   2.523 -1.5229  0.4493  1.5738
13152TIP3   OH260870   6.209   4.333   5.031 -0.0133 -0.6739  0.3086
13152TIP3    H160871   6.214   4.254   4.977  1.0192 -0.4273  0.0141
13152TIP3    H260872   6.300   4.363   5.037 -0.4206  0.6543  0.1486
13153TIP3   OH260873   4.647   2.932  10.504 -0.2452  0.1507 -0.0471
13153TIP3    H160874   4.604   2.937  10.589 -2.6648 -0.9661 -1.1238
13153TIP3    H260875   4.697   3.014  10.497  0.2179  0.1466  2.5033
13154TIP3   OH260876   2.744   2.841  11.410 -0.5478 -0.4472  0.6118
13154TIP3    H160877   2.805   2.833  11.337  0.2914  0.0577  1.2413
13154TIP3    H260878   2.660   2.810  11.375 -0.3814  0.6213 -0.8255
13155TIP3   OH260879   4.487   4.421   1.429  0.7173 -0.0774  0.1772
13155TIP3    H160880   4.468   4.419   1.523 -1.2466  0.2600 -0.1710
13155TIP3    H260881   4.451   4.504   1.400  1.0073 -0.3360 -0.9513
13156TIP3   OH260882   4.485   4.468   0.464 -0.3712  0.0957  0.5433
13156TIP3    H160883   4.478   4.563   0.469 -0.6227  0.2964 -2.1709
13156TIP3    H260884   4.573   4.449   0.495  0.5287  1.4690 -1.0625
13157TIP3   OH260885   5.261   3.934  14.487  0.2909  0.6453  0.0917
13157TIP3    H160886   5.297   3.961  14.403 -0.5722 -0.2920 -0.5990
13157TIP3    H260887   5.178   3.981  14.495 -0.2944 -0.3043 -0.2364
13158TIP3   OH260888   6.316   6.648   1.353 -0.2173 -0.0075  0.0515
13158TIP3    H160889   6.259   6.725   1.364  0.6638  0.6077  0.4433
13158TIP3    H260890   6.269   6.577   1.396 -1.2560  0.1986 -0.7071
13159TIP3   OH260891   2.467   1.764   1.794  0.1578 -0.2679  0.0536
13159TIP3    H160892   2.544   1.773   1.849  0.8959  0.6440 -1.0825
13159TIP3    H260893   2.397   1.806   1.844  0.7256  0.1893  0.4757
13160TIP3   OH260894   4.309   6.529   4.682  0.3488  0.0779 -0.0769
13160TIP3    H160895   4.285   6.605   4.734  0.3274 -1.3084  2.0875
13160TIP3    H260896   4.242   6.525   4.613  0.6870  2.2791 -0.5819
13161TIP3   OH260897   6.774   3.264   0.006 -0.0049 -0.1834  0.7751
13161TIP3    H160898   6.835   3.213  -0.046 -0.8666  0.4089 -0.8931
13161TIP3    H260899   6.801   3.249   0.097  1.4347 -1.3903  0.1861
13162TIP3   OH260900   2.070   5.406   2.101  0.0215  0.2406  0.2342
13162TIP3    H160901   2.032   5.482   2.057  1.4479  0.4885 -0.6162
13162TIP3    H260902   2.072   5.431   2.193 -1.2799  0.4553  0.2270
13163TIP3   OH260903   2.425   1.325  14.145  0.1607 -0.1822  0.5339
13163TIP3    H160904   2.512   1.293  14.121 -0.3682 -0.5821 -0.9797
13163TIP3    H260905   2.365   1.265  14.101 -0.9217 -0.7431  2.6430
13164TIP3   OH260906   2.195   1.364  13.079 -0.7405 -0.1160 -0.2556
13164TIP3    H160907   2.265   1.408  13.128 -1.2974 -0.6390  1.0551
13164TIP3    H260908   2.120   1.367  13.138 -1.5297 -0.5003 -1.2205
13165TIP3   OH260909   4.250   5.763   1.009 -0.6244  0.8386  0.1022
13165TIP3    H160910   4.309   5.834   0.986 -1.0673  0.5640 -2.1177
13165TIP3    H260911   4.232   5.718   0.926 -0.3692 -1.8765  1.3925
13166TIP3   OH260912   1.498   6.569   0.551 -0.3285  0.3751  0.1955
13166TIP3    H160913   1.458   6.484   0.531 -0.1474  0.4274 -0.3953
13166TIP3    H260914   1.514   6.609   0.466  0.3035  0.6726  0.4468
13167TIP3   OH260915   3.120   3.677   2.664  0.1012  0.8090  0.4877
13167TIP3    H160916   3.044   3.619   2.670  0.4346  0.3515  0.3931
13167TIP3    H260917   3.188   3.631   2.713  0.5732  0.7761 -0.1771
13168TIP3   OH260918   5.125   1.612   5.973  0.0508  0.2879  0.2020
13168TIP3    H160919   5.088   1.555   6.040 -1.0751 -0.7332 -1.2029
13168TIP3    H260920   5.200   1.563   5.938 -1.1653 -0.6099 -1.2918
13169TIP3   OH260921   5.345   5.515  15.443  0.0200  0.4637  0.9036
13169TIP3    H160922   5.340   5.469  15.359  1.9400 -1.0515  1.5564
13169TIP3    H260923   5.309   5.602  15.425  0.2285  0.1208 -1.4484
13170TIP3   OH260924   1.637   6.360   0.224  0.2741  0.3792  0.2013
13170TIP3    H160925   1.554   6.390   0.263  1.4874  0.8289  2.6753
13170TIP3    H260926   1.702   6.420   0.261  1.8714 -0.8167 -0.5993
13171TIP3   OH260927   6.577   4.387  16.602  0.4739  0.1474 -0.0361
13171TIP3    H160928   6.596   4.297  16.575  2.3091  0.0282  1.4603
13171TIP3    H260929   6.482   4.389  16.616  0.5211 -1.8347  0.8362
13172TIP3   OH260930   2.465   3.327  16.190 -0.0311  0.0255 -0.0851
13172TIP3    H160931   2.438   3.410  16.228  0.0638  0.2797 -0.5708
13172TIP3    H260932   2.548   3.307  16.233 -0.4638 -0.2440  0.6486
13173TIP3   OH260933   0.001   5.482  14.415 -0.5031 -0.0107  0.0593
13173TIP3    H160934   0.071   5.503  14.477 -1.2551  1.0110  0.6095
13173TIP3    H260935  -0.052   5.562  14.412 -0.8584 -0.2754 -1.4065
13174TIP3   OH260936   6.752   1.372  13.881 -0.0104 -0.1985  0.4462
13174TIP3    H160937   6.803   1.398  13.804 -0.4676 -0.7487 -0.0481
13174TIP3    H260938   6.818   1.346  13.946  0.3726  0.2228  0.2330
13175TIP3   OH260939   1.890   5.469   2.736  0.3722 -0.0704  0.2896
13175TIP3    H160940   1.942   5.389   2.733  0.5777  0.0872 -0.4744
13175TIP3    H260941   1.799   5.439   2.744  0.4125 -0.3862 -0.4308
13176TIP3   OH260942   1.952   4.367  14.989  0.2754 -0.1855  0.2083
13176TIP3    H160943   1.921   4.328  15.071  0.5038  2.3690  1.6120
13176TIP3    H260944   2.045   4.384  15.004  0.4071 -0.0283 -0.7509
13177TIP3   OH260945   1.306   1.448  15.882  0.2963 -0.4106  0.4019
13177TIP3    H160946   1.251   1.370  15.891  0.8558 -0.7730  0.7074
13177TIP3    H260947   1.395   1.414  15.874  0.5293  0.1913  0.3670
13178TIP3   OH260948   0.110   5.182  13.129 -0.5733  0.1653  0.5877
13178TIP3    H160949   0.158   5.138  13.059 -2.2718 -1.8361  0.5976
13178TIP3    H260950   0.176   5.198  13.197  0.3290 -1.3938  0.1209
13179TIP3   OH260951   4.978   2.472  15.678  0.7625  0.5175  0.0062
13179TIP3    H160952   5.020   2.388  15.696  4.1802  2.0717  0.0090
13179TIP3    H260953   4.975   2.479  15.583  1.0613  0.6425  0.0049
13180TIP3   OH260954   5.914   5.711  10.815 -0.4626  0.4823 -0.3660
13180TIP3    H160955   5.858   5.635  10.799 -1.2720  1.1651 -0.8904
13180TIP3    H260956   6.001   5.683  10.787 -0.5695 -0.5219  0.2365
13181TIP3   OH260957   0.393   2.877   3.040  0.0394 -0.7320  0.6931
13181TIP3    H160958   0.307   2.881   3.083  0.5387 -1.0856  1.7579
13181TIP3    H260959   0.376   2.833   2.957 -0.8972 -0.3138  0.6483
13182TIP3   OH260960   6.146   4.381   2.253 -0.0301 -0.3386  0.2327
13182TIP3    H160961   6.228   4.339   2.228 -0.2108 -0.1459 -0.7100
13182TIP3    H260962   6.129   4.445   2.184 -1.0744 -0.5104  0.3195
13183TIP3   OH260963   4.153   0.528  14.961  0.0698  0.4838  0.9055
13183TIP3    H160964   4.133   0.439  14.931  1.9926  1.2048 -3.1728
13183TIP3    H260965   4.242   0.522  14.995 -0.1678  0.6791  1.5660
13184TIP3   OH260966   3.678   3.922  15.427 -0.1724 -0.0908 -0.0608
13184TIP3    H160967   3.656   3.894  15.338 -0.3917 -1.0087  0.2669
13184TIP3    H260968   3.595   3.953  15.463 -0.0583  0.4003 -0.2088
13185TIP3   OH260969   5.229   2.207   0.791 -0.2978 -0.6121  0.0102
13185TIP3    H160970   5.278   2.281   0.826 -1.7518  0.3641  0.0818
13185TIP3    H260971   5.256   2.202   0.699 -1.5858  1.3232 -0.5593
13186TIP3   OH260972   3.163   3.911   1.234 -0.2199  0.0479  0.0676
13186TIP3    H160973   3.217   3.989   1.252 -1.3429  1.0350 -0.6988
13186TIP3    H260974   3.225   3.847   1.199  0.2939  1.6281 -2.0980
13187TIP3   OH260975   6.210   6.027  12.873 -0.2052  0.2906  0.0248
13187TIP3    H160976   6.297   6.001  12.845 -0.9475 -0.8208 -1.3803
13187TIP3    H260977   6.189   6.105  12.821  0.1712  0.9506  0.8306
13188TIP3   OH260978   2.936   0.453  10.205  0.1372 -0.1991 -0.5946
13188TIP3    H160979   2.987   0.439  10.125  0.9010 -0.0713 -0.1343
13188TIP3    H260980   2.996   0.498  10.264 -1.1382  1.8471 -0.7730
13189TIP3   OH260981   1.884   3.858  13.415 -0.0583 -0.0742 -0.5932
13189TIP3    H160982   1.910   3.766  13.423  0.6542  0.1896  0.3644
13189TIP3    H260983   1.913   3.883  13.327 -0.9474 -0.9647 -1.1504
13190TIP3   OH260984   1.480   6.319  16.316  0.1450 -0.0798  0.6182
13190TIP3    H160985   1.402   6.271  16.289 -0.6710  1.1878  0.6087
13190TIP3    H260986   1.527   6.336  16.234  0.9708 -1.7013  0.7274
13191TIP3   OH260987   1.156   2.938  15.407  0.2533 -0.7057 -0.2022
13191TIP3    H160988   1.146   2.957  15.501 -0.0244 -0.3461 -0.3034
13191TIP3    H260989   1.161   3.024  15.366  1.4604 -0.8641 -0.4115
13192TIP3   OH260990   4.483   6.309  12.693 -0.2281  0.2181  0.0323
13192TIP3    H160991   4.516   6.237  12.747 -1.7750  0.0945  0.8648
13192TIP3    H260992   4.403   6.275  12.654  0.1066  0.8047 -1.2486
13193TIP3   OH260993   5.500   1.861  13.225 -0.4074 -0.7781 -0.3319
13193TIP3    H160994   5.419   1.909  13.236 -0.1990 -0.2879 -0.8756
13193TIP3    H260995   5.480   1.796  13.157 -0.3805 -0.7314 -0.3851
13194TIP3   OH260996   6.799   1.525  13.605  0.5653  0.0302 -0.4751
13194TIP3    H160997   6.714   1.503  13.567  0.9228  0.3659 -1.5059
13194TIP3    H260998   6.794   1.619  13.621  0.7611  0.0621 -0.5997
13195TIP3   OH260999   2.441   6.690  12.984 -0.3784 -0.4981 -0.4322
13195TIP3    H161000   2.347   6.676  12.998 -0.6085  1.1888 -0.0906
13195TIP3    H261001   2.481   6.667  13.068 -0.7348  0.7577  0.1028
13196TIP3   OH261002   1.637   0.448  11.736 -0.6973 -0.4134 -0.3724
13196TIP3    H161003   1.606   0.536  11.761 -1.1705 -0.0857 -1.9540
13196TIP3    H261004   1.565   0.390  11.761 -1.0975 -0.1119 -0.7790
13197TIP3   OH261005   3.366   2.806   4.169  0.1767  0.3114  0.4993
13197TIP3    H161006   3.405   2.724   4.139 -1.3651 -0.4465  0.4402
13197TIP3    H261007   3.414   2.828   4.248  0.3705 -0.8693  0.7350
13198TIP3   OH261008   1.064   1.898  16.024 -0.6046  0.1550  0.0898
13198TIP3    H161009   1.034   1.807  16.031  1.6102 -0.8074 -1.6282
13198TIP3    H261010   1.050   1.921  15.932 -2.7547  2.2409  0.8657
13199TIP3   OH261011   5.837   4.537  13.708  0.3106 -0.1398 -0.4688
13199TIP3    H161012   5.755   4.551  13.662  1.2401  0.2061 -2.0802
13199TIP3    H261013   5.862   4.623  13.740  0.1067 -0.2332 -0.0413
13200TIP3   OH261014   2.643   4.413   1.123 -0.3143  0.3162 -0.0139
13200TIP3    H161015   2.721   4.357   1.131 -0.2939  0.1069 -1.4101
13200TIP3    H261016   2.667   4.493   1.169  0.3351 -0.1337  0.4572
13201TIP3   OH261017   5.288   5.962  14.833 -0.0799  1.2069  0.0174
13201TIP3    H161018   5.274   5.882  14.884  0.0791  1.7927  1.0170
13201TIP3    H261019   5.260   5.939  14.744 -1.5147  0.5038  0.6097
13202TIP3   OH261020   3.388   0.526  12.368  0.2013  0.2948  0.9415
13202TIP3    H161021   3.465   0.494  12.414  1.4070 -0.0739 -1.1825
13202TIP3    H261022   3.419   0.603  12.320 -0.8127  0.2880  0.2428
13203TIP3   OH261023   1.520   5.158   5.674 -0.4327 -0.0065 -0.1294
13203TIP3    H161024   1.584   5.190   5.736 -0.2453 -2.0551  0.8344
13203TIP3    H261025   1.572   5.119   5.603 -0.5807 -0.7459  0.1514
13204TIP3   OH261026   6.473   1.867   6.164  0.0833  0.0475  0.2758
13204TIP3    H161027   6.558   1.890   6.201  0.4868 -1.6352  0.4966
13204TIP3    H261028   6.421   1.840   6.239  0.4104 -1.9274 -0.1493
13205TIP3   OH261029   2.013   6.267   5.175 -0.2131  0.3344  0.2732
13205TIP3    H161030   1.981   6.258   5.265 -1.3218 -1.1659 -0.2328
13205TIP3    H261031   1.968   6.344   5.141 -0.7203  0.1919  0.6199
13206TIP3   OH261032   4.693   4.026   0.898 -0.1229  0.2953  0.5251
13206TIP3    H161033   4.769   3.979   0.863 -0.3615  0.4818 -0.2616
13206TIP3    H261034   4.645   3.959   0.948 -0.2982 -0.2367 -0.3320
13207TIP3   OH261035   3.734   5.740   1.950 -0.5003  0.2002  0.1790
13207TIP3    H161036   3.703   5.721   2.038  0.1802  1.8941  0.8483
13207TIP3    H261037   3.676   5.691   1.892 -1.3455 -0.4736  1.5426
13208TIP3   OH261038   0.876   0.804   3.842  1.0585  0.2741 -0.0391
13208TIP3    H161039   0.877   0.898   3.864  0.2052  0.1854  0.4403
13208TIP3    H261040   0.804   0.769   3.894  2.2808 -0.9361  0.8950
13209TIP3   OH261041   2.490   0.559   2.225  0.1233  0.5393 -0.2966
13209TIP3    H161042   2.449   0.617   2.289 -0.8513  1.9597 -2.1136
13209TIP3    H261043   2.562   0.610   2.189  0.1905  0.0469 -0.8741
13210TIP3   OH261044   2.595   2.430   2.181 -0.3914 -0.4652  0.0736
13210TIP3    H161045   2.534   2.492   2.223  0.4304 -0.9436  2.0635
13210TIP3    H261046   2.538   2.370   2.133 -1.6471 -1.5145  2.6973
13211TIP3   OH261047   6.509   2.419  16.839 -0.3975  0.0595 -0.0413
13211TIP3    H161048   6.567   2.465  16.778  0.7680 -3.0698 -1.4600
13211TIP3    H261049   6.566   2.391  16.910 -1.1396  0.9027  0.9244
13212TIP3   OH261050   4.675   1.587  10.919  0.4756  0.7773  0.2426
13212TIP3    H161051   4.739   1.635  10.971  0.1808 -0.3642  1.7509
13212TIP3    H261052   4.727   1.526  10.867  0.6590 -1.5612  2.9251
13213TIP3   OH261053   0.465   4.464   2.535  0.4373  0.2036 -0.2704
13213TIP3    H161054   0.523   4.451   2.610  0.3887 -0.0927 -0.2825
13213TIP3    H261055   0.429   4.552   2.547  1.8209  0.8795 -0.9171
13214TIP3   OH261056   6.710   3.226  15.305 -0.2231  0.2684 -0.3509
13214TIP3    H161057   6.744   3.157  15.248  1.1012  0.2050  0.4858
13214TIP3    H261058   6.615   3.216  15.300 -0.0921 -0.5751 -1.5006
13215TIP3   OH261059   5.030   0.923   3.582 -0.2950 -0.5492  0.5547
13215TIP3    H161060   5.075   0.968   3.510 -1.2345 -0.8334 -0.2354
13215TIP3    H261061   4.981   0.993   3.626 -1.2871 -0.6714 -0.3131
13216TIP3   OH261062   6.575   5.642  14.953 -0.0809  0.1309  0.7129
13216TIP3    H161063   6.664   5.631  14.920  0.6373  4.0204  0.9293
13216TIP3    H261064   6.582   5.619  15.046  1.6000  3.2584  1.4990
13217TIP3   OH261065   5.398   5.248  11.294  0.4836 -0.6672 -0.2976
13217TIP3    H161066   5.379   5.287  11.208  1.0224 -0.1051 -0.1671
13217TIP3    H261067   5.371   5.315  11.356 -2.5436 -2.0969  0.1302
13218TIP3   OH261068   0.486   1.457  13.194  0.2167  1.0611  0.1029
13218TIP3    H161069   0.396   1.483  13.177  1.0016  2.1019 -2.9962
13218TIP3    H261070   0.479   1.392  13.265 -3.2254 -0.8030 -1.6924
13219TIP3   OH261071   3.350   1.052   5.664 -0.3411  0.2847 -0.2870
13219TIP3    H161072   3.324   0.983   5.726  3.2763 -0.1857  0.9635
13219TIP3    H261073   3.420   1.011   5.612 -3.5342  0.4492 -5.3305
13220TIP3   OH261074   4.538   5.770  11.952  0.4398 -0.0207 -0.4423
13220TIP3    H161075   4.594   5.744  11.878 -0.6954  3.4847 -2.7998
13220TIP3    H261076   4.472   5.701  11.957 -0.6039  0.4838 -4.1733
13221TIP3   OH261077   6.626   2.961  14.168 -0.4784 -0.0576  0.2364
13221TIP3    H161078   6.681   2.976  14.091 -0.5164 -0.7902  0.0659
13221TIP3    H261079   6.679   2.993  14.241 -0.2967  0.3097 -0.0511
13222TIP3   OH261080   5.916   6.297  12.067 -0.8328  0.3605 -0.6854
13222TIP3    H161081   5.840   6.328  12.018 -1.2961  0.4158  0.0559
13222TIP3    H261082   5.906   6.335  12.154  0.0503  0.3711 -0.5788
13223TIP3   OH261083   6.063   4.680  14.897 -0.2097  0.3562  0.4236
13223TIP3    H161084   6.004   4.607  14.917  0.0121 -0.3556 -1.3014
13223TIP3    H261085   6.049   4.697  14.803  1.9956  0.4472  0.0550
13224TIP3   OH261086   1.305   1.259   4.906  0.3323  0.2706 -0.3311
13224TIP3    H161087   1.287   1.337   4.854  0.1436  0.5981  0.2091
13224TIP3    H261088   1.278   1.186   4.851  0.7389  0.5724 -0.9355
13225TIP3   OH261089   2.977   6.687   3.970 -0.3532 -0.3289 -0.4965
13225TIP3    H161090   3.072   6.691   3.978 -0.3149 -0.0942 -1.0486
13225TIP3    H261091   2.947   6.773   4.001 -0.3551 -0.2531 -0.7048
13226TIP3   OH261092   1.064   1.104   5.147  0.0508  0.3880 -0.3187
13226TIP3    H161093   1.135   1.147   5.194 -0.5159  0.6435  0.3332
13226TIP3    H261094   1.067   1.013   5.177  2.1973 -0.4789 -2.8216
13227TIP3   OH261095   5.716   0.351  14.338 -0.2775 -0.0062 -0.1330
13227TIP3    H161096   5.786   0.294  14.371  0.1472  1.0097  0.7977
13227TIP3    H261097   5.756   0.438  14.334 -0.9792  0.2786 -1.3194
13228TIP3   OH261098   2.020   1.890  16.787  0.0128 -0.1668 -0.7247
13228TIP3    H161099   2.052   1.875  16.698 -0.0787 -0.9742 -0.6272
13228TIP3    H261100   2.056   1.975  16.812  1.1086 -0.5189 -1.0588
13229TIP3   OH261101   1.631   4.784   0.527  0.0176  0.0885  0.0371
13229TIP3    H161102   1.646   4.720   0.458  0.1829 -0.9563  1.0004
13229TIP3    H261103   1.707   4.774   0.586 -0.3024  0.6822  0.5683
13230TIP3   OH261104   0.448   4.025   1.421  0.1188  0.2395 -0.2039
13230TIP3    H161105   0.375   3.965   1.407  0.0248  0.4541 -0.6730
13230TIP3    H261106   0.490   3.995   1.501 -0.1057 -0.2693 -0.2773
13231TIP3   OH261107   4.887   1.685  15.008 -0.4584 -0.1781  0.1786
13231TIP3    H161108   4.895   1.761  14.950  0.3217  1.2496  2.0255
13231TIP3    H261109   4.977   1.655  15.020 -0.4263  0.3634  1.5754
13232TIP3   OH261110   5.268   2.970  11.782 -0.1450  0.1386  0.3840
13232TIP3    H161111   5.331   2.955  11.852 -0.8516  0.0770  1.0250
13232TIP3    H261112   5.202   3.028  11.822 -1.4565 -1.2498  0.3175
13233TIP3   OH261113   0.774   4.147  11.529 -0.5689  0.7749 -0.7969
13233TIP3    H161114   0.679   4.135  11.538 -0.3555 -0.5608  0.1497
13233TIP3    H261115   0.796   4.214  11.594 -0.5090 -1.1664  1.3506
13234TIP3   OH261116   3.559   1.947   0.887 -0.3565 -0.3314 -0.1222
13234TIP3    H161117   3.531   1.949   0.978 -0.6438  1.2307 -0.2126
13234TIP3    H261118   3.613   1.868   0.880  0.7165  0.1736  1.7043
13235TIP3   OH261119   1.341   6.070   0.427  0.4733 -0.0022 -0.2091
13235TIP3    H161120   1.260   6.046   0.382 -0.2740  0.0499  1.0696
13235TIP3    H261121   1.410   6.024   0.378 -0.1905  0.7468 -1.9248
13236TIP3   OH261122   0.420   5.307  14.257  0.3899  0.1674 -0.4261
13236TIP3    H161123   0.437   5.310  14.351 -0.0273 -1.2814 -0.2659
13236TIP3    H261124   0.331   5.272  14.251 -0.1759  1.6888 -1.3438
13237TIP3   OH261125   3.508   5.310  16.857  0.4515  0.5311 -0.0455
13237TIP3    H161126   3.537   5.227  16.894 -0.0086  0.4869  0.2253
13237TIP3    H261127   3.455   5.286  16.782  0.2257  0.5760  0.0991
13238TIP3   OH261128   5.234   4.381   0.214 -0.1940  0.3647  0.1144
13238TIP3    H161129   5.268   4.366   0.126 -0.4642  0.1825  0.0397
13238TIP3    H261130   5.205   4.472   0.213  0.6316  0.6453  0.2959
13239TIP3   OH261131   3.590   5.586   5.584 -0.0652  0.0904  0.2281
13239TIP3    H161132   3.613   5.677   5.569 -1.8265  0.5010 -0.2190
13239TIP3    H261133   3.563   5.582   5.676 -1.0952  0.3005 -0.0506
13240TIP3   OH261134   4.588   0.262   0.987 -0.3358  0.5014 -0.5884
13240TIP3    H161135   4.596   0.313   1.067  0.5551 -0.9133  0.2678
13240TIP3    H261136   4.581   0.327   0.917 -0.9233  1.7563  0.6097
13241TIP3   OH261137   3.669   4.420   3.454 -0.0154 -0.0740  0.1670
13241TIP3    H161138   3.659   4.507   3.416 -1.9543 -1.5541 -3.1491
13241TIP3    H261139   3.581   4.396   3.482  0.7571 -0.4729  2.3984
13242TIP3   OH261140   4.967   5.604   1.664  0.1772  0.1395  0.3839
13242TIP3    H161141   5.020   5.633   1.590  0.1415 -0.1960  0.2218
13242TIP3    H261142   5.018   5.532   1.702  0.1845  0.2950  0.6729
13243TIP3   OH261143   6.230   1.789   5.177  0.1812  0.6733  0.0447
13243TIP3    H161144   6.274   1.844   5.113  1.7731 -1.5595 -0.9350
13243TIP3    H261145   6.262   1.819   5.262  0.3008  1.8067 -0.3946
13244TIP3   OH261146   6.093   2.217  13.941  0.1998 -0.0450  0.2630
13244TIP3    H161147   6.182   2.239  13.913  0.2365  0.7173  0.9605
13244TIP3    H261148   6.040   2.293  13.917  0.1947  0.5620  2.0152
13245TIP3   OH261149   1.254   6.549   0.865 -0.9646 -0.0033 -0.1433
13245TIP3    H161150   1.206   6.483   0.816  0.4021 -0.5057 -0.8731
13245TIP3    H261151   1.232   6.532   0.956 -2.6038  0.1758 -0.4772
13246TIP3   OH261152   4.386   4.174  11.197 -0.2285  0.1436  0.2370
13246TIP3    H161153   4.330   4.185  11.274 -0.9585  0.9014 -0.3787
13246TIP3    H261154   4.327   4.189  11.123  0.3018 -1.2629 -0.4986
13247TIP3   OH261155   2.468   5.211  15.963 -0.2807 -0.1985  0.0046
13247TIP3    H161156   2.490   5.288  16.015 -0.6831  0.5562 -0.9158
13247TIP3    H261157   2.389   5.175  16.003 -0.1931 -0.0262  0.3265
13248TIP3   OH261158   3.510   0.119  14.036  0.3446  0.2595  0.2256
13248TIP3    H161159   3.463   0.097  13.955 -1.5048  0.9663  1.0627
13248TIP3    H261160   3.482   0.208  14.057  2.0829  0.7218  0.8000
13249TIP3   OH261161   3.958   1.478  16.846  0.6399  0.7257  0.6048
13249TIP3    H161162   4.007   1.472  16.928  1.7598 -2.2141 -0.1352
13249TIP3    H261163   3.898   1.403  16.849  0.9140  0.3750 -1.3423
13250TIP3   OH261164   0.504   0.551   3.817  0.5479 -0.1439  0.0204
13250TIP3    H161165   0.579   0.521   3.766 -0.2223  0.7954 -1.7559
13250TIP3    H261166   0.543   0.597   3.892  1.7875  1.1279 -1.3373
13251TIP3   OH261167   6.738   5.815   3.308 -0.8476  0.2813 -0.6364
13251TIP3    H161168   6.703   5.801   3.396 -1.7042  0.8378 -0.8721
13251TIP3    H261169   6.832   5.806   3.318 -0.8669  1.0322  0.4797
13252TIP3   OH261170   6.484   0.156  11.447  0.0863  0.2914 -0.5246
13252TIP3    H161171   6.571   0.155  11.408 -1.2030  0.1871 -3.7402
13252TIP3    H261172   6.457   0.248  11.444 -0.3730  0.1541 -0.7782
13253TIP3   OH261173   1.972   3.957  14.210  0.4540  0.1060 -0.0678
13253TIP3    H161174   1.962   3.862  14.195  0.6734  0.1702 -0.6536
13253TIP3    H261175   2.052   3.980  14.163  1.5029  0.2421  1.6968
13254TIP3   OH261176   2.259   6.319   1.274  0.6272  0.0923  1.0617
13254TIP3    H161177   2.275   6.329   1.180  1.9151  1.9929  1.4232
13254TIP3    H261178   2.341   6.283   1.308  0.3924 -0.0002  1.5277
13255TIP3   OH261179   0.434   1.484   4.049 -0.2245  0.0933 -0.3050
13255TIP3    H161180   0.494   1.418   4.084 -1.4304  0.4517  2.7801
13255TIP3    H261181   0.474   1.512   3.967  1.7674 -2.4300 -0.3276
13256TIP3   OH261182   3.897   2.040  14.250 -0.1765  0.3017  0.6455
13256TIP3    H161183   3.847   2.070  14.174  1.6868  1.2661 -0.2584
13256TIP3    H261184   3.870   1.949  14.262 -0.5471  0.1415 -1.1414
13257TIP3   OH261185   6.338   2.731   4.130 -0.9708  0.1934 -0.6540
13257TIP3    H161186   6.427   2.701   4.149 -1.1523 -0.8946 -1.4177
13257TIP3    H261187   6.350   2.809   4.075 -0.4890  0.6235  0.0564
13258TIP3   OH261188   6.735   5.675  16.849  0.3936  0.5431 -0.0332
13258TIP3    H161189   6.786   5.599  16.822 -1.3350 -0.2174 -1.3157
13258TIP3    H261190   6.753   5.741  16.782 -3.7550 -1.2837 -3.3775
13259TIP3   OH261191   0.726   6.763  13.849  0.1020  0.6333  0.0024
13259TIP3    H161192   0.772   6.746  13.932 -0.5216 -3.4238 -0.2831
13259TIP3    H261193   0.634   6.751  13.870  0.0173 -1.6633 -1.4408
13260TIP3   OH261194   1.660   3.548   2.502  0.2734  0.5519  0.1422
13260TIP3    H161195   1.634   3.516   2.416 -0.5717 -0.4294  0.7429
13260TIP3    H261196   1.609   3.495   2.564 -1.3757  3.1609  1.2071
13261TIP3   OH261197   0.267   4.301  14.724  0.4748  0.2365  0.1666
13261TIP3    H161198   0.266   4.310  14.628 -0.5908  0.1496  0.1566
13261TIP3    H261199   0.286   4.390  14.755 -0.2407  0.4972 -0.1151
13262TIP3   OH261200   0.128   0.986   4.959  0.1112 -0.4248 -0.3280
13262TIP3    H161201   0.179   0.907   4.978  0.5268  0.0229  0.4455
13262TIP3    H261202   0.144   1.044   5.033  1.1518  1.0741 -1.6548
13263TIP3   OH261203   1.328   4.193  11.139 -0.3915  0.3340 -0.0216
13263TIP3    H161204   1.381   4.126  11.096 -0.0349  0.9373 -0.5257
13263TIP3    H261205   1.292   4.149  11.216 -0.9635 -0.7322 -0.8815
13264TIP3   OH261206   2.419   6.794  16.891  0.5312  0.2509 -0.4266
13264TIP3    H161207   2.413   6.842  16.973 -1.2403 -1.4258  0.5018
13264TIP3    H261208   2.384   6.855  16.826  3.5568  2.2570 -0.3671
13265TIP3   OH261209   1.429   1.920   5.925  0.1765  0.3029 -0.6954
13265TIP3    H161210   1.347   1.930   5.974 -1.1609 -4.2583 -1.5278
13265TIP3    H261211   1.484   1.867   5.983 -0.3665 -2.7916 -2.7959
13266TIP3   OH261212   4.059   2.923  12.828  0.0494  0.4852 -0.3268
13266TIP3    H161213   4.079   2.895  12.739  0.8468 -0.2799  0.0804
13266TIP3    H261214   4.103   2.859  12.884  3.4343  3.3840  0.7145
13267TIP3   OH261215   0.121   4.467   4.420 -0.4067 -0.2107 -0.1994
13267TIP3    H161216   0.084   4.405   4.357  0.3385 -1.2175  0.3147
13267TIP3    H261217   0.065   4.544   4.414 -1.8974 -1.2607 -0.2383
13268TIP3   OH261218   5.704   1.857  11.142  0.1380 -0.2915 -0.6797
13268TIP3    H161219   5.621   1.809  11.148 -0.0773  0.1761  0.3138
13268TIP3    H261220   5.679   1.949  11.147  0.6443 -0.1116 -1.3822
13269TIP3   OH261221   2.817   3.798  16.324 -0.2533  1.1102  0.4868
13269TIP3    H161222   2.784   3.756  16.404 -0.6181  0.2685 -0.0854
13269TIP3    H261223   2.780   3.887  16.327 -0.2749  1.0833  1.2447
13270TIP3   OH261224   5.852   0.596   2.883 -0.1034  0.0314 -0.0479
13270TIP3    H161225   5.813   0.610   2.797  0.6886 -1.7290 -0.7456
13270TIP3    H261226   5.789   0.539   2.928 -1.6632  2.7497  1.4948
13271TIP3   OH261227   5.263   4.325  17.045 -0.1318  0.0272 -0.0909
13271TIP3    H161228   5.183   4.280  17.018  1.0155 -1.7109 -0.7611
13271TIP3    H261229   5.311   4.338  16.964  0.4551  0.6960  0.3547
13272TIP3   OH261230   2.965   4.325  13.182  0.6041  0.3847  0.3583
13272TIP3    H161231   2.889   4.316  13.240  0.4471 -1.6891 -0.1073
13272TIP3    H261232   3.039   4.335  13.242  0.2631 -0.1694  0.8867
13273TIP3   OH261233   2.007   1.111   2.736 -0.1108 -0.1118  0.9825
13273TIP3    H161234   2.026   1.128   2.644  0.3407 -2.7620  0.5090
13273TIP3    H261235   2.070   1.164   2.784  1.6781 -0.9380 -0.3423
13274TIP3   OH261236   3.323   2.857   1.208  0.6124  0.5403  0.2501
13274TIP3    H161237   3.251   2.862   1.146  0.7326  0.8662  0.1348
13274TIP3    H261238   3.368   2.775   1.186 -1.1287 -0.9865  1.8824
13275TIP3   OH261239   0.811   0.899   3.399  0.2412  0.0456 -0.3698
13275TIP3    H161240   0.717   0.884   3.397 -0.0475  0.5161  3.2023
13275TIP3    H261241   0.849   0.815   3.423  0.6951  0.0476 -1.0375
13276TIP3   OH261242   0.093   3.653  14.591  0.1453  0.4507  0.0810
13276TIP3    H161243   0.073   3.566  14.557  5.3784 -1.3238  0.5467
13276TIP3    H261244   0.016   3.679  14.642 -2.3709 -3.0010 -1.6682
13277TIP3   OH261245   5.651   6.069  11.437  0.3250  0.6545  0.1181
13277TIP3    H161246   5.583   6.113  11.385 -0.3107 -1.7014 -1.1638
13277TIP3    H261247   5.614   6.066  11.526 -1.2392 -0.4084 -0.5159
13278TIP3   OH261248   0.782   2.643  11.245  0.7148  0.5769 -0.1923
13278TIP3    H161249   0.690   2.669  11.247  0.5925  0.7464 -3.2073
13278TIP3    H261250   0.779   2.547  11.237  0.9671  0.2555  2.4959
13279TIP3   OH261251   2.580   5.172   5.887 -0.0066 -0.1763  0.0914
13279TIP3    H161252   2.572   5.082   5.920  2.2479 -1.0857 -1.5593
13279TIP3    H261253   2.613   5.222   5.962  2.0697 -1.5293  0.1809
13280TIP3   OH261254   5.356   1.739   6.241 -0.0685  0.6263 -0.0540
13280TIP3    H161255   5.423   1.806   6.229  0.2922  0.0629 -1.3274
13280TIP3    H261256   5.274   1.789   6.243  0.1678  1.1015 -1.3236
13281TIP3   OH261257   6.788   2.010   2.244  0.9686 -0.1133 -0.0607
13281TIP3    H161258   6.824   1.939   2.296  0.7599 -0.0759  0.1418
13281TIP3    H261259   6.694   1.992   2.242  0.6991  0.9344  1.2396
13282TIP3   OH261260   6.685   2.938   2.688  0.3052 -0.5492 -0.2903
13282TIP3    H161261   6.620   2.955   2.756 -0.7134  0.4602 -1.4513
13282TIP3    H261262   6.740   3.017   2.687  0.6808 -0.8087 -0.2494
13283TIP3   OH261263   2.689   1.184  11.748 -0.0283 -0.3820  0.4994
13283TIP3    H161264   2.620   1.245  11.770 -0.0095 -0.0600 -0.3115
13283TIP3    H261265   2.650   1.124  11.685  0.6068  0.1985 -0.4670
13284TIP3   OH261266   2.668   5.213   0.235 -0.0065  0.0737  0.1675
13284TIP3    H161267   2.748   5.243   0.279 -0.2920  1.8683 -0.4431
13284TIP3    H261268   2.652   5.126   0.271  2.1384 -0.2944  0.4102
13285TIP3   OH261269   6.028   0.769   4.654 -0.1302  0.0410  0.2009
13285TIP3    H161270   6.032   0.754   4.748 -0.4703  1.4922  0.4687
13285TIP3    H261271   6.046   0.683   4.615  1.5420 -0.2892  1.5571
13286TIP3   OH261272   3.521   3.823  15.187  0.2835 -0.0025 -1.0483
13286TIP3    H161273   3.515   3.727  15.195  1.3777  0.0322  0.8044
13286TIP3    H261274   3.544   3.838  15.096 -1.4359 -1.4056 -1.7780
13287TIP3   OH261275   4.855   0.212   4.181 -0.3282 -0.5533  0.1822
13287TIP3    H161276   4.777   0.208   4.125  0.5125  0.7118 -1.1708
13287TIP3    H261277   4.917   0.152   4.139  0.8829  1.5814 -1.3082
13288TIP3   OH261278   6.720   2.531  15.351 -0.1953  0.6374  0.6395
13288TIP3    H161279   6.689   2.535  15.441  1.7817  0.3175  1.4030
13288TIP3    H261280   6.713   2.621  15.319 -1.9574  0.5504  0.6914
13289TIP3   OH261281   1.749   5.125  12.541 -0.6428  0.0339 -0.1540
13289TIP3    H161282   1.788   5.059  12.599 -0.6642 -0.4381 -0.6744
13289TIP3    H261283   1.809   5.200  12.547 -1.4176  0.5751  1.6318
13290TIP3   OH261284   2.484   3.833   4.525 -0.0070  0.0659 -0.4700
13290TIP3    H161285   2.471   3.789   4.441  0.6417  1.0779 -1.1290
13290TIP3    H261286   2.481   3.926   4.504 -2.0931  0.3914  1.0072
13291TIP3   OH261287   5.212   3.257   4.811  0.5272  0.7270 -0.1930
13291TIP3    H161288   5.156   3.290   4.741 -0.1523 -1.5841 -0.8111
13291TIP3    H261289   5.160   3.270   4.891 -0.9568 -1.2831 -0.7430
13292TIP3   OH261290   3.540   6.097   6.690  0.2312 -0.2292 -0.7573
13292TIP3    H161291   3.564   6.143   6.771 -0.7278 -0.2494 -0.4514
13292TIP3    H261292   3.615   6.041   6.672 -0.2038 -1.4772  1.0524
13293TIP3   OH261293   5.924   2.798   3.029  0.3605 -0.5566 -0.5809
13293TIP3    H161294   5.989   2.864   3.004 -2.2985  2.4623 -0.1792
13293TIP3    H261295   5.925   2.798   3.125  0.5418 -1.4149 -0.5691
13294TIP3   OH261296   2.613   2.409  15.624  0.3205 -0.7767 -0.0329
13294TIP3    H161297   2.577   2.452  15.701  1.2526 -2.8752  1.6909
13294TIP3    H261298   2.536   2.379  15.576 -0.2766  0.2140  0.2715
13295TIP3   OH261299   6.415   5.343   1.174  0.2191  0.2944  0.4445
13295TIP3    H161300   6.502   5.308   1.156  0.4547  0.4824  1.2006
13295TIP3    H261301   6.362   5.315   1.099  0.7403 -0.4786  0.3553
13296TIP3   OH261302   5.793   0.991   6.230 -0.4202  0.5223  0.8595
13296TIP3    H161303   5.818   0.916   6.284 -0.4817  0.6518  1.0692
13296TIP3    H261304   5.876   1.033   6.207 -0.4140  0.6626  1.1368
13297TIP3   OH261305   1.593   2.755  14.569 -0.1084  0.0510  0.3401
13297TIP3    H161306   1.650   2.708  14.631 -0.6648  0.6759  1.3355
13297TIP3    H261307   1.649   2.768  14.492  1.1271  0.6684  1.2971
13298TIP3   OH261308   0.098   3.354   1.092  0.0511  0.4820  0.1978
13298TIP3    H161309   0.042   3.311   1.157  0.8499  0.8655  1.1801
13298TIP3    H261310   0.149   3.283   1.053 -2.1905 -0.1085 -1.8943
13299TIP3   OH261311   5.665   5.971   4.339  0.7157  0.3909  0.2696
13299TIP3    H161312   5.622   6.051   4.371 -1.0314 -0.7214  0.8416
13299TIP3    H261313   5.615   5.900   4.378  0.5755 -1.0247 -2.2775
13300TIP3   OH261314   1.581   3.000  13.431  0.4037  0.6601  0.2282
13300TIP3    H161315   1.562   3.057  13.356  0.8044 -0.1310 -0.4955
13300TIP3    H261316   1.671   2.972  13.417 -0.6715 -2.5529 -1.1221
13301TIP3   OH261317   2.593   3.342  14.709  0.4479  0.0633 -0.7292
13301TIP3    H161318   2.622   3.299  14.790  1.8441  1.7828 -0.2801
13301TIP3    H261319   2.498   3.348  14.719  0.4311 -1.0669  0.0900
13302TIP3   OH261320   3.485   2.008  11.120 -0.5297  0.4767 -0.0448
13302TIP3    H161321   3.409   2.052  11.082 -0.7588  1.5917  1.5835
13302TIP3    H261322   3.514   2.067  11.189 -0.4977 -1.6799  1.8863
13303TIP3   OH261323   6.171   6.461  14.140  0.2252 -0.4265 -0.1329
13303TIP3    H161324   6.077   6.475  14.128  0.5363  1.8172 -0.5485
13303TIP3    H261325   6.211   6.496  14.061  1.4513 -0.7012  0.3409
13304TIP3   OH261326   3.293   6.414   3.474 -0.5250 -0.0995  0.7707
13304TIP3    H161327   3.385   6.387   3.479 -0.1775  1.0832  1.2613
13304TIP3    H261328   3.281   6.442   3.383  0.0031  0.9911  1.0094
13305TIP3   OH261329   1.140   1.303   4.002  0.3370 -0.2757  0.6731
13305TIP3    H161330   1.062   1.314   3.947  0.2617 -1.1592  0.5867
13305TIP3    H261331   1.156   1.208   4.001  1.0889 -0.1546  1.1360
13306TIP3   OH261332   3.900   4.061  14.453  0.0409 -0.3070 -0.1893
13306TIP3    H161333   3.965   4.035  14.519  1.0884  0.6898 -0.7936
13306TIP3    H261334   3.822   4.083  14.504  0.0322 -1.8419  0.5347
13307TIP3   OH261335   1.445   3.618  10.921 -0.0553 -0.0289 -0.3713
13307TIP3    H161336   1.423   3.604  10.829  1.2221 -0.1120 -0.6828
13307TIP3    H261337   1.411   3.541  10.966 -0.3241 -0.1842 -0.8354
13308TIP3   OH261338   3.237   3.231  11.622 -0.3051  0.0870  0.8076
13308TIP3    H161339   3.316   3.281  11.645  0.4225  0.3423 -1.9545
13308TIP3    H261340   3.166   3.277  11.666  0.8237  1.0922  1.6559
13309TIP3   OH261341   6.000   2.511  13.853 -0.7181  0.2609  0.1427
13309TIP3    H161342   6.010   2.556  13.937 -0.3190  0.6513 -0.1093
13309TIP3    H261343   6.045   2.567  13.790 -0.9979 -0.0377 -0.3326
13310TIP3   OH261344   0.918   3.978  17.073  0.5023  0.1720 -0.2494
13310TIP3    H161345   0.971   4.048  17.111  2.2617  0.5482 -3.1267
13310TIP3    H261346   0.958   3.897  17.104  2.0484  0.4653 -1.4111
13311TIP3   OH261347   2.056   3.466   5.861 -0.3119 -0.1431 -0.5803
13311TIP3    H161348   2.010   3.399   5.911 -2.8324  0.4094 -1.9928
13311TIP3    H261349   2.085   3.421   5.782 -0.9633  0.1482 -0.9904
13312TIP3   OH261350   3.663   5.696   3.531 -0.3593  0.2215 -0.2294
13312TIP3    H161351   3.631   5.674   3.444 -2.5652  0.5781  0.4454
13312TIP3    H261352   3.752   5.659   3.533 -0.5459 -0.5092 -2.3081
13313TIP3   OH261353   3.256   6.661   4.046 -0.0166  0.4157  0.1336
13313TIP3    H161354   3.241   6.567   4.036 -2.1572  0.3704  2.6765
13313TIP3    H261355   3.350   6.670   4.055  0.3131 -1.3557 -0.9727
13314TIP3   OH261356   3.759   4.198   1.677 -0.5512 -0.4451 -0.1830
13314TIP3    H161357   3.673   4.156   1.677 -0.0940 -1.4768  0.9839
13314TIP3    H261358   3.755   4.262   1.748  0.2397 -1.9258  1.2681
13315TIP3   OH261359   6.730   0.506   3.203  0.0030 -0.1298 -0.3461
13315TIP3    H161360   6.767   0.432   3.156 -1.5246 -2.2732  1.5863
13315TIP3    H261361   6.644   0.520   3.163  0.4485  0.9235 -0.9747
13316TIP3   OH261362   4.390   0.775  14.244  0.4177 -0.3348  0.2318
13316TIP3    H161363   4.384   0.689  14.286 -0.2801  0.0331  0.9091
13316TIP3    H261364   4.304   0.788  14.204  1.4211 -1.1843 -2.3733
13317TIP3   OH261365   4.866   1.035  10.536 -0.3086 -0.2033 -0.1726
13317TIP3    H161366   4.831   1.123  10.550  0.1842 -0.1674  0.9059
13317TIP3    H261367   4.955   1.038  10.570 -1.0627 -1.7597  2.2529
13318TIP3   OH261368   2.368   3.720  15.356  0.0542 -0.0335 -0.1384
13318TIP3    H161369   2.365   3.654  15.426 -0.5481  1.3959  1.2462
13318TIP3    H261370   2.332   3.675  15.280  1.4502 -1.8899  0.2130
13319TIP3   OH261371   4.205   3.614   4.128 -0.0288 -0.1696  0.4297
13319TIP3    H161372   4.124   3.626   4.078 -0.1371  1.5523  0.9450
13319TIP3    H261373   4.274   3.611   4.061 -0.4107 -0.6969  0.0450
13320TIP3   OH261374   5.464   2.419  13.597 -0.6285  0.2929  0.0697
13320TIP3    H161375   5.381   2.455  13.567 -0.2925  0.5970 -0.5078
13320TIP3    H261376   5.516   2.496  13.621 -0.7580  0.0782  1.1161
13321TIP3   OH261377   4.921   3.526  12.015 -0.4366  0.4237  0.1644
13321TIP3    H161378   5.016   3.526  12.024 -0.2047 -0.6126 -1.7392
13321TIP3    H261379   4.898   3.433  12.009 -1.7254  0.5995  1.6660
13322TIP3   OH261380   5.058   5.330   3.334 -0.8158  0.0491 -0.3965
13322TIP3    H161381   5.144   5.289   3.336  0.0086  1.7525  0.8796
13322TIP3    H261382   5.019   5.309   3.420  0.0458  2.6840  0.7187
13323TIP3   OH261383   4.119   1.122  13.949 -0.1835 -0.8901  0.5016
13323TIP3    H161384   4.208   1.093  13.965  0.4365  0.0711 -0.9330
13323TIP3    H261385   4.071   1.099  14.028  1.5525 -0.5359  1.7039
13324TIP3   OH261386   2.813   4.860  14.194  1.0530  0.5190 -0.2512
13324TIP3    H161387   2.731   4.910  14.189  1.9087  2.2566  1.6001
13324TIP3    H261388   2.845   4.858  14.104  0.7193  2.9510 -0.4965
13325TIP3   OH261389   0.007   2.073  12.633 -0.3375 -0.2141  0.2978
13325TIP3    H161390  -0.053   2.143  12.607 -1.2051 -1.0612 -0.0436
13325TIP3    H261391   0.016   2.083  12.727 -0.7978  0.0979  0.3131
13326TIP3   OH261392   5.515   1.097  16.082  0.0396 -0.1187 -0.4065
13326TIP3    H161393   5.595   1.071  16.037 -1.2552 -0.7253 -2.5174
13326TIP3    H261394   5.476   1.015  16.111  0.2350  0.1886  0.8020
13327TIP3   OH261395   3.996   4.396  13.178  0.1463  0.0922 -0.2320
13327TIP3    H161396   4.079   4.436  13.153 -0.7571  1.8088 -0.6972
13327TIP3    H261397   4.011   4.302  13.171  2.6829  0.2161  1.7909
13328TIP3   OH261398   5.562   2.367   3.851  0.6630 -0.0210 -0.0294
13328TIP3    H161399   5.544   2.331   3.937  1.2986 -2.3819 -0.8149
13328TIP3    H261400   5.476   2.386   3.814  0.2457 -1.3809  0.1864
13329TIP3   OH261401   2.540   3.359  13.469 -0.0468 -0.5155 -0.8174
13329TIP3    H161402   2.493   3.403  13.540  2.0680  1.1247 -0.3103
13329TIP3    H261403   2.587   3.288  13.513 -0.2969 -0.7416 -0.9186
13330TIP3   OH261404   5.174   1.347   3.431  0.1167  0.2280 -0.1944
13330TIP3    H161405   5.175   1.346   3.527 -1.1983  0.7810 -0.1501
13330TIP3    H261406   5.106   1.410   3.409 -0.5797 -0.9227 -1.4789
13331TIP3   OH261407   4.186   5.491  14.417  0.7979 -0.6055 -0.2192
13331TIP3    H161408   4.160   5.515  14.505  1.8317 -0.3635  0.0344
13331TIP3    H261409   4.134   5.413  14.397  1.0852 -1.1054  0.8920
13332TIP3   OH261410   5.391   6.632   6.229 -0.1004  0.4666  0.3403
13332TIP3    H161411   5.450   6.678   6.168 -0.7498  1.4683  0.4346
13332TIP3    H261412   5.303   6.655   6.199 -0.4649 -1.0152  0.1995
13333TIP3   OH261413   1.376   5.391   0.803  0.3353 -0.2842  0.3332
13333TIP3    H161414   1.432   5.466   0.783 -1.2940  1.4594  1.8703
13333TIP3    H261415   1.395   5.370   0.895  0.0525 -1.1107  0.2111
13334TIP3   OH261416   2.433   3.594  16.858 -0.0392 -0.1613  0.0755
13334TIP3    H161417   2.391   3.678  16.880  0.8691  0.4391 -0.3947
13334TIP3    H261418   2.430   3.591  16.763 -0.1610 -0.7183  0.0984
13335TIP3   OH261419   1.673   2.355  16.913  0.4242  0.3165  0.2193
13335TIP3    H161420   1.722   2.276  16.893  0.1919  0.5586 -1.4158
13335TIP3    H261421   1.585   2.324  16.935  0.7217  0.0388  1.0810
13336TIP3   OH261422   0.206   0.342  12.586  0.4486 -0.9657 -0.2311
13336TIP3    H161423   0.223   0.437  12.586  1.2325 -1.1000 -0.3980
13336TIP3    H261424   0.231   0.313  12.498  0.3808 -1.3536 -0.1229
13337TIP3   OH261425   2.411   0.118   1.878 -0.0547  0.1267 -0.6288
13337TIP3    H161426   2.316   0.114   1.890  0.1605 -2.4314  0.9888
13337TIP3    H261427   2.447   0.105   1.966  1.7777 -1.3322 -1.5364
13338TIP3   OH261428   3.541   5.944   4.684  0.0343  0.2000 -0.1793
13338TIP3    H161429   3.464   5.993   4.714  0.9352 -0.1751  3.1673
13338TIP3    H261430   3.510   5.896   4.607 -3.3807 -0.5556  1.4511
13339TIP3   OH261431   6.215   2.235  13.403  0.0122  0.2523  0.9399
13339TIP3    H161432   6.181   2.324  13.400  3.2837  1.7368  2.2201
13339TIP3    H261433   6.254   2.221  13.317 -0.4142  0.0650  0.7726
13340TIP3   OH261434   5.117   6.741   1.123 -0.3936  0.2498 -0.2763
13340TIP3    H161435   5.189   6.716   1.181  0.3149  2.2361 -0.2021
13340TIP3    H261436   5.134   6.833   1.102 -0.5575 -0.3893 -3.7699
13341TIP3   OH261437   3.424   3.336  12.548 -0.1840 -0.1885  0.0217
13341TIP3    H161438   3.356   3.400  12.565 -0.9383 -1.2585  1.2343
13341TIP3    H261439   3.504   3.376  12.582 -0.8054 -0.2364  1.6194
13342TIP3   OH261440   4.221   5.226   4.138  0.0553  0.1733 -0.3682
13342TIP3    H161441   4.237   5.142   4.094 -1.0147 -0.6577  0.7897
13342TIP3    H261442   4.305   5.246   4.180  0.0535 -0.7947  0.1291
13343TIP3   OH261443   4.472   6.082  10.639  0.0027 -0.3207  0.6509
13343TIP3    H161444   4.452   6.040  10.556 -3.5327  0.8876  0.7200
13343TIP3    H261445   4.527   6.157  10.615  0.6217 -1.0670 -0.3306
13344TIP3   OH261446   0.813   3.635  16.892 -0.5945 -0.0205  0.2807
13344TIP3    H161447   0.870   3.559  16.885 -0.6507  0.0075 -0.6758
13344TIP3    H261448   0.815   3.659  16.984 -2.2461 -2.4410  1.0442
13345TIP3   OH261449   5.886   0.536   1.924  0.1587 -0.0220 -0.3835
13345TIP3    H161450   5.908   0.554   1.832 -0.8073  0.4881 -0.5289
13345TIP3    H261451   5.890   0.441   1.931 -0.3666 -0.1097 -1.1174
13346TIP3   OH261452   5.787   3.310   0.542  0.8341 -0.0809 -0.5207
13346TIP3    H161453   5.710   3.287   0.594  0.5969  1.0668 -0.3311
13346TIP3    H261454   5.862   3.283   0.596  0.5863  0.8349  0.3138
13347TIP3   OH261455   5.079   4.128   0.747 -0.0802  0.7084 -0.4826
13347TIP3    H161456   5.116   4.201   0.797 -0.5023  0.6461 -0.0604
13347TIP3    H261457   5.044   4.169   0.668 -1.4744  1.1991  0.3373
13348TIP3   OH261458   5.522   4.128  13.042  0.3106 -0.0688 -0.2252
13348TIP3    H161459   5.543   4.169  12.959  0.9873  4.6293  1.9733
13348TIP3    H261460   5.440   4.082  13.026 -0.4548  2.0171 -3.1158
13349TIP3   OH261461   3.633   0.539  13.546 -0.2302  0.1715 -0.4599
13349TIP3    H161462   3.582   0.489  13.609 -1.6394 -0.7585 -2.2630
13349TIP3    H261463   3.651   0.622  13.590  0.5592 -1.1514  1.8869
13350TIP3   OH261464   1.228   5.350  13.036 -0.1556  0.2337 -0.8685
13350TIP3    H161465   1.250   5.260  13.058  1.0074  0.5598 -0.6573
13350TIP3    H261466   1.184   5.384  13.114 -1.7361 -0.5011 -1.3927
13351TIP3   OH261467   3.525   4.202  16.148  0.3988  0.1354  0.3195
13351TIP3    H161468   3.453   4.139  16.135  0.1318  0.3913  0.5320
13351TIP3    H261469   3.547   4.232  16.061 -0.0841  0.4188  0.2900
13352TIP3   OH261470   3.021   0.380   2.039  0.1557 -0.4606  0.4170
13352TIP3    H161471   2.968   0.442   1.989  2.0452  0.8862 -0.0203
13352TIP3    H261472   3.055   0.431   2.113 -2.1472 -2.2678  2.9402
13353TIP3   OH261473   1.695   3.667   1.571 -0.3452 -0.5573 -0.1768
13353TIP3    H161474   1.690   3.673   1.476 -0.3948  0.8078 -0.1074
13353TIP3    H261475   1.777   3.622   1.588  0.2020  0.1661 -0.8496
13354TIP3   OH261476   6.516   6.667  14.675 -0.1974  0.8908  0.0884
13354TIP3    H161477   6.514   6.741  14.736 -2.1697  0.0340  1.1393
13354TIP3    H261478   6.453   6.605  14.711  0.6939 -0.8887 -1.3060
13355TIP3   OH261479   1.960   0.196   1.031 -0.3940 -0.1441  0.6837
13355TIP3    H161480   1.993   0.122   0.982 -0.9534 -1.1569  1.7721
13355TIP3    H261481   2.014   0.199   1.110  0.3013  1.2638  0.1760
13356TIP3   OH261482   5.491   0.374  14.185 -0.3542  0.4910  0.1763
13356TIP3    H161483   5.568   0.373  14.242 -1.7097  0.4497  2.1134
13356TIP3    H261484   5.480   0.466  14.161  0.3160  0.4918 -0.1427
13357TIP3   OH261485   5.474   5.049  16.688  0.3840  0.3058 -0.6347
13357TIP3    H161486   5.497   5.046  16.595  0.3020  0.6112 -0.6662
13357TIP3    H261487   5.508   5.133  16.718  0.6132  0.1063 -0.3327
13358TIP3   OH261488   2.454   6.325   0.079  0.0767 -0.2821 -0.1278
13358TIP3    H161489   2.482   6.400   0.027 -1.4396 -0.0668 -0.6880
13358TIP3    H261490   2.433   6.258   0.014  1.5888 -1.3015  0.3718
13359TIP3   OH261491   4.204   0.328   3.621  0.1362  0.2308 -0.2932
13359TIP3    H161492   4.124   0.377   3.602  1.0108  2.3519  1.1170
13359TIP3    H261493   4.173   0.242   3.648 -1.6295  0.7970 -0.3595
13360TIP3   OH261494   6.793   2.147  11.858  0.2335 -0.3054  0.7066
13360TIP3    H161495   6.861   2.209  11.834  1.0068 -1.4816 -0.2181
13360TIP3    H261496   6.839   2.064  11.870 -1.0447 -1.1500 -0.0466
13361TIP3   OH261497   3.315   6.380   3.743 -0.0420 -0.0709 -0.2030
13361TIP3    H161498   3.309   6.407   3.651  0.9994  1.2295  0.0916
13361TIP3    H261499   3.257   6.304   3.749  1.9255 -1.9254 -2.5647
13362TIP3   OH261500   3.832   3.343   0.751 -0.3058  0.2472 -0.2375
13362TIP3    H161501   3.857   3.274   0.690 -1.6746 -0.8917  0.4255
13362TIP3    H261502   3.885   3.419   0.726  1.1691 -1.0113 -1.0444
13363TIP3   OH261503   5.374   3.284  16.717 -0.0900  0.2612  0.3852
13363TIP3    H161504   5.282   3.272  16.741  0.0446  0.0031  0.7832
13363TIP3    H261505   5.407   3.195  16.702 -0.0082  0.3806 -0.1501
13364TIP3   OH261506   0.703   2.602  14.728  0.5296  0.1105  0.0985
13364TIP3    H161507   0.640   2.672  14.743  1.1250  1.0095 -1.3394
13364TIP3    H261508   0.650   2.523  14.725 -0.1993  0.5008  1.4469
13365TIP3   OH261509   2.324   0.952  10.851  0.4257  0.2007 -0.0148
13365TIP3    H161510   2.246   0.910  10.887  1.5999 -0.3748  1.9880
13365TIP3    H261511   2.342   1.024  10.911  1.5930  0.1618 -0.3047
13366TIP3   OH261512   1.410   0.406  13.876  0.5603  0.1938 -0.3975
13366TIP3    H161513   1.393   0.495  13.906 -0.4290 -0.0936 -0.0825
13366TIP3    H261514   1.354   0.395  13.799 -0.2206 -0.5436  0.2597
13367TIP3   OH261515   2.750   4.703  12.809  0.2240  0.2256  0.1345
13367TIP3    H161516   2.667   4.750  12.816  0.1051  0.0738 -0.2206
13367TIP3    H261517   2.809   4.765  12.765  0.1140  0.1035 -0.1870
13368TIP3   OH261518   0.752   2.942  11.511  0.2762 -0.5630  0.0949
13368TIP3    H161519   0.738   3.035  11.525  0.7399 -0.4958  0.1379
13368TIP3    H261520   0.701   2.899  11.580  0.8017 -0.3063  0.6547
13369TIP3   OH261521   5.140   5.835  13.917 -0.0421  0.0209 -0.1665
13369TIP3    H161522   5.155   5.813  13.825 -1.0788  1.8624 -0.8152
13369TIP3    H261523   5.047   5.854  13.922 -0.1744 -0.9077  1.4889
13370TIP3   OH261524   5.930   2.664  14.640  0.3891 -0.0572  0.0270
13370TIP3    H161525   5.941   2.689  14.549 -0.1199 -0.8021 -0.2472
13370TIP3    H261526   5.999   2.599  14.656  0.3784 -0.0435  0.1322
13371TIP3   OH261527   5.463   4.144  13.479  0.2834 -0.2624  0.4798
13371TIP3    H161528   5.383   4.116  13.523  0.9351  0.0472  1.9093
13371TIP3    H261529   5.488   4.225  13.522  1.4847 -0.4559  0.2090
13372TIP3   OH261530   5.287   2.372  14.247 -0.0771  0.7374  0.5331
13372TIP3    H161531   5.327   2.390  14.162  0.1988 -2.3227 -0.0969
13372TIP3    H261532   5.195   2.354  14.227 -0.2824  1.1700  1.0628
13373TIP3   OH261533   2.705   5.143  12.271  0.7115 -0.0334  0.2676
13373TIP3    H161534   2.757   5.158  12.350  2.0556  0.9512 -0.7439
13373TIP3    H261535   2.756   5.077  12.222 -0.3770 -1.0295  0.4406
13374TIP3   OH261536   1.645   2.657  13.368 -0.2321 -0.5055 -0.1509
13374TIP3    H161537   1.601   2.696  13.292 -0.5182  0.7715  0.6567
13374TIP3    H261538   1.733   2.695  13.367  0.0128 -1.0595 -0.2562
13375TIP3   OH261539   6.699   4.966   6.056 -0.0571 -0.6282  0.0486
13375TIP3    H161540   6.690   4.994   6.147  0.6967 -0.9494  0.2283
13375TIP3    H261541   6.654   4.881   6.052 -1.9729  0.3537 -0.3983
13376TIP3   OH261542   0.554   1.090  11.783 -0.7768 -0.6485  0.4692
13376TIP3    H161543   0.646   1.066  11.778 -0.5538 -0.0329  1.3998
13376TIP3    H261544   0.508   1.007  11.796 -0.2977 -0.8906  0.6244
13377TIP3   OH261545   6.327   0.100   6.340 -0.3781 -0.1079 -0.3238
13377TIP3    H161546   6.393   0.170   6.334  0.8210 -1.2891 -1.8425
13377TIP3    H261547   6.245   0.142   6.314  0.1189  0.9805 -0.1901
13378TIP3   OH261548   0.561   1.294   0.876  0.6408 -0.5331 -0.0727
13378TIP3    H161549   0.625   1.319   0.809  0.2611 -0.2296 -0.3333
13378TIP3    H261550   0.583   1.204   0.898  0.3540 -0.8727 -1.1052
13379TIP3   OH261551   5.356   6.338   1.760 -0.1710  0.0370  0.7135
13379TIP3    H161552   5.312   6.327   1.675 -1.0021  1.7975  0.8845
13379TIP3    H261553   5.382   6.249   1.785  0.5955 -0.4774 -1.6301
13380TIP3   OH261554   3.421   0.411  11.431 -0.0805  0.2121  0.2091
13380TIP3    H161555   3.396   0.320  11.413  2.0252 -0.4827  0.5623
13380TIP3    H261556   3.380   0.462  11.361 -0.2765 -1.1549 -0.6987
13381TIP3   OH261557   3.209   4.086  15.243  0.1400  0.0656 -0.0476
13381TIP3    H161558   3.271   4.052  15.308  0.7088  0.6589 -0.2710
13381TIP3    H261559   3.150   4.142  15.293  0.9354  0.9943 -0.1086
13382TIP3   OH261560   3.599   0.428  12.475  0.0816 -0.2232  0.0006
13382TIP3    H161561   3.669   0.452  12.535 -0.1284 -0.7137  0.4535
13382TIP3    H261562   3.611   0.334  12.461 -0.6637 -0.3745  0.3252
13383TIP3   OH261563   3.754   3.803  15.725 -0.0200  0.4169  0.8285
13383TIP3    H161564   3.695   3.743  15.769 -2.5872  2.0773 -0.1072
13383TIP3    H261565   3.753   3.882  15.780  1.7834  0.3198  1.0578
13384TIP3   OH261566   3.090   2.486  14.657  0.1915  0.2121 -0.0968
13384TIP3    H161567   3.005   2.463  14.621 -0.0583 -1.8205  1.6200
13384TIP3    H261568   3.149   2.419  14.624  0.5786  0.1207  0.7497
13385TIP3   OH261569   3.672   3.249   0.112 -0.0201  0.3107 -0.3317
13385TIP3    H161570   3.743   3.313   0.117  0.2167  0.0118  0.2468
13385TIP3    H261571   3.596   3.300   0.084 -0.1267  1.1043  1.2437
13386TIP3   OH261572   3.713   2.220   0.457  0.4974  0.0048  0.0985
13386TIP3    H161573   3.658   2.209   0.535 -0.5703 -0.3926 -0.6786
13386TIP3    H261574   3.772   2.145   0.457 -0.7846 -1.0444 -0.4629
13387TIP3   OH261575   1.439   5.980  14.652  0.4715 -0.1718 -0.4274
13387TIP3    H161576   1.449   6.069  14.617 -0.2555  0.4122  0.7522
13387TIP3    H261577   1.496   5.978  14.728  0.1692 -0.5697 -0.2053
13388TIP3   OH261578   4.794   0.633   0.982  0.2146 -0.2944 -0.0192
13388TIP3    H161579   4.845   0.714   0.984  2.4841 -1.5440 -1.8355
13388TIP3    H261580   4.734   0.640   1.055  0.4555  2.9347  0.0037
13389TIP3   OH261581   3.494   1.204  13.074 -0.3577 -0.0795 -0.7675
13389TIP3    H161582   3.444   1.232  13.151 -0.7849  0.2799 -1.1671
13389TIP3    H261583   3.580   1.181  13.108 -1.2344 -2.1953  0.1779
13390TIP3   OH261584   4.017   1.602   3.940 -1.2568 -0.3435  0.0172
13390TIP3    H161585   3.929   1.565   3.941 -0.8601 -1.2992  1.3287
13390TIP3    H261586   4.043   1.598   3.847 -1.1369 -3.6782  0.0664
13391TIP3   OH261587   4.085   4.277  15.496  0.4887 -0.0807  0.3608
13391TIP3    H161588   4.007   4.260  15.548 -0.7273 -0.1937 -1.4017
13391TIP3    H261589   4.134   4.195  15.498  0.4596 -0.0890  1.2649
13392TIP3   OH261590   4.780   1.547   2.259  0.2515  0.0621 -0.3934
13392TIP3    H161591   4.800   1.465   2.213  2.2082  0.3360 -0.0924
13392TIP3    H261592   4.831   1.542   2.340 -1.2613  0.6638  0.6426
13393TIP3   OH261593   5.313   5.361  15.197 -0.1246 -0.0797  0.0344
13393TIP3    H161594   5.273   5.375  15.112 -1.3994  0.9612  0.7656
13393TIP3    H261595   5.319   5.266  15.206  2.1501 -0.2469 -2.1239
13394TIP3   OH261596   6.618   1.007  14.444  0.2765 -0.3142  0.5343
13394TIP3    H161597   6.581   1.083  14.488 -0.6086 -0.8622  0.7729
13394TIP3    H261598   6.696   1.040  14.400 -1.1243  1.1895 -0.9876
13395TIP3   OH261599   1.509   6.458   2.347  0.1317  0.2178  0.0850
13395TIP3    H161600   1.446   6.489   2.413  0.5421  1.7427 -0.2093
13395TIP3    H261601   1.486   6.366   2.334  0.7198 -0.4829  3.1669
13396TIP3   OH261602   1.312   0.250   2.443 -0.2236  0.0146 -0.1035
13396TIP3    H161603   1.285   0.171   2.396 -0.9134 -1.1669  2.1203
13396TIP3    H261604   1.292   0.322   2.383 -1.3875 -1.3669 -1.4524
13397TIP3   OH261605   4.011   5.565  16.566  0.2846  0.6419  0.1171
13397TIP3    H161606   3.957   5.590  16.641  0.7176  1.3945  0.1950
13397TIP3    H261607   3.974   5.613  16.492  0.6386  0.9096  0.1089
13398TIP3   OH261608   2.761   4.071  16.446 -0.3586 -0.0436  1.3047
13398TIP3    H161609   2.738   4.040  16.533 -0.7372 -0.0676  1.1974
13398TIP3    H261610   2.772   4.166  16.456 -1.2390  0.0725  1.2026
13399TIP3   OH261611   2.328   5.405   0.767  0.1423 -0.7406 -0.0161
13399TIP3    H161612   2.275   5.426   0.690  4.3495  0.4909 -2.9693
13399TIP3    H261613   2.305   5.472   0.831 -2.1638 -0.6523 -0.8377
13400TIP3   OH261614   1.145   4.070   0.780  0.2788 -0.5280 -0.1540
13400TIP3    H161615   1.162   3.986   0.737 -0.0742 -1.4917  1.4877
13400TIP3    H261616   1.228   4.091   0.822  0.5184  0.2312 -0.9793
13401TIP3   OH261617   1.944   1.327  12.954 -0.1683 -0.7988  0.1118
13401TIP3    H161618   1.951   1.301  12.862  0.9133 -1.4143  0.3410
13401TIP3    H261619   2.032   1.312  12.989 -0.5188 -0.3898  1.1989
13402TIP3   OH261620   5.440   2.801   5.302 -0.1146  0.4561  0.0028
13402TIP3    H161621   5.496   2.874   5.278 -2.0553  1.0033 -3.6575
13402TIP3    H261622   5.351   2.834   5.289 -1.1213 -1.9797  0.1806
13403TIP3   OH261623   6.576   2.676  13.594 -0.1051  0.1623 -0.8094
13403TIP3    H161624   6.484   2.657  13.609 -1.2554  2.2058 -4.0781
13403TIP3    H261625   6.604   2.724  13.672 -1.7114 -0.6769  0.3460
13404TIP3   OH261626   5.163   0.991  14.033 -0.0628 -0.4243 -0.0513
13404TIP3    H161627   5.122   1.078  14.029 -2.7902 -1.6206 -0.9626
13404TIP3    H261628   5.129   0.946  13.955  0.7652 -2.5136  0.7393
13405TIP3   OH261629   2.027   0.169   4.596  0.5820 -0.8823  0.0176
13405TIP3    H161630   2.101   0.230   4.607  1.0884 -0.6993 -3.3856
13405TIP3    H261631   2.068   0.086   4.574 -0.2097 -1.0310 -0.9182
13406TIP3   OH261632   5.144   0.988   5.042 -0.2759  0.0986 -0.1248
13406TIP3    H161633   5.213   1.024   4.986  0.0998  0.9387  0.8412
13406TIP3    H261634   5.070   1.048   5.031 -0.1057  0.4289  0.4722
13407TIP3   OH261635   6.597   3.549  15.874 -0.1845  0.0304  0.3123
13407TIP3    H161636   6.671   3.488  15.883 -0.2477  0.0217  0.7973
13407TIP3    H261637   6.563   3.532  15.786 -0.2850 -0.7400  0.4866
13408TIP3   OH261638   6.200   5.417   5.201 -0.5845  0.1806  0.1856
13408TIP3    H161639   6.140   5.382   5.136 -0.5099 -0.9779  0.7141
13408TIP3    H261640   6.223   5.504   5.169 -1.1990 -0.0475 -0.8991
13409TIP3   OH261641   4.245   3.956   2.888  0.1876 -0.1792 -0.4280
13409TIP3    H161642   4.193   4.001   2.954 -0.4650  0.9923 -1.6826
13409TIP3    H261643   4.209   3.867   2.885 -1.0466  0.3041 -0.5136
13410TIP3   OH261644   1.568   1.132  11.769 -0.5459  0.2581 -0.2615
13410TIP3    H161645   1.600   1.218  11.740  1.1890 -0.0104  0.7190
13410TIP3    H261646   1.608   1.120  11.855 -0.5165 -1.6522 -0.5002
13411TIP3   OH261647   1.568   2.616  16.530  0.5147  0.4546  0.1635
13411TIP3    H161648   1.518   2.595  16.609  0.0534  4.0767  1.0335
13411TIP3    H261649   1.623   2.690  16.556  1.1068  1.1078 -2.6575
13412TIP3   OH261650   1.168   1.399  11.225  0.6026 -0.2135  0.4680
13412TIP3    H161651   1.189   1.347  11.147 -3.1491  1.5833 -2.0341
13412TIP3    H261652   1.099   1.349  11.270 -0.7351  0.9893 -0.1752
13413TIP3   OH261653   4.936   0.460   5.147  0.1005 -0.1482 -0.6275
13413TIP3    H161654   4.887   0.381   5.170 -2.5922  1.7660  0.9316
13413TIP3    H261655   4.914   0.477   5.055 -0.2921 -0.5821 -0.6148
13414TIP3   OH261656   4.031   5.377   0.622  0.6053  0.4327 -0.3121
13414TIP3    H161657   4.033   5.348   0.713 -0.0093  0.3530 -0.3189
13414TIP3    H261658   3.952   5.431   0.616 -1.1551 -2.0911 -1.5393
13415TIP3   OH261659   2.060   4.950  11.008  0.8155 -0.2597  0.0340
13415TIP3    H161660   2.066   4.859  11.036  1.1782 -0.5886 -1.0977
13415TIP3    H261661   2.119   4.998  11.067  0.0915 -0.6304  1.0899
13416TIP3   OH261662   2.666   2.875   3.863  0.3989  0.2390 -0.2615
13416TIP3    H161663   2.585   2.825   3.852 -0.1148  0.7181  1.1177
13416TIP3    H261664   2.722   2.817   3.915  1.3587 -0.5086 -2.0788
13417TIP3   OH261665   6.169   5.144   3.027  0.1066  0.7046  0.1704
13417TIP3    H161666   6.187   5.237   3.032  0.7653  0.5945 -0.0387
13417TIP3    H261667   6.155   5.126   2.934  0.7413  0.4655  0.1162
13418TIP3   OH261668   2.350   3.050   2.377  0.2319 -0.3292  0.2447
13418TIP3    H161669   2.426   3.108   2.378 -1.0711  1.4629  0.6092
13418TIP3    H261670   2.276   3.108   2.393 -0.9269 -2.4773  3.7696
13419TIP3   OH261671   3.287   0.623  11.256  0.9721  0.5276  0.0954
13419TIP3    H161672   3.314   0.706  11.216  0.3146  0.5952 -0.2275
13419TIP3    H261673   3.191   0.631  11.264  0.7694 -0.6202 -0.9191
13420TIP3   OH261674   1.084   5.224  11.303 -0.0089 -0.2652  1.2206
13420TIP3    H161675   1.138   5.148  11.323 -1.8071 -1.9320  0.1070
13420TIP3    H261676   1.068   5.219  11.209 -3.6720 -1.0979  1.7169
13421TIP3   OH261677   4.547   5.114  16.469  0.2227  0.5149 -0.0191
13421TIP3    H161678   4.458   5.149  16.460  0.5887  1.8921  1.2546
13421TIP3    H261679   4.537   5.019  16.457 -1.2089  0.7717 -1.0893
13422TIP3   OH261680   0.582   6.059  10.912  0.0330  0.1860  0.2456
13422TIP3    H161681   0.577   6.059  10.816 -3.2730  4.6965  0.1159
13422TIP3    H261682   0.525   5.986  10.938  1.2946 -1.3716 -1.0853
13423TIP3   OH261683   0.417   5.099  16.481 -0.1953  0.1798  0.1380
13423TIP3    H161684   0.335   5.148  16.492  0.8761  1.8152  1.1840
13423TIP3    H261685   0.394   5.009  16.508 -1.2984  0.9265  1.8580
13424TIP3   OH261686   5.398   3.839  12.086  0.8611 -0.4816 -0.4513
13424TIP3    H161687   5.435   3.806  12.005  0.7419 -0.3059 -0.5780
13424TIP3    H261688   5.468   3.892  12.125  0.5123  0.4532 -1.0463
13425TIP3   OH261689   4.559   0.775  16.308 -0.0111  0.1834 -0.2111
13425TIP3    H161690   4.526   0.864  16.298  1.4779  0.9098  0.8109
13425TIP3    H261691   4.598   0.773  16.396  0.9618 -1.1277 -0.6224
13426TIP3   OH261692   5.726   2.401  16.130 -0.2148 -0.1500  0.4624
13426TIP3    H161693   5.770   2.444  16.057  2.7580 -1.3195  1.4055
13426TIP3    H261694   5.686   2.323  16.092  0.6273 -0.3372 -0.0593
13427TIP3   OH261695   5.293   2.034   1.154 -0.4203 -0.2536 -0.2791
13427TIP3    H161696   5.270   2.076   1.237 -2.0787 -0.4597 -0.5905
13427TIP3    H261697   5.334   1.952   1.179  0.0174  0.1415  0.3274
13428TIP3   OH261698   2.397   0.730  11.607 -0.3808  0.0721  0.2290
13428TIP3    H161699   2.393   0.649  11.657 -1.0510 -0.4443 -0.6308
13428TIP3    H261700   2.481   0.728  11.563 -0.7212 -0.5472 -0.4104
13429TIP3   OH261701   3.498   1.937  10.625 -0.2148  0.1786 -0.6678
13429TIP3    H161702   3.456   1.874  10.683 -0.1995 -0.7944 -1.6853
13429TIP3    H261703   3.425   1.986  10.586 -0.2276  0.7989  0.0891
13430TIP3   OH261704   3.238   0.860  15.487 -0.4122  0.1928 -0.7091
13430TIP3    H161705   3.207   0.799  15.420  1.3711 -1.9183  0.2625
13430TIP3    H261706   3.327   0.881  15.460 -0.4212  1.0240 -0.1048
13431TIP3   OH261707   3.230   1.631  11.590  0.2875 -0.5428  0.3131
13431TIP3    H161708   3.154   1.584  11.554  0.5488 -0.7974  0.0834
13431TIP3    H261709   3.195   1.680  11.664 -0.4619  0.7123 -0.8281
13432TIP3   OH261710   4.351   4.549  13.849 -0.0634 -0.9168  0.4879
13432TIP3    H161711   4.445   4.530  13.854 -0.3882 -2.6507  0.5964
13432TIP3    H261712   4.312   4.499  13.921 -1.1007 -0.3883  0.3128
13433TIP3   OH261713   6.259   0.674   2.271 -0.3239  0.3920 -0.1406
13433TIP3    H161714   6.240   0.725   2.350 -0.7566  2.0671 -1.2814
13433TIP3    H261715   6.180   0.683   2.218 -1.5277 -3.6613  0.6315
13434TIP3   OH261716   5.745   4.722  13.349  0.2926 -0.4635 -0.1556
13434TIP3    H161717   5.729   4.781  13.423 -1.5211  1.3522 -1.8600
13434TIP3    H261718   5.726   4.635  13.383  0.6633  0.1884  1.8199
13435TIP3   OH261719   6.001   6.048   3.412  0.2678  0.2221  0.0140
13435TIP3    H161720   6.029   6.078   3.325 -0.3328  0.1251 -0.2204
13435TIP3    H261721   5.975   5.956   3.398  1.3597 -0.1813  0.5634
13436TIP3   OH261722   3.550   2.929   0.116  0.9580 -0.0877  0.9717
13436TIP3    H161723   3.572   2.995   0.182 -0.1267  0.5050  0.7662
13436TIP3    H261724   3.599   2.956   0.038 -0.4196  1.2224  0.5131
13437TIP3   OH261725   1.081   1.027  13.819  0.7108  0.0027 -0.1466
13437TIP3    H161726   1.093   0.958  13.753  0.9339  0.2007 -0.3178
13437TIP3    H261727   1.027   1.093  13.775  0.7192  0.0580 -0.0735
13438TIP3   OH261728   1.619   6.083   1.701 -0.1719  0.1548  0.1247
13438TIP3    H161729   1.536   6.047   1.667 -0.0095 -1.4605  1.3346
13438TIP3    H261730   1.653   6.136   1.629 -1.0465 -1.1649 -1.3272
13439TIP3   OH261731   2.387   1.332  12.360 -0.2343  0.8065 -0.3292
13439TIP3    H161732   2.442   1.257  12.337 -0.0294  1.2595 -1.3923
13439TIP3    H261733   2.317   1.295  12.414  0.0644 -0.0932 -0.5450
13440TIP3   OH261734   4.184   2.536   6.103  0.3161 -0.4485 -0.2412
13440TIP3    H161735   4.145   2.482   6.035  1.5516  0.0127 -1.3616
13440TIP3    H261736   4.234   2.475   6.157 -0.4557 -0.7779  0.1155
13441TIP3   OH261737   5.867   1.594   1.853 -0.4012  0.6498  0.1390
13441TIP3    H161738   5.894   1.646   1.777  1.9683 -0.1532  0.3541
13441TIP3    H261739   5.813   1.524   1.816  0.7803  0.2278 -0.8493
13442TIP3   OH261740   4.230   0.339  14.640  0.0901 -0.6100  0.0684
13442TIP3    H161741   4.241   0.416  14.586 -0.5409 -0.9538 -0.5658
13442TIP3    H261742   4.314   0.328  14.685  0.0837  0.6022  0.3943
13443TIP3   OH261743   4.385   3.073   0.314 -0.3503  0.2148  0.2696
13443TIP3    H161744   4.328   3.004   0.348  1.4043 -1.7809 -0.6341
13443TIP3    H261745   4.408   3.045   0.225  0.7516  1.7765  0.0057
13444TIP3   OH261746   5.938   0.990  16.035  0.3127 -0.0230 -0.0470
13444TIP3    H161747   5.850   0.965  16.007  0.5306 -0.4080 -0.3938
13444TIP3    H261748   5.996   0.937  15.981  0.7844  1.1546 -0.7215
13445TIP3   OH261749   0.344   4.948  13.801  0.2186  0.1496 -0.0055
13445TIP3    H161750   0.274   4.935  13.736 -1.1754 -0.5211  1.5653
13445TIP3    H261751   0.298   4.955  13.884  1.7533  3.2664  0.7426
13446TIP3   OH261752   0.585   1.053  14.506  0.5487  0.7460 -0.4571
13446TIP3    H161753   0.593   1.143  14.473  0.7916  0.3964 -1.3987
13446TIP3    H261754   0.660   1.007  14.468 -0.0079 -0.0396 -0.6334
13447TIP3   OH261755   2.309   5.341   3.383 -0.2743 -0.3143 -0.2178
13447TIP3    H161756   2.348   5.317   3.467  0.9366  0.9616 -0.3667
13447TIP3    H261757   2.375   5.396   3.341 -1.8448  1.1145 -0.9450
13448TIP3   OH261758   3.690   5.494   5.153 -0.1280  0.0235  0.0300
13448TIP3    H161759   3.748   5.423   5.181 -0.4831 -0.9525 -1.5522
13448TIP3    H261760   3.685   5.483   5.058 -0.6512  1.8417 -0.1721
13449TIP3   OH261761   4.770   3.280  13.565  0.0318 -0.2132 -0.0207
13449TIP3    H161762   4.814   3.365  13.557  0.0090 -0.2903 -1.2130
13449TIP3    H261763   4.779   3.256  13.657  0.0902  1.0540  0.3218
13450TIP3   OH261764   0.263   1.578   1.191 -0.0818  0.0855 -1.0609
13450TIP3    H161765   0.284   1.663   1.150 -1.2424  0.9153  0.0006
13450TIP3    H261766   0.344   1.528   1.183  0.7702  1.4349 -1.3739
13451TIP3   OH261767   6.589   1.859  12.857 -0.8479 -0.2150 -0.0649
13451TIP3    H161768   6.622   1.886  12.943 -1.1874 -1.5618  0.5250
13451TIP3    H261769   6.498   1.834  12.874 -0.7194 -1.1417 -0.6707
13452TIP3   OH261770   2.627   2.044  14.016 -0.2337 -0.0327  0.0939
13452TIP3    H161771   2.602   2.086  13.934  0.4544 -0.7111 -0.4821
13452TIP3    H261772   2.722   2.034  14.010 -0.4468 -2.6053 -0.2985
13453TIP3   OH261773   5.613   2.514   4.922  0.1153 -0.3272 -0.0383
13453TIP3    H161774   5.679   2.447   4.904  0.6832  0.2268 -0.0686
13453TIP3    H261775   5.664   2.594   4.939 -0.4929 -0.1723  1.1856
13454TIP3   OH261776   0.665   3.075   5.842  0.4314  0.1465 -0.5526
13454TIP3    H161777   0.575   3.108   5.843 -0.7676 -2.7799 -1.9413
13454TIP3    H261778   0.671   3.020   5.920  0.2887 -1.3365 -1.5628
13455TIP3   OH261779   0.708   0.713   5.924  0.1186  0.1479 -0.2241
13455TIP3    H161780   0.731   0.750   6.009  1.2020 -0.0747 -0.4093
13455TIP3    H261781   0.792   0.700   5.880 -0.4310  0.2038 -1.3083
13456TIP3   OH261782   0.975   6.624   5.250 -0.5281  0.3562 -0.0659
13456TIP3    H161783   1.009   6.605   5.337 -1.2648 -0.1961  0.1056
13456TIP3    H261784   0.880   6.625   5.260 -0.5864  2.7276 -0.3683
13457TIP3   OH261785   0.019   0.544   3.624 -0.3511  0.2080  0.5542
13457TIP3    H161786  -0.005   0.608   3.557  2.3623  1.1453  0.3643
13457TIP3    H261787   0.037   0.464   3.575  0.0296  0.4245  0.3360
13458TIP3   OH261788   5.254   0.661  15.671  0.5703 -0.3706  0.4857
13458TIP3    H161789   5.346   0.645  15.694  0.0905 -1.2635  1.8893
13458TIP3    H261790   5.230   0.588  15.615  0.8905  0.2325 -0.4660
13459TIP3   OH261791   0.760   5.253   5.243  0.9034  0.5572  0.7116
13459TIP3    H161792   0.686   5.310   5.262  0.0154  0.2697 -1.4945
13459TIP3    H261793   0.754   5.183   5.308 -0.9344  0.4347  0.4774
13460TIP3   OH261794   1.751   2.385   0.116  0.4321  0.4936  0.5715
13460TIP3    H161795   1.733   2.311   0.175 -0.2668  0.4764  0.3439
13460TIP3    H261796   1.707   2.361   0.034  0.8300  0.8253  0.2616
13461TIP3   OH261797   4.051   1.866   3.192  0.1737 -0.5394 -0.2011
13461TIP3    H161798   4.095   1.801   3.139 -0.1467 -0.1428 -0.9722
13461TIP3    H261799   3.957   1.849   3.178  0.0865 -0.3773  0.1694
13462TIP3   OH261800   5.754   2.443  14.672  0.0886 -0.7707  0.2899
13462TIP3    H161801   5.796   2.529  14.677  0.0995 -0.6696 -1.0996
13462TIP3    H261802   5.826   2.381  14.684  0.6535 -0.5973 -1.8175
13463TIP3   OH261803   1.806   0.307   4.677 -0.2919 -0.1982 -0.0340
13463TIP3    H161804   1.883   0.265   4.638  1.2656  3.2037 -1.0139
13463TIP3    H261805   1.835   0.334   4.764 -1.6824 -2.0776  1.0961
13464TIP3   OH261806   2.245   5.623   5.032 -0.1873 -0.0650 -0.2541
13464TIP3    H161807   2.249   5.551   4.969  0.7812 -0.9164  0.7697
13464TIP3    H261808   2.281   5.588   5.113 -1.2764  1.0622  0.7682
13465TIP3   OH261809   3.470   5.858   2.412 -0.4015  0.2652  0.3119
13465TIP3    H161810   3.441   5.916   2.341 -1.7741  1.9559  2.1453
13465TIP3    H261811   3.557   5.891   2.435 -0.1425 -0.0028 -0.2508
13466TIP3   OH261812   4.513   4.996   2.080 -0.4936 -0.1744 -0.1016
13466TIP3    H161813   4.488   5.034   1.996  0.8524  0.8008 -0.0946
13466TIP3    H261814   4.528   5.072   2.137  2.6526 -0.6125 -0.1892
13467TIP3   OH261815   5.884   1.625  12.063 -0.1991  0.2856 -0.0071
13467TIP3    H161816   5.812   1.667  12.110  0.7144  1.3414  0.5055
13467TIP3    H261817   5.956   1.688  12.067  0.8971 -0.8890 -0.1476
13468TIP3   OH261818   0.124   1.152   3.701 -0.2208 -0.3554  0.2198
13468TIP3    H161819   0.152   1.098   3.775  1.1068  1.2505  0.9617
13468TIP3    H261820   0.072   1.093   3.647 -2.2011 -1.3433  2.9733
13469TIP3   OH261821   1.744   0.405  15.490  0.1197  0.5778  0.8954
13469TIP3    H161822   1.649   0.417  15.492 -0.0271 -0.5608  1.2961
13469TIP3    H261823   1.768   0.415  15.398 -0.4802  0.2294  0.7024
13470TIP3   OH261824   0.685   4.113  10.932  0.1526  0.0809 -0.3287
13470TIP3    H161825   0.593   4.110  10.955  0.0165 -0.3423 -0.8946
13470TIP3    H261826   0.686   4.104  10.836  0.8167 -0.9574 -0.2511
13471TIP3   OH261827   4.740   2.080  14.069  0.5747 -0.3750 -0.4248
13471TIP3    H161828   4.656   2.057  14.030  0.7884 -0.9257 -0.5763
13471TIP3    H261829   4.795   2.003  14.054  0.6019 -0.6903  1.1180
13472TIP3   OH261830   3.674   2.816   0.848  0.0905  0.3934  0.5647
13472TIP3    H161831   3.591   2.863   0.852 -0.4120 -0.5665  3.0932
13472TIP3    H261832   3.716   2.834   0.932  3.8221  3.0459 -1.5576
13473TIP3   OH261833   5.506   4.833   5.574 -0.1766  0.1365 -0.1052
13473TIP3    H161834   5.506   4.755   5.629 -1.6112  0.0349 -0.2220
13473TIP3    H261835   5.413   4.850   5.556  0.1384  1.5964 -0.4568
13474TIP3   OH261836   0.160   3.156   3.064 -0.6110  0.5489 -0.1824
13474TIP3    H161837   0.129   3.066   3.060 -0.7144  0.5175  0.8884
13474TIP3    H261838   0.227   3.156   3.133 -0.8294  1.3341  0.0473
13475TIP3   OH261839   3.873   5.909  14.232 -0.0121  0.2779  0.3267
13475TIP3    H161840   3.834   5.985  14.275  1.8380  0.4222  1.8813
13475TIP3    H261841   3.827   5.902  14.149 -0.6699  2.7023  0.4242
13476TIP3   OH261842   1.138   0.899   4.582 -0.0112  0.5259 -0.3153
13476TIP3    H161843   1.180   0.865   4.660  0.9212  0.1764 -0.9501
13476TIP3    H261844   1.153   0.993   4.585  0.1176  0.5001 -0.1264
13477TIP3   OH261845   1.396   2.350   3.528  0.4068  0.0390 -1.1616
13477TIP3    H161846   1.435   2.437   3.519 -1.3482  0.7931 -1.9740
13477TIP3    H261847   1.372   2.345   3.621  0.2251  0.5546 -1.1767
13478TIP3   OH261848   4.128   1.141   5.867 -0.2490 -0.9151 -0.1430
13478TIP3    H161849   4.141   1.173   5.956 -0.2485 -2.2954  0.3886
13478TIP3    H261850   4.157   1.050   5.871  1.7758 -0.4379 -2.0774
13479TIP3   OH261851   4.889   1.139  10.899  0.4839 -0.1807  0.5388
13479TIP3    H161852   4.930   1.132  10.813  0.4368 -0.3458  0.5293
13479TIP3    H261853   4.962   1.143  10.960  0.6634 -4.0606  0.8634
13480TIP3   OH261854   2.341   5.783  12.768  0.1553 -0.1321 -0.3098
13480TIP3    H161855   2.245   5.780  12.770  0.1121  1.1472  0.3893
13480TIP3    H261856   2.368   5.697  12.801 -0.7509 -0.4657 -0.4129
13481TIP3   OH261857   0.372   4.809  11.847 -0.0370 -0.7915  0.0949
13481TIP3    H161858   0.447   4.795  11.790 -0.1760 -2.6981  0.3088
13481TIP3    H261859   0.321   4.878  11.804  1.0998 -0.4782 -0.7831
13482TIP3   OH261860   2.439   2.769  12.331  0.8082  0.0315 -0.0123
13482TIP3    H161861   2.387   2.692  12.308 -0.0722  0.8128 -0.6981
13482TIP3    H261862   2.441   2.822  12.251 -1.3509  2.2655  1.2670
13483TIP3   OH261863   3.993   5.591  11.791 -0.4438  0.3690  0.1714
13483TIP3    H161864   4.052   5.524  11.757 -0.8690 -1.7643  3.1642
13483TIP3    H261865   3.942   5.619  11.715  0.4286 -2.0362 -1.4271
13484TIP3   OH261866   5.477   4.206  11.294  0.1295 -0.1764 -0.1138
13484TIP3    H161867   5.461   4.292  11.332  0.1750 -0.0831 -0.3071
13484TIP3    H261868   5.543   4.166  11.351  0.4197  0.0805 -0.2725
13485TIP3   OH261869   5.599   1.310  14.906 -0.1873  0.3561 -0.1783
13485TIP3    H161870   5.571   1.232  14.954 -0.3210  1.2199  1.1842
13485TIP3    H261871   5.684   1.286  14.868 -1.1344 -1.1173 -1.4762
13486TIP3   OH261872   6.157   5.927  16.363 -0.1952 -0.0247  0.5562
13486TIP3    H161873   6.242   5.963  16.387 -0.0237  0.5059 -0.7466
13486TIP3    H261874   6.094   5.985  16.405  0.0814  1.6638 -1.2149
13487TIP3   OH261875   4.200   0.329   4.614 -0.0219  0.2270 -0.5142
13487TIP3    H161876   4.231   0.270   4.545 -0.2313 -0.1911 -0.2580
13487TIP3    H261877   4.255   0.407   4.606  2.7289 -1.3394  1.3548
13488TIP3   OH261878   1.387   0.465   3.759 -0.0150 -0.0010 -0.3117
13488TIP3    H161879   1.347   0.520   3.826  0.9517 -1.7374  1.8141
13488TIP3    H261880   1.469   0.509   3.738  0.1852  0.0095  0.4685
13489TIP3   OH261881   1.517   0.562   1.606  0.4278 -0.1053 -0.3174
13489TIP3    H161882   1.597   0.610   1.586  0.9289 -0.4428  0.7824
13489TIP3    H261883   1.452   0.598   1.547  1.4552 -0.0303 -1.4434
13490TIP3   OH261884   1.845   0.303  10.820  0.1847  0.5152  0.2421
13490TIP3    H161885   1.806   0.236  10.763 -1.1969  1.6800 -0.2304
13490TIP3    H261886   1.927   0.326  10.776  0.9286 -1.1801  0.6631
13491TIP3   OH261887   6.539   6.495  14.091 -0.0798 -0.0498 -0.6781
13491TIP3    H161888   6.572   6.405  14.090  0.9224  0.2997 -0.7576
13491TIP3    H261889   6.474   6.498  14.021 -0.4070 -0.8101 -0.4154
13492TIP3   OH261890   0.386   0.392   1.835  0.2977 -0.0642 -0.3967
13492TIP3    H161891   0.302   0.360   1.868  0.5879 -0.4516 -0.0216
13492TIP3    H261892   0.401   0.474   1.882 -0.4735  0.6701 -1.3978
13493TIP3   OH261893   6.587   1.905  11.095 -0.0947  0.2952  0.0339
13493TIP3    H161894   6.590   1.848  11.172 -0.3890  2.0057  1.3710
13493TIP3    H261895   6.495   1.931  11.088 -0.1898 -0.2843 -1.2849
13494TIP3   OH261896   4.964   2.887   3.076 -0.2300  0.1804  0.4243
13494TIP3    H161897   4.948   2.796   3.100  1.9537 -0.3909 -0.0689
13494TIP3    H261898   5.012   2.881   2.993  0.3371  1.7685  0.6148
13495TIP3   OH261899   0.118   0.846  15.466 -0.0358 -0.6143  0.8167
13495TIP3    H161900   0.149   0.766  15.424 -0.7375 -1.0327  1.0749
13495TIP3    H261901   0.198   0.896  15.484  0.3630 -0.9905  0.1285
13496TIP3   OH261902   2.011   6.442   4.684 -0.9016  0.2702  0.6699
13496TIP3    H161903   2.015   6.382   4.759  0.7119  1.8798  1.9667
13496TIP3    H261904   1.976   6.523   4.720 -1.4599  0.6572 -0.6748
13497TIP3   OH261905   2.633   0.620   4.708 -0.4575 -0.3729  0.0281
13497TIP3    H161906   2.658   0.635   4.799 -0.2812 -0.7743  0.0431
13497TIP3    H261907   2.601   0.706   4.678  1.6010  0.3576 -0.2278
13498TIP3   OH261908   1.738   3.078  11.784  0.4538  0.3907 -0.2264
13498TIP3    H161909   1.652   3.044  11.760  0.3552 -1.0576  1.9379
13498TIP3    H261910   1.721   3.139  11.856  1.0723  1.7692 -1.2032
13499TIP3   OH261911   0.004   1.103   4.567  0.1174 -0.5663  0.4859
13499TIP3    H161912  -0.004   1.009   4.552 -2.4735 -0.2912 -0.2458
13499TIP3    H261913   0.047   1.136   4.489  0.0954 -1.0104  0.2823
13500TIP3   OH261914   0.953   5.702  15.381  0.1366  0.4592  0.1959
13500TIP3    H161915   1.021   5.718  15.446  2.1000 -0.5622 -1.4884
13500TIP3    H261916   0.919   5.616  15.403  1.8411 -0.5500 -0.9160
13501TIP3   OH261917   3.676   2.338   0.796 -0.0038  0.6711  0.4924
13501TIP3    H161918   3.648   2.407   0.735 -2.2304 -0.2523  0.3915
13501TIP3    H261919   3.632   2.360   0.878  0.4823  0.1923  0.8827
13502TIP3   OH261920   5.110   3.509  12.417 -0.1442 -0.1214  0.4115
13502TIP3    H161921   5.177   3.562  12.375 -1.3310  0.2194 -1.1569
13502TIP3    H261922   5.133   3.419  12.394  0.8128 -0.1779  1.4937
13503TIP3   OH261923   6.051   4.415   3.290 -0.3567 -0.3356 -0.3694
13503TIP3    H161924   6.005   4.353   3.234 -1.5978 -3.0971  3.3165
13503TIP3    H261925   5.990   4.488   3.300 -1.1955 -1.0033 -0.5288
13504TIP3   OH261926   5.612   6.104   1.549  0.0606 -0.5719 -0.4210
13504TIP3    H161927   5.600   6.095   1.455 -0.1832  0.2941 -0.4850
13504TIP3    H261928   5.662   6.185   1.559 -1.5403  0.3847  0.2664
13505TIP3   OH261929   5.075   3.712  14.384 -0.7032 -0.7405 -0.4382
13505TIP3    H161930   5.093   3.779  14.450 -1.6984 -0.4074 -0.4865
13505TIP3    H261931   5.142   3.726  14.317  0.2839 -1.0582  0.4700
13506TIP3   OH261932   5.129   3.312  15.687 -0.6969 -0.5389  0.5981
13506TIP3    H161933   5.102   3.238  15.634  0.4259 -0.8901  0.4765
13506TIP3    H261934   5.220   3.328  15.660 -0.8339  0.7042  0.8169
13507TIP3   OH261935   6.761   2.366   1.442  0.2210  0.0441  0.4936
13507TIP3    H161936   6.705   2.295   1.474 -0.5128  1.2665  2.0269
13507TIP3    H261937   6.759   2.432   1.512  1.2254  1.4014 -0.7019
13508TIP3   OH261938   1.038   2.919   0.945 -0.7271  0.4655 -0.0423
13508TIP3    H161939   1.053   2.830   0.979 -0.3390  0.6370  0.2517
13508TIP3    H261940   1.115   2.936   0.890 -1.6180 -0.0244 -1.4897
13509TIP3   OH261941   0.048   5.168   4.300  0.1276  0.3469  0.1017
13509TIP3    H161942   0.098   5.088   4.288 -1.4019 -0.3554 -2.4448
13509TIP3    H261943   0.095   5.234   4.248 -0.3260  0.2799 -0.3973
13510TIP3   OH261944   1.115   2.487  12.783  0.3675 -0.2089 -0.7727
13510TIP3    H161945   1.165   2.487  12.702 -0.2738  1.4793 -1.2146
13510TIP3    H261946   1.175   2.525  12.848 -0.0550  1.1325 -1.1370
13511TIP3   OH261947   4.651   0.980   0.496  0.3014 -0.4213  0.1640
13511TIP3    H161948   4.671   0.930   0.418 -1.3295 -0.9002  0.0259
13511TIP3    H261949   4.573   1.031   0.474  0.3591  0.1513  1.1764
13512TIP3   OH261950   6.693   5.842   4.126  0.5264 -0.9453 -0.7737
13512TIP3    H161951   6.622   5.894   4.087 -0.6387 -0.9147  1.2753
13512TIP3    H261952   6.712   5.775   4.060 -0.2809  0.0082 -2.0338
13513TIP3   OH261953   0.445   3.865   5.968 -0.3327  0.9591 -0.0541
13513TIP3    H161954   0.485   3.788   5.929  2.5048  1.9950  0.5961
13513TIP3    H261955   0.370   3.831   6.017  1.9775 -1.7342  1.8964
13514TIP3   OH261956   6.635   2.002  16.586 -0.6509  0.6095 -0.0871
13514TIP3    H161957   6.715   2.028  16.631  0.0895 -0.6792 -0.5939
13514TIP3    H261958   6.662   1.991  16.494 -1.1509 -0.8085 -0.0910
13515TIP3   OH261959   5.398   4.978  11.421 -0.1057  0.1268 -0.3058
13515TIP3    H161960   5.399   5.072  11.403  2.0825  0.0585 -0.8202
13515TIP3    H261961   5.389   4.972  11.516 -0.7348  0.8329 -0.3113
13516TIP3   OH261962   2.538   4.618  14.354 -0.2402  0.2023 -0.0384
13516TIP3    H161963   2.487   4.543  14.383  0.2483  0.2932  1.0958
13516TIP3    H261964   2.473   4.684  14.329 -0.6993 -1.0093 -2.2888
13517TIP3   OH261965   5.398   2.565  13.994  0.5526  0.5103  0.6515
13517TIP3    H161966   5.473   2.557  14.052  0.8015  0.9511  0.4015
13517TIP3    H261967   5.344   2.633  14.033  0.1006 -0.0476  1.0178
13518TIP3   OH261968   4.112   4.122   6.648 -0.5213 -0.0118 -0.4983
13518TIP3    H161969   4.166   4.191   6.687 -0.5855  0.4520 -1.2229
13518TIP3    H261970   4.024   4.159   6.643 -0.4372  0.0725 -1.4238
13519TIP3   OH261971   0.222   0.192   0.537 -0.2114  0.5179  0.5445
13519TIP3    H161972   0.179   0.195   0.622 -0.9471  1.0514  0.1594
13519TIP3    H261973   0.173   0.253   0.482 -1.6166 -1.9542 -1.1347
13520TIP3   OH261974   1.539   1.225  13.600 -0.1498 -0.1049  0.3204
13520TIP3    H161975   1.620   1.276  13.590 -0.0339 -0.0317  1.4436
13520TIP3    H261976   1.542   1.161  13.530  1.3358 -0.6800  0.8639
13521TIP3   OH261977   3.856   1.590  14.035 -0.1631  0.0848 -0.2523
13521TIP3    H161978   3.876   1.588  13.942  0.7475  1.0738 -0.0937
13521TIP3    H261979   3.921   1.650  14.073 -0.7654  0.0127  0.9558
13522TIP3   OH261980   3.024   6.390   4.613  0.6770  0.1290  0.2768
13522TIP3    H161981   3.118   6.374   4.602  0.9987  1.5655  0.7635
13522TIP3    H261982   3.014   6.419   4.703  0.2940  3.1791 -0.6342
13523TIP3   OH261983   0.145   2.257   0.756  0.6110 -0.6675 -0.5209
13523TIP3    H161984   0.123   2.272   0.664 -0.9554  0.4702  0.0040
13523TIP3    H261985   0.239   2.273   0.761  0.2331  2.3047 -1.3811
13524TIP3   OH261986   2.526   2.484   1.846 -0.6292  0.1073  0.0649
13524TIP3    H161987   2.513   2.547   1.917 -0.4130  0.2092  0.0148
13524TIP3    H261988   2.461   2.508   1.780 -0.3076  0.5057 -0.1095
13525TIP3   OH261989   5.287   6.480  15.790  0.2397 -0.4303  0.0534
13525TIP3    H161990   5.204   6.527  15.779  0.2625 -0.1188  1.0954
13525TIP3    H261991   5.319   6.467  15.701  1.4152  3.6478 -0.3487
13526TIP3   OH261992   5.858   1.974  15.839 -0.3449  0.1124  0.0422
13526TIP3    H161993   5.881   1.970  15.746  0.4889 -1.2872  0.2917
13526TIP3    H261994   5.922   1.918  15.883 -2.0658 -1.0394  1.1945
13527TIP3   OH261995   3.427   0.966   2.675 -0.0980 -0.1535 -0.4894
13527TIP3    H161996   3.402   0.875   2.685  0.3338 -0.1642  0.6184
13527TIP3    H261997   3.520   0.964   2.656  0.2797  0.0878  1.1540
13528TIP3   OH261998   3.873   0.673   6.109  0.5933  0.2857  0.3880
13528TIP3    H161999   3.780   0.661   6.128  0.7381 -0.1226  0.9026
13528TIP3    H262000   3.881   0.762   6.075  0.1198  0.5943  1.0721
13529TIP3   OH262001   1.540   3.432  14.155  0.4180 -0.7479  0.6291
13529TIP3    H162002   1.508   3.379  14.227  0.0520 -0.5705  0.5986
13529TIP3    H262003   1.498   3.517  14.166  1.2714 -0.3443  0.8801
13530TIP3   OH262004   0.363   4.714  10.624  0.2035  0.1762 -0.1531
13530TIP3    H162005   0.281   4.763  10.613  0.5854  0.6685 -0.8947
13530TIP3    H262006   0.375   4.670  10.540  2.9634  3.6418 -1.8258
13531TIP3   OH262007   4.021   6.179   3.034  1.0559 -0.1553  0.1195
13531TIP3    H162008   3.952   6.230   2.992  0.1362 -0.9166  0.6805
13531TIP3    H262009   4.100   6.200   2.984 -0.3119 -2.7025 -3.5239
13532TIP3   OH262010   5.619   5.311   3.200  0.3522  0.4287  0.0123
13532TIP3    H162011   5.554   5.378   3.179 -0.5535 -0.3162  0.3782
13532TIP3    H262012   5.582   5.264   3.274 -0.2953 -2.1631 -1.8451
13533TIP3   OH262013   2.622   3.918  14.841 -0.3026  0.4194  0.3812
13533TIP3    H162014   2.595   4.008  14.823  0.0146  0.8245  1.8331
13533TIP3    H262015   2.630   3.913  14.936 -0.3959 -1.1793  0.3393
13534TIP3   OH262016   2.355   5.316  15.405  0.1439 -0.1346 -0.1516
13534TIP3    H162017   2.403   5.292  15.484  0.4072  0.4848 -0.1146
13534TIP3    H262018   2.296   5.386  15.432  1.1122  0.9561 -0.7319
13535TIP3   OH262019   1.383   5.413   3.747  0.3160  0.3090 -0.2903
13535TIP3    H162020   1.318   5.353   3.784  0.8428 -0.6761 -0.9249
13535TIP3    H262021   1.332   5.468   3.687 -0.1566  0.4655  0.2358
13536TIP3   OH262022   2.492   1.951   6.225 -0.3850 -0.7204 -0.1393
13536TIP3    H162023   2.443   2.025   6.260  0.7372 -0.1738  0.3435
13536TIP3    H262024   2.581   1.986   6.211 -0.2837 -1.4791 -1.6270
13537TIP3   OH262025   1.162   1.648   1.543  0.1341  0.1800  0.4507
13537TIP3    H162026   1.143   1.645   1.449  0.4736 -0.1384  0.3905
13537TIP3    H262027   1.095   1.707   1.579 -0.5378 -0.3766  0.1380
13538TIP3   OH262028   5.701   4.285  11.688 -0.3804  0.0865 -0.3539
13538TIP3    H162029   5.692   4.191  11.703 -0.8899  0.0700 -0.7520
13538TIP3    H262030   5.775   4.311  11.743 -0.6227 -0.4334  0.2215
13539TIP3   OH262031   5.878   2.317   4.191 -0.8067  0.6278  0.4782
13539TIP3    H162032   5.941   2.307   4.120 -2.0882  1.0727 -0.7643
13539TIP3    H262033   5.930   2.349   4.265  0.6193 -0.2424 -0.1112
13540TIP3   OH262034   0.272   1.119   5.546 -0.0200  0.1573  0.2373
13540TIP3    H162035   0.329   1.042   5.549 -1.1787 -0.8832 -2.1397
13540TIP3    H262036   0.184   1.084   5.561 -0.3977  1.2842  0.7402
13541TIP3   OH262037   5.981   1.089  16.331 -0.1980  0.4714  0.0718
13541TIP3    H162038   5.916   1.134  16.385  0.5180  0.5808  0.8632
13541TIP3    H262039   5.932   1.056  16.256 -1.0281  1.1995  0.2794
13542TIP3   OH262040   3.895   3.252   2.540  0.3141 -0.1444 -0.3946
13542TIP3    H162041   3.916   3.284   2.453  0.6078  0.2052 -0.1953
13542TIP3    H262042   3.974   3.266   2.591  0.1654 -0.4059 -0.0843
13543TIP3   OH262043   4.601   2.368  14.948  0.3676 -0.1436 -0.0991
13543TIP3    H162044   4.553   2.450  14.939  0.2413 -0.2500 -0.3866
13543TIP3    H262045   4.543   2.302  14.911 -0.4172 -0.6817  1.9151
13544TIP3   OH262046   5.437   6.206  16.466 -0.3138 -0.2327  0.4557
13544TIP3    H162047   5.428   6.194  16.371 -0.8106 -1.0411  0.5948
13544TIP3    H262048   5.371   6.273  16.488 -1.4137 -1.2793  0.4672
13545TIP3   OH262049   1.651   5.125   2.519 -0.7450 -0.5152 -0.2830
13545TIP3    H162050   1.578   5.064   2.529 -0.5127 -0.9248 -1.0337
13545TIP3    H262051   1.728   5.069   2.507 -0.4324 -0.0803 -0.3358
13546TIP3   OH262052   1.728   6.270   4.641  0.2144  0.3191 -0.2353
13546TIP3    H162053   1.677   6.192   4.663  0.6765  0.2665  0.7234
13546TIP3    H262054   1.815   6.236   4.619  1.0920  0.6652  2.3812
13547TIP3   OH262055   3.348   1.378  13.721 -0.1934  0.3949 -0.0706
13547TIP3    H162056   3.292   1.397  13.796 -0.6566 -0.9618 -0.0391
13547TIP3    H262057   3.437   1.380  13.757 -0.3767  0.2430  0.4055
13548TIP3   OH262058   3.919   5.918   1.673 -0.2199 -0.6075  0.4080
13548TIP3    H162059   3.889   5.999   1.631  0.4677 -0.5896 -0.0712
13548TIP3    H262060   3.845   5.858   1.663 -0.2710 -0.4336 -0.3697
13549TIP3   OH262061   5.379   5.830   2.187 -1.0093 -0.5351  0.3062
13549TIP3    H162062   5.390   5.757   2.126  0.8679 -0.7931  0.8791
13549TIP3    H262063   5.418   5.798   2.269 -0.3706  1.0227  0.6384
13550TIP3   OH262064   4.484   5.619   0.124 -0.6368  0.1047  0.5755
13550TIP3    H162065   4.438   5.680   0.066 -0.4396 -0.1401  0.1582
13550TIP3    H262066   4.461   5.532   0.092 -0.5264 -0.0329  0.8615
13551TIP3   OH262067   3.556   5.534  11.485 -0.5854  0.3360  0.0948
13551TIP3    H162068   3.642   5.523  11.443 -0.7794  0.7982 -0.4471
13551TIP3    H262069   3.493   5.507  11.418 -0.9390  1.9105 -0.2631
13552TIP3   OH262070   2.716   6.433  15.966 -0.4158 -0.1578 -0.4840
13552TIP3    H162071   2.802   6.467  15.991  0.5847 -2.4545 -0.6259
13552TIP3    H262072   2.733   6.344  15.935 -3.0512 -1.3251  1.1349
13553TIP3   OH262073   6.320   3.078   3.197 -0.2738 -0.1630  0.1208
13553TIP3    H162074   6.383   3.011   3.222 -0.2807 -0.6656 -1.1172
13553TIP3    H262075   6.251   3.072   3.262  0.3890 -0.4089  0.8109
13554TIP3   OH262076   2.685   1.151  12.040 -0.5228 -0.1124  0.2402
13554TIP3    H162077   2.620   1.083  12.055 -0.5005 -0.3434 -0.6562
13554TIP3    H262078   2.696   1.154  11.945  1.1959 -0.4711  0.3863
13555TIP3   OH262079   4.076   1.984   4.193  0.0834 -0.1705 -0.4269
13555TIP3    H162080   4.106   1.971   4.283  0.4377  0.0634 -0.5044
13555TIP3    H262081   4.134   2.053   4.160 -0.1358 -0.1628 -0.7887
13556TIP3   OH262082   2.618   5.857   5.193 -0.1593 -0.1493 -0.3160
13556TIP3    H162083   2.591   5.807   5.116  1.3346 -1.2291 -0.1653
13556TIP3    H262084   2.641   5.943   5.158 -0.6464 -0.2393 -0.8879
13557TIP3   OH262085   0.615   4.369   2.734  0.1092  0.0365 -0.1852
13557TIP3    H162086   0.698   4.414   2.717 -0.1148  0.1425 -1.0507
13557TIP3    H262087   0.617   4.349   2.828  1.6856 -1.1164 -0.4196
13558TIP3   OH262088   3.910   0.761  16.506 -0.1352 -0.4315 -0.1980
13558TIP3    H162089   3.998   0.791  16.529 -0.2250  0.4478 -0.9199
13558TIP3    H262090   3.894   0.798  16.419 -1.5952  0.2740  0.3246
13559TIP3   OH262091   3.123   1.860   2.105 -0.2164 -0.6993 -0.0149
13559TIP3    H162092   3.112   1.835   2.014 -1.9194 -0.4844  0.0974
13559TIP3    H262093   3.158   1.949   2.101 -1.8847 -0.0226 -0.5166
13560TIP3   OH262094   5.782   5.151   5.808 -0.5135  0.6087 -0.4733
13560TIP3    H162095   5.825   5.073   5.773 -0.4718  0.0944  0.6641
13560TIP3    H262096   5.846   5.189   5.869  0.2908  2.7277 -2.4743
13561TIP3   OH262097   0.864   1.839   3.660  0.1291 -0.7067 -0.6454
13561TIP3    H162098   0.873   1.810   3.751 -1.9090  0.2511 -0.0676
13561TIP3    H262099   0.927   1.786   3.611  2.4390 -0.1107  1.5168
13562TIP3   OH262100   6.163   2.964   3.393  0.4145 -0.6303 -0.1463
13562TIP3    H162101   6.096   2.898   3.373 -0.8325  0.0401  1.5267
13562TIP3    H262102   6.235   2.915   3.432 -0.1422 -1.1125  0.2934
13563TIP3   OH262103   3.255   6.172   0.346  0.3419 -0.4917 -0.2249
13563TIP3    H162104   3.172   6.183   0.300  0.0125  0.1263  0.4951
13563TIP3    H262105   3.261   6.078   0.364 -1.8649 -0.2139  2.6778
13564TIP3   OH262106   5.264   5.097   1.891 -0.1600 -0.0799 -0.6120
13564TIP3    H162107   5.169   5.102   1.903 -0.0238 -0.7406  0.9498
13564TIP3    H262108   5.295   5.184   1.915 -0.3129 -0.0806 -0.4023
13565TIP3   OH262109   5.368   6.190   2.845 -0.0682  0.1919 -0.2678
13565TIP3    H162110   5.286   6.234   2.827  0.0729  0.2123 -0.8833
13565TIP3    H262111   5.436   6.249   2.812  0.1723 -0.0059 -0.1401
13566TIP3   OH262112   2.417   4.812  15.060  0.2872 -0.4995  0.2215
13566TIP3    H162113   2.483   4.791  14.994 -1.0470 -0.9420 -1.0526
13566TIP3    H262114   2.408   4.907  15.057  0.1584 -0.5256 -0.3432
13567TIP3   OH262115   4.414   0.560  15.047  0.0991  0.3303  0.3574
13567TIP3    H162116   4.444   0.649  15.029 -0.1472  0.3152 -0.1201
13567TIP3    H262117   4.495   0.511  15.064  0.2642  0.5468  0.2046
13568TIP3   OH262118   1.934   0.592   3.015 -0.3912 -0.6699 -0.4794
13568TIP3    H162119   1.899   0.604   2.926 -0.5471  0.4462 -0.2796
13568TIP3    H262120   1.869   0.536   3.058 -0.2094 -1.3883 -1.1297
13569TIP3   OH262121   6.261   6.229  13.635 -0.0950  0.5075  0.3958
13569TIP3    H162122   6.246   6.321  13.655 -1.4224  0.1639  1.1423
13569TIP3    H262123   6.173   6.190  13.640  0.3497 -0.6653 -0.5705
13570TIP3   OH262124   1.830   3.183  16.796 -0.3523  0.4754 -0.0881
13570TIP3    H162125   1.854   3.094  16.821 -1.0896  0.2919 -0.0192
13570TIP3    H262126   1.896   3.239  16.838  1.1332 -0.1344 -1.5044
13571TIP3   OH262127   1.197   5.754   0.457 -0.3674  0.6642 -0.1352
13571TIP3    H162128   1.213   5.802   0.376 -3.3721  1.6812 -0.2318
13571TIP3    H262129   1.199   5.821   0.526 -0.7286  0.2918  0.2437
13572TIP3   OH262130   0.878   5.334   4.607  0.4560 -0.1462 -0.2729
13572TIP3    H162131   0.813   5.386   4.559 -1.8126 -1.8255  0.8016
13572TIP3    H262132   0.853   5.344   4.699  0.4384 -2.4420  0.0173
13573TIP3   OH262133   3.442   4.312  14.273  0.7442 -0.0763 -0.0589
13573TIP3    H162134   3.357   4.323  14.230  1.0205  0.2158 -0.5366
13573TIP3    H262135   3.481   4.400  14.270  0.4181  0.1495  1.5308
13574TIP3   OH262136   1.259   1.084   0.634 -0.3173 -0.8018 -0.4809
13574TIP3    H162137   1.322   1.154   0.648  0.1515 -1.0088 -1.5392
13574TIP3    H262138   1.203   1.088   0.712 -0.4179  0.8524 -0.5923
13575TIP3   OH262139   1.632   2.463  11.462  0.4449 -0.5469  0.5954
13575TIP3    H162140   1.651   2.370  11.451 -1.4212 -0.8241 -0.8389
13575TIP3    H262141   1.638   2.499  11.373  0.7885  0.6522  1.0809
13576TIP3   OH262142   0.543   5.012  12.693 -0.2421  0.0843 -0.6379
13576TIP3    H162143   0.477   4.966  12.641  0.0778  0.8902 -1.7865
13576TIP3    H262144   0.530   5.105  12.673  1.0701  0.2740 -0.6901
13577TIP3   OH262145   6.048   0.503   4.566  0.5133 -0.7407  0.2050
13577TIP3    H162146   5.982   0.435   4.577 -0.7243  0.4328  0.3229
13577TIP3    H262147   6.078   0.493   4.476  1.2725 -2.2027  0.5847
13578TIP3   OH262148   5.129   3.539  11.559 -0.6152 -0.4655  0.1723
13578TIP3    H162149   5.190   3.531  11.485  0.3273 -0.5023  0.9285
13578TIP3    H262150   5.086   3.623  11.545  2.1424  1.2926  1.4093
13579TIP3   OH262151   3.072   5.740   3.240  0.1199  0.0708 -0.1367
13579TIP3    H162152   3.085   5.783   3.324  0.2681  2.0838 -1.1412
13579TIP3    H262153   3.014   5.799   3.191 -1.7874 -2.1015 -0.7049
13580TIP3   OH262154   1.137   3.433  14.626  0.2534  0.6208  0.0424
13580TIP3    H162155   1.116   3.341  14.612  2.1279  0.0644  0.6205
13580TIP3    H262156   1.221   3.446  14.583 -0.4716  2.3692 -0.9620
13581TIP3   OH262157   3.661   4.598  11.485 -0.1072 -0.0173 -0.2271
13581TIP3    H162158   3.609   4.569  11.560  0.1226 -2.0564 -0.8202
13581TIP3    H262159   3.720   4.526  11.466  0.2356  0.6718 -2.0405
13582TIP3   OH262160   6.128   5.472  16.458 -0.0260  0.2765  0.8136
13582TIP3    H162161   6.037   5.500  16.462 -0.0807  0.3638 -0.6354
13582TIP3    H262162   6.167   5.528  16.391  0.5565 -1.2079 -0.1377
13583TIP3   OH262163   5.997   4.858  11.992  0.2149 -0.0616 -0.3871
13583TIP3    H162164   5.919   4.810  12.021  0.7446 -2.0090 -1.9758
13583TIP3    H262165   5.969   4.902  11.912  0.3095  0.5879 -0.0656
13584TIP3   OH262166   0.467   1.320   0.107 -0.1396 -0.6099  0.9783
13584TIP3    H162167   0.544   1.264   0.119  0.0878 -0.3605  0.6951
13584TIP3    H262168   0.436   1.338   0.196  1.4286  1.0921  1.2369
13585TIP3   OH262169   3.462   0.427  16.042  0.3624  0.4463  0.5407
13585TIP3    H162170   3.540   0.425  15.986 -0.1978  0.5384 -0.2665
13585TIP3    H262171   3.467   0.512  16.087  0.0344  1.0645 -0.5474
13586TIP3   OH262172   1.768   2.816   1.969  0.3994  0.0453  0.4632
13586TIP3    H162173   1.768   2.911   1.961 -2.2984  0.0856  0.0589
13586TIP3    H262174   1.847   2.796   2.018  2.8591  2.1835 -2.2627
13587TIP3   OH262175   4.626   2.156   1.855 -0.1301  0.4411  1.0896
13587TIP3    H162176   4.625   2.079   1.912 -0.2055 -0.4473 -0.0879
13587TIP3    H262177   4.541   2.155   1.812  0.6954 -0.1261 -0.6149
13588TIP3   OH262178   5.947   1.378  13.051 -0.0298  0.0809 -0.1845
13588TIP3    H162179   5.867   1.326  13.041  0.4532 -0.5033 -1.2497
13588TIP3    H262180   5.985   1.379  12.963  0.9989  0.5576  0.2580
13589TIP3   OH262181   4.576   3.583   4.093 -0.2533 -0.2956 -0.2376
13589TIP3    H162182   4.526   3.539   4.024  0.0288 -1.6532  0.3914
13589TIP3    H262183   4.550   3.539   4.174  1.3345 -0.5084  0.2058
13590TIP3   OH262184   6.125   2.882  14.513 -0.0475 -0.0599  0.3239
13590TIP3    H162185   6.195   2.948  14.507  0.2015 -0.3793 -0.3724
13590TIP3    H262186   6.063   2.920  14.575  0.0456  0.8846 -0.1366
13591TIP3   OH262187   2.663   0.077   1.693  0.1007 -0.3132 -0.0888
13591TIP3    H162188   2.569   0.077   1.676 -0.4379  0.1414  2.5047
13591TIP3    H262189   2.699   0.139   1.629 -1.2604 -0.8961 -1.4639
13592TIP3   OH262190   3.176   4.651   2.850  0.5045 -0.1232  0.0467
13592TIP3    H162191   3.237   4.602   2.796 -0.6439 -1.2474 -0.2649
13592TIP3    H262192   3.163   4.596   2.928 -0.6223 -0.2303 -0.2030
13593TIP3   OH262193   6.405   0.456   2.169  0.4799  0.0591 -0.6838
13593TIP3    H162194   6.351   0.519   2.215 -0.4610 -0.7806 -0.6090
13593TIP3    H262195   6.355   0.434   2.090 -0.4184 -2.4071  0.4806
13594TIP3   OH262196   0.617   2.937   2.790 -0.5952 -0.1716  0.5091
13594TIP3    H162197   0.545   2.974   2.842 -0.8155  0.5628 -0.2959
13594TIP3    H262198   0.574   2.906   2.710  0.1791  1.8495 -0.7647
13595TIP3   OH262199   6.694   6.342   4.000  0.5001  0.1071  0.4681
13595TIP3    H162200   6.624   6.307   3.946  0.0537  1.8021 -0.1075
13595TIP3    H262201   6.685   6.297   4.084 -0.8174 -0.2108  0.1710
13596TIP3   OH262202   2.806   6.696   0.073  0.3338 -0.0146  0.8857
13596TIP3    H162203   2.875   6.631   0.062 -1.0893 -1.8829  2.1695
13596TIP3    H262204   2.849   6.780   0.061  2.3999 -1.1479 -0.2532
13597TIP3   OH262205   5.448   1.143   1.869  0.2316 -0.3270  0.0491
13597TIP3    H162206   5.381   1.137   1.937  0.8262  0.5457  0.7441
13597TIP3    H262207   5.401   1.136   1.787 -0.5297 -1.2218  0.5441
13598TIP3   OH262208   6.330   2.536   0.866  0.1226  0.1393  0.2747
13598TIP3    H162209   6.235   2.540   0.880  0.0116  0.1446 -0.4619
13598TIP3    H262210   6.362   2.482   0.938 -0.7214 -1.9376 -0.8118
13599TIP3   OH262211   4.135   5.837  13.444 -0.2483  0.2281 -0.1668
13599TIP3    H162212   4.053   5.789  13.446 -0.5702  0.7371 -0.8605
13599TIP3    H262213   4.185   5.802  13.518 -1.1930  0.1129  0.4347
13600TIP3   OH262214   1.703   6.792  15.091  0.2791 -0.1476 -0.2545
13600TIP3    H162215   1.728   6.849  15.018  1.0201 -0.4176 -0.2207
13600TIP3    H262216   1.626   6.745  15.060  1.0226 -0.8068 -1.1544
13601TIP3   OH262217   4.250   2.151   6.668 -0.0715  0.1978  0.1391
13601TIP3    H162218   4.341   2.168   6.647  0.4568 -1.9014  0.4940
13601TIP3    H262219   4.201   2.184   6.592  0.8667  2.0368  0.2808
13602TIP3   OH262220   1.329   1.371  13.799  0.0868  0.9260 -0.2285
13602TIP3    H162221   1.357   1.307  13.733 -0.2817  0.0472  0.4607
13602TIP3    H262222   1.298   1.446  13.747  1.4547  0.9751 -1.0363
13603TIP3   OH262223   3.249   4.101  12.347 -0.0090 -0.1760  0.2953
13603TIP3    H162224   3.288   4.024  12.306 -2.8512 -0.5266 -2.0734
13603TIP3    H262225   3.317   4.134  12.405  2.4333 -2.6696 -0.9139
13604TIP3   OH262226   6.198   1.634   6.571  0.7959 -0.0647  0.1607
13604TIP3    H162227   6.170   1.639   6.663  0.9632 -1.7009  0.3288
13604TIP3    H262228   6.243   1.549   6.564 -0.5634 -0.6809 -1.7911
13605TIP3   OH262229   1.435   4.068  13.690  0.1465 -0.3334  0.4184
13605TIP3    H162230   1.495   4.142  13.686 -0.6915  0.3550  0.4787
13605TIP3    H262231   1.425   4.040  13.599  0.6430 -0.5287  0.4189
13606TIP3   OH262232   4.428   2.095   0.294 -1.0519  0.4600 -0.6647
13606TIP3    H162233   4.507   2.115   0.345 -0.7505 -1.3790 -0.3560
13606TIP3    H262234   4.364   2.160   0.323 -0.4514  0.3479  1.0301
13607TIP3   OH262235   0.624   0.040   2.601 -0.4894 -0.0157 -0.6973
13607TIP3    H162236   0.636  -0.055   2.608  0.4005  0.0393 -1.2862
13607TIP3    H262237   0.614   0.056   2.508 -0.2884  0.5004 -0.6329
13608TIP3   OH262238   5.783   2.745  11.614  0.2910 -0.3809  0.3730
13608TIP3    H162239   5.699   2.771  11.652 -0.8213 -0.2228 -2.0011
13608TIP3    H262240   5.760   2.680  11.548  2.2917 -1.8578  1.0576
13609TIP3   OH262241   2.846   5.393   1.393 -0.3289  0.0523  0.4904
13609TIP3    H162242   2.928   5.372   1.349 -0.7188  1.1214 -0.8172
13609TIP3    H262243   2.786   5.323   1.367 -0.1087 -0.1923  0.6400
13610TIP3   OH262244   4.647   2.820  11.202  0.0298 -0.1287  0.2931
13610TIP3    H162245   4.733   2.810  11.161  1.6011 -1.0994  3.4870
13610TIP3    H262246   4.615   2.904  11.170  1.9238  0.0313 -1.3696
13611TIP3   OH262247   0.681   0.765  15.583  0.2321  0.3186 -0.1656
13611TIP3    H162248   0.587   0.753  15.577  0.0331  1.5575  0.1171
13611TIP3    H262249   0.710   0.777  15.492  0.2932 -1.0425 -0.3545
13612TIP3   OH262250   4.006   0.372  14.206 -0.0524  0.7881  0.4612
13612TIP3    H162251   4.094   0.335  14.203 -1.0329 -1.7178 -1.0507
13612TIP3    H262252   3.972   0.345  14.292  0.8048  2.3430  1.3368
13613TIP3   OH262253   3.054   3.429   4.979  0.1091  0.2047  0.7516
13613TIP3    H162254   3.136   3.470   5.006  1.4385 -1.2942 -0.8078
13613TIP3    H262255   3.011   3.494   4.924  1.2493  0.2676 -0.0925
13614TIP3   OH262256   2.091   3.398   6.349 -0.0990 -0.1360  0.0949
13614TIP3    H162257   2.061   3.443   6.428 -0.6084 -0.7480  0.2532
13614TIP3    H262258   2.025   3.331   6.333  0.8935 -1.1477  0.1281
13615TIP3   OH262259   6.599   1.441  14.125  0.3141 -0.3328 -0.1414
13615TIP3    H162260   6.666   1.467  14.061 -0.3985  2.4058  0.0686
13615TIP3    H262261   6.649   1.411  14.200  1.4470  2.0470  0.1682
13616TIP3   OH262262   3.895   3.032  15.363 -0.1347  0.7416 -0.0938
13616TIP3    H162263   3.868   2.944  15.338  0.3279  0.4294  0.4600
13616TIP3    H262264   3.983   3.043  15.325  0.3679  0.4466  0.9382
13617TIP3   OH262265   5.919   4.698   4.566 -0.0865 -0.0251 -0.9088
13617TIP3    H162266   5.831   4.734   4.552 -0.1900  1.2713  2.2483
13617TIP3    H262267   5.976   4.753   4.513 -1.0284 -0.1115 -2.0636
13618TIP3   OH262268   2.984   5.594   2.156  0.5025  0.0557  0.4403
13618TIP3    H162269   3.028   5.551   2.229  0.2591  0.8991  1.0984
13618TIP3    H262270   2.993   5.533   2.083  3.1425  0.3730  0.4222
13619TIP3   OH262271   6.056   0.695   1.164 -0.1444 -0.2788 -0.0791
13619TIP3    H162272   6.096   0.662   1.083  0.4016  0.2395 -0.0287
13619TIP3    H262273   6.008   0.773   1.136  1.1600  0.6970  0.2916
13620TIP3   OH262274   5.152   0.253   6.624  0.0221  0.7080  0.0873
13620TIP3    H162275   5.237   0.224   6.656 -0.9759 -0.1409  2.1260
13620TIP3    H262276   5.092   0.182   6.646 -1.5250  2.0128  0.3135
13621TIP3   OH262277   5.779   1.000  11.374  0.3303 -0.1415 -0.0721
13621TIP3    H162278   5.860   1.020  11.421 -1.0586  4.2141  0.9631
13621TIP3    H262279   5.712   0.996  11.443 -0.9861  1.3578 -1.1817
13622TIP3   OH262280   2.391   0.976   1.346 -0.2528  0.6512  0.0018
13622TIP3    H162281   2.405   1.057   1.297  0.8104 -0.0980 -0.9788
13622TIP3    H262282   2.444   0.910   1.301  0.9672 -0.0483  2.2664
13623TIP3   OH262283   1.111   1.745  12.937  0.6102  0.2784 -0.2003
13623TIP3    H162284   1.091   1.711  12.849 -0.9920 -1.7054  0.8422
13623TIP3    H262285   1.198   1.712  12.955  0.6047 -0.0424 -0.7155
13624TIP3   OH262286   4.994   0.435  16.282 -0.4062  0.0842 -0.2980
13624TIP3    H162287   5.079   0.459  16.317 -0.6471 -0.7430  0.9361
13624TIP3    H262288   5.002   0.447  16.187  0.9767  0.2919 -0.1715
13625TIP3   OH262289   3.173   4.344  13.438  0.0883 -0.3449  0.2806
13625TIP3    H162290   3.195   4.337  13.531 -1.4554 -1.9749  0.5643
13625TIP3    H262291   3.177   4.255  13.405 -0.7355  0.0245 -0.8923
13626TIP3   OH262292   1.161   2.313  13.893  0.1532 -0.9754 -1.0516
13626TIP3    H162293   1.067   2.329  13.893  0.0784 -1.4000 -0.8140
13626TIP3    H262294   1.199   2.389  13.937  0.0408 -0.1543 -2.3428
13627TIP3   OH262295   3.597   3.452  14.518 -0.0250  0.0480  0.5275
13627TIP3    H162296   3.535   3.403  14.572 -1.7173  0.8165 -0.6168
13627TIP3    H262297   3.557   3.539  14.508  1.2141  0.5549 -0.3183
13628TIP3   OH262298   2.933   1.059   6.191 -0.3253  0.5658  0.0184
13628TIP3    H162299   2.879   1.130   6.225 -0.1319  0.8659 -0.3000
13628TIP3    H262300   3.022   1.094   6.190 -0.2522  0.3778 -0.2980
13629TIP3   OH262301   6.050   4.652  14.035 -0.5215  0.0242  0.7017
13629TIP3    H162302   5.975   4.676  13.982  0.0882  0.1625 -0.1140
13629TIP3    H262303   6.018   4.656  14.125 -1.3806  0.4494  0.3870
13630TIP3   OH262304   0.057   2.022   0.899  0.8037 -0.0661 -0.2453
13630TIP3    H162305   0.127   2.069   0.854  0.6726  1.1260  0.7397
13630TIP3    H262306   0.082   2.026   0.992 -0.4309  0.1615  0.0913
13631TIP3   OH262307   5.295   1.311  15.686  0.2358 -0.3680 -0.2698
13631TIP3    H162308   5.203   1.286  15.678 -0.1419  1.0256 -0.6456
13631TIP3    H262309   5.341   1.255  15.624 -0.3024 -1.2885  0.1351
13632TIP3   OH262310   2.409   3.107  15.660  0.3289 -0.6120 -0.3618
13632TIP3    H162311   2.458   3.030  15.691 -1.2597 -0.9612  1.4594
13632TIP3    H262312   2.407   3.166  15.736 -1.3385 -0.2526 -0.6554
13633TIP3   OH262313   3.461   0.271   5.053  0.0858 -0.2444  0.1940
13633TIP3    H162314   3.486   0.202   4.991 -0.8710 -0.5282  0.1104
13633TIP3    H262315   3.385   0.312   5.012  0.3034  0.4974  0.5189
13634TIP3   OH262316   6.336   2.510  11.157  0.1182 -0.0289  0.5566
13634TIP3    H162317   6.403   2.573  11.129  0.3535 -0.7462 -0.5811
13634TIP3    H262318   6.254   2.547  11.124  0.0194  0.5542  1.4343
13635TIP3   OH262319   2.358   4.915   5.580 -0.0983  0.2787  0.4204
13635TIP3    H162320   2.283   4.867   5.614  0.4135  0.2262  1.5029
13635TIP3    H262321   2.423   4.912   5.650 -0.1965  2.8980  0.7586
13636TIP3   OH262322   5.416   0.411  11.118 -0.2753 -0.3112  0.0257
13636TIP3    H162323   5.394   0.319  11.104 -0.3343 -0.3884  0.6017
13636TIP3    H262324   5.341   0.459  11.085  0.5384 -0.3715 -2.0168
13637TIP3   OH262325   0.165   4.041   5.433 -0.3506  0.5199  0.2676
13637TIP3    H162326   0.244   4.093   5.447 -1.2911  1.9013  0.5951
13637TIP3    H262327   0.097   4.085   5.484 -1.5373 -0.1538 -0.6697
13638TIP3   OH262328   5.579   3.233   0.684  0.5603 -0.3961  0.4997
13638TIP3    H162329   5.602   3.156   0.735 -0.3096 -0.0461  1.4546
13638TIP3    H262330   5.498   3.209   0.639  1.8102 -1.0539 -1.5663
13639TIP3   OH262331   1.519   3.251   5.609 -0.0345  0.1119  0.2448
13639TIP3    H162332   1.506   3.309   5.685  0.3227 -0.8391  1.0634
13639TIP3    H262333   1.582   3.298   5.554  0.6311  0.3012  1.1335
13640TIP3   OH262334   5.625   2.288   3.250  0.5098 -0.7054  0.0826
13640TIP3    H162335   5.712   2.275   3.213  1.2406  1.4769  0.8613
13640TIP3    H262336   5.638   2.289   3.345 -0.5105 -1.1588  0.2423
13641TIP3   OH262337   4.028   5.692   2.886 -0.1079 -0.0726 -0.2163
13641TIP3    H162338   4.027   5.750   2.962  1.6521  0.0459 -0.2385
13641TIP3    H262339   3.963   5.625   2.906 -1.8780  1.6307 -0.0044
13642TIP3   OH262340   4.234   0.588  13.339  0.4779 -0.3074  0.5844
13642TIP3    H162341   4.205   0.499  13.320  2.5441 -1.1779  1.2298
13642TIP3    H262342   4.154   0.635  13.363 -0.3665 -2.7806  3.1860
13643TIP3   OH262343   0.996   1.008  12.307 -0.5608 -0.1929 -0.0387
13643TIP3    H162344   0.951   1.089  12.329 -1.4351  0.0053 -2.2530
13643TIP3    H262345   1.089   1.030  12.307 -0.8345  1.1539 -1.7168
13644TIP3   OH262346   3.604   5.746  14.202 -0.1710  0.1143 -0.2665
13644TIP3    H162347   3.577   5.811  14.138 -0.8401 -1.0972 -1.2519
13644TIP3    H262348   3.541   5.674  14.191  0.7816 -0.8626  0.5131
13645TIP3   OH262349   2.669   0.887   0.654  0.2286 -0.1127 -0.3024
13645TIP3    H162350   2.597   0.832   0.685 -0.1372  0.0988 -0.7547
13645TIP3    H262351   2.705   0.927   0.732  0.0387 -0.4474 -0.0418
13646TIP3   OH262352   5.840   1.232  14.478 -0.0391  0.5713  0.3293
13646TIP3    H162353   5.848   1.241  14.573  0.3106  0.2970  0.3293
13646TIP3    H262354   5.748   1.251  14.460  0.0310  1.2498  0.6473
13647TIP3   OH262355   6.224   5.443  15.680  0.1866 -0.1580  0.5352
13647TIP3    H162356   6.137   5.420  15.713 -0.2592  2.3843  1.3559
13647TIP3    H262357   6.282   5.431  15.755 -0.2242  2.1330  1.3018
13648TIP3   OH262358   6.788   2.700  12.382 -0.4793  0.4409 -0.2506
13648TIP3    H162359   6.721   2.681  12.316  1.5794  0.5718 -2.5450
13648TIP3    H262360   6.765   2.786  12.416 -1.1812  0.7202 -1.3902
13649TIP3   OH262361   6.653   2.316   0.312  0.3152 -0.0394 -0.0466
13649TIP3    H162362   6.664   2.376   0.386 -0.1760 -1.5667  1.3195
13649TIP3    H262363   6.703   2.356   0.241 -0.1007  2.0358  0.7597
13650TIP3   OH262364   5.845   2.374   0.903 -0.0323  0.0842  0.2764
13650TIP3    H162365   5.773   2.428   0.934 -1.3947 -0.8463 -1.1314
13650TIP3    H262366   5.810   2.285   0.901  1.6812 -0.6763  1.0912
13651TIP3   OH262367   4.726   1.136  14.630 -0.0254  0.3222 -0.0059
13651TIP3    H162368   4.740   1.222  14.591 -0.2820  0.4421  0.1591
13651TIP3    H262369   4.797   1.081  14.596  0.3143  0.6788  0.1268
13652TIP3   OH262370   5.386   5.251   6.518  0.1454  0.1080 -0.3758
13652TIP3    H162371   5.463   5.216   6.474 -0.0835 -1.6955  0.5893
13652TIP3    H262372   5.416   5.271   6.607 -0.2363  0.4654 -0.3215
13653TIP3   OH262373   3.157   0.204  11.594  0.0361 -0.6280 -0.0625
13653TIP3    H162374   3.066   0.206  11.567 -0.8685 -2.3632  2.5013
13653TIP3    H262375   3.162   0.266  11.666  1.6307  1.5551 -1.9136
13654TIP3   OH262376   6.647   3.640  14.340  0.6409  0.6026 -0.3637
13654TIP3    H162377   6.621   3.686  14.260  0.5429  0.5614 -0.3570
13654TIP3    H262378   6.716   3.580  14.312  0.4980  0.4773 -0.4477
13655TIP3   OH262379   2.805   5.703   0.725 -0.4147 -0.5171 -0.4319
13655TIP3    H162380   2.769   5.620   0.758  1.3847 -0.7081  1.2463
13655TIP3    H262381   2.751   5.770   0.765  1.4113 -0.7641  2.7918
13656TIP3   OH262382   0.983   6.432   0.925 -0.1548  0.0279  0.0415
13656TIP3    H162383   0.939   6.515   0.946  0.0294 -0.5017  2.8610
13656TIP3    H262384   0.976   6.425   0.830 -2.3897  2.0469 -0.0324
13657TIP3   OH262385   6.393   1.346   1.010 -0.3945  0.2120 -0.1929
13657TIP3    H162386   6.425   1.408   0.945 -0.9018 -0.3322 -0.9845
13657TIP3    H262387   6.444   1.365   1.089  0.3262  0.7917 -0.7834
13658TIP3   OH262388   6.109   6.716   0.638 -0.3177  0.0413  0.4577
13658TIP3    H162389   6.045   6.656   0.674 -1.8939  1.7041  0.6115
13658TIP3    H262390   6.164   6.741   0.712  0.0980 -0.8836  0.4684
13659TIP3   OH262391   0.874   1.226  15.341  0.5395  0.3313  0.3220
13659TIP3    H162392   0.857   1.279  15.263 -1.4699 -0.6228  0.0387
13659TIP3    H262393   0.800   1.244  15.399  1.4378  0.1849  1.5657
13660TIP3   OH262394   3.456   6.511  16.623 -0.2754  0.4918 -0.4963
13660TIP3    H162395   3.385   6.540  16.566  0.1527 -1.6000 -2.2089
13660TIP3    H262396   3.426   6.427  16.659  0.5916  0.4726  0.2361
13661TIP3   OH262397   0.498   5.427   2.466  0.1175 -0.1700  0.0609
13661TIP3    H162398   0.451   5.508   2.487 -0.6096  0.5495 -3.6111
13661TIP3    H262399   0.588   5.455   2.448 -0.2564  0.0110 -1.7386
13662TIP3   OH262400   5.019   3.682   6.298  0.2434 -0.5115  0.0262
13662TIP3    H162401   4.982   3.759   6.255  0.0374 -1.4101 -1.4782
13662TIP3    H262402   5.063   3.635   6.228  1.4053 -1.1638  1.1584
13663TIP3   OH262403   2.545   4.952  15.904 -0.3612  0.7240 -0.2050
13663TIP3    H162404   2.554   4.907  15.988 -0.0979  0.5151 -0.3451
13663TIP3    H262405   2.537   5.045  15.927  2.3435  0.9916 -0.0632
13664TIP3   OH262406   2.580   4.899  16.184  0.2050  0.2063  0.1672
13664TIP3    H162407   2.647   4.912  16.251 -0.4384 -0.1558  0.8953
13664TIP3    H262408   2.497   4.898  16.232 -0.1304 -2.1965 -0.3266
13665TIP3   OH262409   4.109   5.415   3.947  0.3572 -0.6110 -0.4632
13665TIP3    H162410   4.195   5.456   3.951 -0.3627  0.9276 -0.1926
13665TIP3    H262411   4.121   5.330   3.991  2.1021 -1.1758 -1.8724
13666TIP3   OH262412   5.631   5.117  14.869  0.0944  0.0179  0.1912
13666TIP3    H162413   5.589   5.193  14.829  0.7967  0.5866  0.5088
13666TIP3    H262414   5.642   5.055  14.797 -0.3685  0.2594 -0.0962
13667TIP3   OH262415   2.325   3.477   6.106 -0.1870  0.2254 -0.2270
13667TIP3    H162416   2.296   3.427   6.030 -2.0079  0.6631  0.1323
13667TIP3    H262417   2.280   3.436   6.180  1.5811 -0.2225  0.6483
13668TIP3   OH262418   3.315   6.722  10.572  0.0199  0.3438  0.1883
13668TIP3    H162419   3.221   6.707  10.559  0.4417 -0.5094 -2.6989
13668TIP3    H262420   3.335   6.796  10.516  1.4303 -1.0047 -1.1910
13669TIP3   OH262421   5.708   0.222  15.120  0.1804  0.1967  0.2183
13669TIP3    H162422   5.776   0.169  15.079  0.6152 -1.1095  2.4793
13669TIP3    H262423   5.720   0.309  15.082  1.6848 -0.5104 -1.0479
13670TIP3   OH262424   4.211   6.591   2.468 -0.3955  0.5384 -0.5989
13670TIP3    H162425   4.199   6.657   2.537  0.7487 -0.2101  0.3649
13670TIP3    H262426   4.286   6.622   2.418 -0.7502  0.6876 -1.0414
13671TIP3   OH262427   4.334   5.489   1.447 -0.0519 -0.6516 -0.1223
13671TIP3    H162428   4.321   5.557   1.514 -1.0038 -1.9346  1.0481
13671TIP3    H262429   4.420   5.452   1.469  0.1425 -0.3310 -0.3207
13672TIP3   OH262430   0.259   1.783  16.323  0.8711  0.0931  0.1106
13672TIP3    H162431   0.221   1.803  16.237  1.3384  1.9237  0.3022
13672TIP3    H262432   0.221   1.848  16.382 -0.3396 -1.8350  1.5904
13673TIP3   OH262433   5.907   6.017  16.008 -0.7144  0.1561 -0.2573
13673TIP3    H162434   5.852   6.095  15.999 -0.7224  0.2549  0.5750
13673TIP3    H262435   5.859   5.960  16.068  0.3291  0.4911  0.9496
13674TIP3   OH262436   1.413   0.878   2.994  0.0360 -0.0106 -1.0100
13674TIP3    H162437   1.361   0.946   2.951  1.3182  0.3021 -2.1127
13674TIP3    H262438   1.351   0.835   3.053 -0.7745  2.3306  0.0165
13675TIP3   OH262439   5.632   0.512   2.068  0.1185  1.1005  0.3831
13675TIP3    H162440   5.598   0.571   2.001 -0.1827  0.9340  0.3908
13675TIP3    H262441   5.727   0.519   2.059  0.1003 -0.0815 -1.1017
13676TIP3   OH262442   3.795   6.018   0.926  0.5128 -0.0275  0.4719
13676TIP3    H162443   3.878   6.021   0.973  0.5355 -2.1555  0.6625
13676TIP3    H262444   3.800   5.938   0.874 -1.6640 -0.5309  0.9592
13677TIP3   OH262445   3.397   2.079   1.789 -0.0125  0.3313  0.7176
13677TIP3    H162446   3.374   2.002   1.736 -4.2614  1.3733  0.7532
13677TIP3    H262447   3.365   2.059   1.876  2.3642  0.7034  1.7621
13678TIP3   OH262448   3.859   5.847  16.333 -0.4150  0.1063 -0.1753
13678TIP3    H162449   3.844   5.937  16.361 -0.8104 -0.1208  0.3615
13678TIP3    H262450   3.954   5.840  16.322 -0.2506  0.2357  1.0148
13679TIP3   OH262451   4.990   1.025  11.837  0.5290  0.4906  0.0712
13679TIP3    H162452   4.982   1.118  11.859  0.8925  0.6426 -0.4213
13679TIP3    H262453   4.964   0.980  11.917 -2.3391  0.9653 -0.4781
13680TIP3   OH262454   3.039   1.115   0.073  0.0380  0.2933 -0.4783
13680TIP3    H162455   3.070   1.117   0.164  1.6588  1.3209 -1.0106
13680TIP3    H262456   2.957   1.067   0.077  0.9478 -1.2580  1.2811
13681TIP3   OH262457   5.379   4.075  10.148  0.3548  0.1437 -0.2521
13681TIP3    H162458   5.438   4.082  10.224 -0.3036  0.4128  0.2453
13681TIP3    H262459   5.307   4.020  10.178 -0.6227  1.3865 -0.1987
13682TIP3   OH262460   5.208   6.694  14.198 -0.5006 -0.2883  0.2862
13682TIP3    H162461   5.143   6.631  14.168 -1.2814  1.0782 -1.0273
13682TIP3    H262462   5.159   6.775  14.210  1.0163  0.9090 -1.2033
13683TIP3   OH262463   3.771   4.952  11.511  0.6178 -0.4272  0.0577
13683TIP3    H162464   3.833   5.024  11.515 -0.5370  0.6163 -0.1353
13683TIP3    H262465   3.687   4.992  11.532  0.1158 -1.9497  1.0762
13684TIP3   OH262466   6.179   0.503   5.192  0.5135 -0.0661 -0.6545
13684TIP3    H162467   6.125   0.424   5.200 -0.8077  0.5866 -2.5002
13684TIP3    H262468   6.166   0.548   5.276  1.5083 -1.8691  0.5466
13685TIP3   OH262469   2.523   6.742  12.496  0.2658  0.0292  0.5521
13685TIP3    H162470   2.468   6.685  12.550  0.0420 -0.4111 -0.1258
13685TIP3    H262471   2.606   6.695  12.491  0.4747  0.3500  0.9884
13686TIP3   OH262472   2.254   0.086  16.372  0.0375  0.1061 -0.4900
13686TIP3    H162473   2.240   0.162  16.316 -2.8096 -0.9407 -1.3784
13686TIP3    H262474   2.236   0.118  16.461  0.6544  0.8598 -0.6269
13687TIP3   OH262475   4.454   1.226   1.521 -0.0989  0.8435  0.4769
13687TIP3    H162476   4.532   1.188   1.481 -0.4194 -0.2747  0.8720
13687TIP3    H262477   4.393   1.237   1.448 -0.5213 -0.7774  0.5506
13688TIP3   OH262478   4.996   1.247  12.840  0.4606  0.3378 -0.7898
13688TIP3    H162479   4.910   1.244  12.798  0.2085 -1.1724 -0.2040
13688TIP3    H262480   5.058   1.234  12.768  0.2888  2.4028 -1.3694
13689TIP3   OH262481   1.364   0.107  14.069  0.5561 -0.0783  0.5804
13689TIP3    H162482   1.276   0.112  14.107  0.6614 -1.7716  1.1194
13689TIP3    H262483   1.366   0.023  14.024  0.5410  1.6682 -3.0921
13690TIP3   OH262484   4.079   0.653   2.748 -0.2224  0.5690  0.0552
13690TIP3    H162485   4.078   0.565   2.787 -0.8984  0.3519 -0.4270
13690TIP3    H262486   4.149   0.651   2.684 -0.5108  0.2395 -0.2540
13691TIP3   OH262487   2.014   4.666  11.163 -0.3007  0.1285 -0.4980
13691TIP3    H162488   2.075   4.607  11.119  2.2678  2.4293 -0.2951
13691TIP3    H262489   2.029   4.651  11.256 -1.5509 -0.7045 -0.4185
13692TIP3   OH262490   6.130   4.125   2.525  0.4150 -0.3484 -0.5527
13692TIP3    H162491   6.092   4.208   2.554 -0.5540 -0.9044 -0.1719
13692TIP3    H262492   6.059   4.062   2.536  0.6936 -0.9850 -2.1522
13693TIP3   OH262493   2.356   4.204  14.251  0.6215 -0.2188  0.7127
13693TIP3    H162494   2.274   4.228  14.207  0.6287  0.8447  1.2491
13693TIP3    H262495   2.356   4.108  14.249 -3.0384 -0.6166  4.8369
13694TIP3   OH262496   1.806   6.709  13.159  0.6599  0.4375  0.2839
13694TIP3    H162497   1.768   6.656  13.088  1.2076  0.3382  0.0642
13694TIP3    H262498   1.900   6.690  13.156  0.8038  1.1111  0.4735
13695TIP3   OH262499   1.562   0.399   4.590 -0.2618 -0.0466 -0.0113
13695TIP3    H162500   1.501   0.354   4.649 -0.7277  3.2199  2.2691
13695TIP3    H262501   1.648   0.383   4.628 -0.4444  1.0168  0.9125
13696TIP3   OH262502   2.881   0.910  10.644  1.0192  0.0805 -0.1781
13696TIP3    H162503   2.947   0.850  10.609  0.6934  0.9413 -2.4821
13696TIP3    H262504   2.798   0.865  10.629  0.9625 -1.0123  2.7365
13697TIP3   OH262505   0.587   5.239   2.648 -0.6824 -0.8299 -0.3447
13697TIP3    H162506   0.668   5.209   2.606  0.1775  0.1652  0.5551
13697TIP3    H262507   0.555   5.309   2.591  0.0831  0.0075  0.2203
13698TIP3   OH262508   3.989   1.017  14.822 -0.1190  0.4153  0.5439
13698TIP3    H162509   3.993   0.936  14.770  0.3867  0.8531 -0.1122
13698TIP3    H262510   4.079   1.030  14.852 -0.8138 -1.2303  3.7443
13699TIP3   OH262511   4.270   1.044  10.829 -0.0617  0.1106  0.8075
13699TIP3    H162512   4.331   0.972  10.839 -0.4875 -0.0361  2.5999
13699TIP3    H262513   4.314   1.104  10.768  0.9143 -0.9728  0.4142
13700TIP3   OH262514   5.748   3.465   4.067 -0.0528 -0.3358 -0.2805
13700TIP3    H162515   5.690   3.444   4.140  3.3918 -0.9270  2.5576
13700TIP3    H262516   5.790   3.382   4.044  1.2314  0.4025 -0.7153
13701TIP3   OH262517   6.699   4.121   2.312 -0.4982 -0.1760 -0.9115
13701TIP3    H162518   6.691   4.045   2.254 -1.9972 -0.6684 -0.1249
13701TIP3    H262519   6.698   4.084   2.401 -1.1591  0.7373 -0.5180
13702TIP3   OH262520   4.153   2.009  11.042  0.0941 -0.0074 -0.3746
13702TIP3    H162521   4.202   1.998  10.961  0.5364  1.4929 -0.3543
13702TIP3    H262522   4.189   1.943  11.102  3.1264  1.8689  0.0818
13703TIP3   OH262523   6.389   0.613  11.196  0.3957 -0.4111 -0.5881
13703TIP3    H162524   6.419   0.693  11.239  1.0630  0.1297 -1.9862
13703TIP3    H262525   6.423   0.620  11.107 -1.6488 -1.0540 -1.4837
13704TIP3   OH262526   4.366   1.292   1.233 -0.6958 -0.5693  0.4297
13704TIP3    H162527   4.293   1.342   1.268  0.9748  1.8840  0.6858
13704TIP3    H262528   4.382   1.329   1.146  1.7110  0.7613  1.3310
13705TIP3   OH262529   4.741   2.245  11.543 -0.4285 -0.0983 -0.5047
13705TIP3    H162530   4.737   2.296  11.462  1.3035 -0.7745 -1.0757
13705TIP3    H262531   4.734   2.154  11.514  3.2690 -0.5901 -0.3691
13706TIP3   OH262532   3.564   5.830  14.473  0.3735 -0.4617 -0.2075
13706TIP3    H162533   3.473   5.802  14.462 -0.0938  0.6322  0.6249
13706TIP3    H262534   3.604   5.814  14.387 -0.6367 -0.8336 -0.6334
13707TIP3   OH262535   0.853   0.515   1.518 -0.4601  0.6895 -0.2236
13707TIP3    H162536   0.833   0.607   1.500 -0.6418  0.4691 -1.2297
13707TIP3    H262537   0.880   0.480   1.433 -1.2235 -0.3904 -0.0414
13708TIP3   OH262538   1.027   6.103  10.879  0.6839  0.0720  0.1495
13708TIP3    H162539   1.091   6.174  10.871  0.5286  0.2382  0.3827
13708TIP3    H262540   1.059   6.035  10.819  1.1556  0.0944  0.3675
13709TIP3   OH262541   2.327   2.870  14.327 -0.3155  0.0098 -0.3221
13709TIP3    H162542   2.336   2.898  14.236  0.4556  0.7746 -0.0201
13709TIP3    H262543   2.340   2.949  14.379  2.0445 -0.8605  0.5599
13710TIP3   OH262544   6.281   5.078   5.422  0.2382 -0.4099  0.1348
13710TIP3    H162545   6.340   5.003   5.424 -1.4873 -1.9031 -1.3001
13710TIP3    H262546   6.216   5.060   5.490 -0.3415 -0.3623 -0.4003
13711TIP3   OH262547   1.824   2.901  13.369 -0.0678  0.5150 -0.2461
13711TIP3    H162548   1.895   2.958  13.339  0.2703  1.1511  1.6139
13711TIP3    H262549   1.868   2.820  13.395 -0.4812 -0.4285 -2.3524
13712TIP3   OH262550   1.668   3.497  11.599 -0.3493 -0.2517  0.4946
13712TIP3    H162551   1.708   3.461  11.520  0.6951 -1.2022  1.3916
13712TIP3    H262552   1.737   3.487  11.666 -1.3847 -0.0041  1.6329
13713TIP3   OH262553   5.968   5.974   2.297  0.2948 -0.2708  0.3108
13713TIP3    H162554   6.001   5.885   2.290  1.2968  0.2430 -2.8435
13713TIP3    H262555   6.042   6.024   2.332 -0.1966 -0.5674  1.8663
13714TIP3   OH262556   2.625   6.515   1.839  0.2149 -0.0952  0.4601
13714TIP3    H162557   2.583   6.524   1.925 -0.5736 -1.0573  0.1863
13714TIP3    H262558   2.645   6.422   1.831  1.7028  0.2204  0.2382
13715TIP3   OH262559   5.566   0.487  13.903 -0.3648 -0.5799 -0.3315
13715TIP3    H162560   5.617   0.407  13.914  3.5625  1.8566  1.7011
13715TIP3    H262561   5.619   0.542  13.846 -2.2679  1.0808 -0.6083
13716TIP3   OH262562   1.936   5.010  11.928  0.1108 -0.4757 -0.1012
13716TIP3    H162563   1.842   5.012  11.945  0.3665 -2.2158  1.8023
13716TIP3    H262564   1.963   5.102  11.935 -1.3134 -0.0479  0.0918
13717TIP3   OH262565   0.394   3.313  13.431 -0.0305  0.2064  0.2146
13717TIP3    H162566   0.356   3.280  13.512 -0.3874 -0.4508 -0.1991
13717TIP3    H262567   0.328   3.373  13.396 -0.3729 -0.3553 -0.1270
13718TIP3   OH262568   0.572   5.101  11.515 -0.1218 -0.2438 -0.1298
13718TIP3    H162569   0.630   5.072  11.444  0.4763 -0.3874  0.4123
13718TIP3    H262570   0.493   5.132  11.470 -0.2651 -1.5163 -0.7983
13719TIP3   OH262571   0.827   4.024   1.247  0.2073 -0.3002 -0.1942
13719TIP3    H162572   0.839   3.955   1.313 -0.6625 -0.2838 -0.0036
13719TIP3    H262573   0.900   4.012   1.186  2.0083  0.7147  1.6516
13720TIP3   OH262574   5.512   0.446  13.450  0.0581 -0.2566  0.1208
13720TIP3    H162575   5.473   0.527  13.416 -2.7353 -1.5297  0.0576
13720TIP3    H262576   5.563   0.411  13.377  1.6244  1.5580  0.2607
13721TIP3   OH262577   0.491   2.131  16.242  0.0879 -0.0250 -0.2767
13721TIP3    H162578   0.426   2.063  16.258 -0.1911  0.8068  2.6902
13721TIP3    H262579   0.448   2.192  16.181 -1.5214 -0.0485  0.7911
13722TIP3   OH262580   1.316   0.156  13.517  0.0576 -0.5942 -0.2382
13722TIP3    H162581   1.367   0.231  13.485 -0.3496 -0.4759 -0.6212
13722TIP3    H262582   1.379   0.084  13.521  1.0108  0.2790  2.2698
13723TIP3   OH262583   0.502   5.700  15.662  0.4056  0.3405  0.4325
13723TIP3    H162584   0.416   5.691  15.704  1.1206  1.7199  2.3781
13723TIP3    H262585   0.564   5.705  15.736  2.0831  0.0190 -0.8943
13724TIP3   OH262586   0.189   6.409  15.871 -0.4387  0.0603  0.0812
13724TIP3    H162587   0.162   6.460  15.947 -0.7099  1.7450 -1.1055
13724TIP3    H262588   0.278   6.379  15.893 -0.5659  0.3972  1.1058
13725TIP3   OH262589   1.863   0.838  13.013 -0.1487 -0.6460  0.3589
13725TIP3    H162590   1.905   0.835  13.099  1.0829  0.0785 -0.2055
13725TIP3    H262591   1.773   0.867  13.032  0.2839  0.1151  1.3503
13726TIP3   OH262592   2.822   3.408  11.982  0.3054  0.9804  0.0851
13726TIP3    H162593   2.902   3.379  12.027  0.6436  1.9548  0.1211
13726TIP3    H262594   2.755   3.408  12.050  0.2202 -0.0214  0.0150
13727TIP3   OH262595   5.823   5.819  14.945  0.1381  0.2758  0.4264
13727TIP3    H162596   5.735   5.856  14.946  0.1765  0.8114 -3.1383
13727TIP3    H262597   5.810   5.728  14.920  0.5741  0.6046 -1.1146
13728TIP3   OH262598   3.949   4.637  12.143 -0.8342  0.2765 -0.6876
13728TIP3    H162599   4.011   4.708  12.159 -1.5287  0.7176  0.1324
13728TIP3    H262600   3.964   4.575  12.215 -1.5971  0.5719 -0.2694
13729TIP3   OH262601   3.298   4.622   3.800  0.3130 -0.1567 -0.2206
13729TIP3    H162602   3.268   4.708   3.773  1.6860  0.6350  0.6107
13729TIP3    H262603   3.232   4.592   3.863  0.3198  0.7370  0.2298
13730TIP3   OH262604   4.490   2.812   1.261  0.5927 -0.5546 -0.3425
13730TIP3    H162605   4.476   2.863   1.181 -0.1756 -0.7082 -0.3101
13730TIP3    H262606   4.567   2.852   1.302 -1.0966  1.8864  0.7034
13731TIP3   OH262607   2.692   1.179   3.948  0.4491  0.0755  0.0846
13731TIP3    H162608   2.660   1.152   4.033  0.9882  2.4415  1.1296
13731TIP3    H262609   2.682   1.275   3.948 -0.8090  0.0643 -3.0541
13732TIP3   OH262610   0.677   0.456   4.484  0.0341  0.0079 -0.4303
13732TIP3    H162611   0.700   0.537   4.530  2.2975 -1.3651  1.0094
13732TIP3    H262612   0.641   0.399   4.552 -0.9023 -0.4811 -1.2983
13733TIP3   OH262613   5.970   0.087   3.316  0.3777 -0.0568 -0.0479
13733TIP3    H162614   5.903   0.018   3.319  0.2288  0.0816 -0.1613
13733TIP3    H262615   6.047   0.044   3.280 -0.0477  0.1059 -1.1896
13734TIP3   OH262616   1.311   4.452  12.132  0.1491  0.1535  0.8353
13734TIP3    H162617   1.238   4.415  12.082 -0.3364  1.5907  0.4261
13734TIP3    H262618   1.283   4.541  12.152  1.7709  0.7184  0.7324
13735TIP3   OH262619   3.734   6.655   3.500 -0.0440  0.0539 -0.7263
13735TIP3    H162620   3.678   6.585   3.466 -0.7880  1.0860 -1.7489
13735TIP3    H262621   3.759   6.627   3.588 -0.6041 -1.3176 -0.9907
13736TIP3   OH262622   2.301   6.693   2.667  0.3585  0.2275 -0.3324
13736TIP3    H162623   2.273   6.728   2.582 -0.8060 -0.5414 -0.2857
13736TIP3    H262624   2.261   6.753   2.731 -0.7737 -0.5471 -0.2821
13737TIP3   OH262625   1.543   1.761   1.172 -0.6575  0.6025 -0.0910
13737TIP3    H162626   1.606   1.820   1.130 -2.5963  0.1841 -4.0787
13737TIP3    H262627   1.457   1.798   1.152 -1.8335 -1.4434  0.7571
13738TIP3   OH262628   5.547   6.345   2.203 -0.1929 -0.0831  0.4363
13738TIP3    H162629   5.504   6.406   2.263  1.5748  0.1815  1.5121
13738TIP3    H262630   5.544   6.261   2.249  1.8505  0.2774  1.2999
13739TIP3   OH262631   6.308   5.695  13.814 -0.1382  0.0896 -0.1047
13739TIP3    H162632   6.301   5.784  13.780  0.6936 -0.4774 -1.8655
13739TIP3    H262633   6.395   5.691  13.854 -0.4619  0.2641  0.6337
13740TIP3   OH262634   1.668   6.714  14.394  0.0931  1.1415 -0.7430
13740TIP3    H162635   1.662   6.618  14.396  0.8355  1.0948  0.5318
13740TIP3    H262636   1.621   6.739  14.314 -2.5875 -0.0953  0.3166
13741TIP3   OH262637   0.412   0.497  13.460 -0.6672 -0.3737 -0.0201
13741TIP3    H162638   0.456   0.508  13.375  0.2874  0.3016  0.5393
13741TIP3    H262639   0.351   0.425  13.446 -1.2597  0.3619 -1.5690
13742TIP3   OH262640   5.630   0.927   1.981 -0.2297 -0.4594  0.4699
13742TIP3    H162641   5.621   0.851   1.923 -0.7245 -0.8958  1.0945
13742TIP3    H262642   5.586   0.998   1.935 -0.7577 -0.8427  0.3682
13743TIP3   OH262643   3.187   0.900   0.443 -0.1864 -0.2118 -0.0507
13743TIP3    H162644   3.187   0.841   0.368  0.6922 -0.3395  0.0347
13743TIP3    H262645   3.131   0.973   0.417  0.7255  0.1225 -1.1528
13744TIP3   OH262646   1.200   0.697  13.149  0.2684 -0.0542 -0.0220
13744TIP3    H162647   1.136   0.708  13.079  1.2373  0.7297 -0.8028
13744TIP3    H262648   1.182   0.609  13.184 -0.1880 -0.4837 -1.2904
13745TIP3   OH262649   3.589   6.225  11.350  0.2489 -0.4179 -0.3272
13745TIP3    H162650   3.638   6.229  11.432  1.1997  1.1009 -0.9240
13745TIP3    H262651   3.648   6.181  11.289  0.4913  0.5142 -0.7839
13746TIP3   OH262652   4.287   5.818   1.282  0.3119 -0.2720  0.2282
13746TIP3    H162653   4.281   5.773   1.198  0.0309  0.1208  0.0366
13746TIP3    H262654   4.381   5.835   1.293  0.2125  1.0916 -0.7674
13747TIP3   OH262655   4.076   6.589  12.492  0.2933 -0.1693  0.2242
13747TIP3    H162656   4.127   6.665  12.463 -0.7067  0.2833 -0.4342
13747TIP3    H262657   4.080   6.527  12.419  0.1859 -0.2712  0.3036
13748TIP3   OH262658   0.494   2.668   2.286 -0.5919 -0.3984 -0.3346
13748TIP3    H162659   0.556   2.645   2.355 -2.4601  0.3089  1.7116
13748TIP3    H262660   0.408   2.660   2.327 -1.7419  1.4993 -2.1432
13749TIP3   OH262661   5.341   4.408  16.492 -0.3188 -0.0567  0.3232
13749TIP3    H162662   5.344   4.317  16.463 -2.0333  0.3742 -1.4258
13749TIP3    H262663   5.256   4.440  16.462  0.3933  2.2343  0.5383
13750TIP3   OH262664   4.704   0.635  15.475 -0.4926  0.1892 -0.3590
13750TIP3    H162665   4.614   0.602  15.471 -1.2084  1.9326  0.5229
13750TIP3    H262666   4.735   0.610  15.562 -0.9166  1.4580  0.1790
13751TIP3   OH262667   6.710   2.690   3.374 -1.0596 -0.1837  0.5501
13751TIP3    H162668   6.704   2.656   3.463 -0.8085  0.3022  0.7573
13751TIP3    H262669   6.800   2.721   3.366 -0.6615 -1.5152 -0.3597
13752TIP3   OH262670   0.270   5.013  11.630  0.0187  0.3841 -0.4347
13752TIP3    H162671   0.185   5.056  11.639  0.1602  0.9909 -1.7730
13752TIP3    H262672   0.333   5.077  11.662  0.1448  0.7798 -1.4634
13753TIP3   OH262673   4.487   0.626  13.247  0.8990 -0.2115 -0.0373
13753TIP3    H162674   4.470   0.686  13.174  0.1214 -0.4797 -0.0765
13753TIP3    H262675   4.403   0.618  13.292  1.6630  1.0875  1.7663
13754TIP3   OH262676   2.128   0.402  17.041  0.8961 -0.1625  0.2913
13754TIP3    H162677   2.201   0.459  17.015  0.8470  0.1614  0.8614
13754TIP3    H262678   2.144   0.383  17.133  0.3258 -0.1999  0.3826
13755TIP3   OH262679   0.145   5.478  11.207 -0.1354  0.3369  0.5050
13755TIP3    H162680   0.069   5.490  11.150  1.9041  1.3216 -2.2748
13755TIP3    H262681   0.159   5.384  11.210 -0.3649  0.2550 -0.6016
13756TIP3   OH262682   5.071   1.163  15.658  0.1950 -0.2313  0.3293
13756TIP3    H162683   5.116   1.079  15.672 -0.6228 -0.9657 -1.2147
13756TIP3    H262684   4.978   1.143  15.669 -0.0928  0.2155 -1.0471
13757TIP3   OH262685   1.814   0.215   1.538  0.4678 -0.1039 -0.0023
13757TIP3    H162686   1.880   0.163   1.583 -0.6965 -1.5239  0.1506
13757TIP3    H262687   1.812   0.299   1.585  1.7272 -0.2488  0.3351
13758TIP3   OH262688   0.214   1.413   4.836  0.5175 -0.4316  0.2163
13758TIP3    H162689   0.129   1.450   4.812  0.8657  0.7426  0.7034
13758TIP3    H262690   0.212   1.323   4.803 -0.6844 -0.2350 -0.2844
13759TIP3   OH262691   0.821   0.642   3.516  0.1433  0.1558  0.0280
13759TIP3    H162692   0.766   0.601   3.583 -0.0978 -0.6617 -0.6444
13759TIP3    H262693   0.887   0.576   3.495  0.6993  0.7058  0.0213
13760TIP3   OH262694   5.756   4.797   2.426  0.1521 -0.5622  0.5739
13760TIP3    H162695   5.846   4.826   2.441  0.7991 -1.6162 -1.0364
13760TIP3    H262696   5.723   4.775   2.513  1.8237 -1.1785  1.0779
13761TIP3   OH262697   4.401   3.120   2.709 -0.0711 -0.1313 -0.2365
13761TIP3    H162698   4.420   3.181   2.781 -0.6745  0.1809 -0.3387
13761TIP3    H262699   4.312   3.142   2.681  0.4234  0.2620 -1.5826
13762TIP3   OH262700   1.773   2.137  14.653 -0.0417  0.0037 -0.0106
13762TIP3    H162701   1.854   2.090  14.671 -0.8763 -1.3636  0.3260
13762TIP3    H262702   1.785   2.222  14.695  0.8928 -0.4789  0.7454
13763TIP3   OH262703   5.875   5.578   2.343  0.0882  0.2002 -0.4727
13763TIP3    H162704   5.809   5.644   2.323  0.2368  1.0794  1.7127
13763TIP3    H262705   5.825   5.503   2.377 -0.0127 -0.5631 -2.1906
13764TIP3   OH262706   0.663   1.839  16.980  0.1377  0.6959  0.5791
13764TIP3    H162707   0.677   1.930  17.005 -1.3585  0.8208  1.0591
13764TIP3    H262708   0.713   1.788  17.045  0.7678  1.1489  0.4631
13765TIP3   OH262709   6.550   4.986   4.678  0.1518  0.5636 -0.1689
13765TIP3    H162710   6.553   5.050   4.749  2.3390  0.3757 -0.0256
13765TIP3    H262711   6.506   5.031   4.606 -0.3049  1.4454  0.6452
13766TIP3   OH262712   6.331   4.633  13.181  0.0293 -0.2541  0.0463
13766TIP3    H162713   6.418   4.594  13.194  1.1611  2.2592  0.5701
13766TIP3    H262714   6.306   4.607  13.093 -0.6230 -4.4237  1.2486
13767TIP3   OH262715   0.719   5.425  12.828 -0.5986  0.0537 -0.1445
13767TIP3    H162716   0.804   5.428  12.873 -0.3217  2.6555 -0.6631
13767TIP3    H262717   0.659   5.389  12.893  0.2204  1.5616  1.5551
13768TIP3   OH262718   4.323   1.861   6.081 -0.2174  0.6841 -0.1564
13768TIP3    H162719   4.268   1.814   6.018 -0.6117  0.8937  0.0267
13768TIP3    H262720   4.292   1.830   6.167 -1.0562  1.8900  0.0005
13769TIP3   OH262721   2.571   3.720   1.122  0.0312 -0.6029  0.2228
13769TIP3    H162722   2.650   3.667   1.127  0.6186  0.2867  0.5532
13769TIP3    H262723   2.503   3.665   1.163  1.0158 -0.4168  2.2444
13770TIP3   OH262724   1.564   4.401  16.661 -0.1076  0.1428  0.1181
13770TIP3    H162725   1.603   4.433  16.743  0.0295 -0.2813  0.2195
13770TIP3    H262726   1.620   4.437  16.592 -0.6704  1.1519  0.1598
13771TIP3   OH262727   3.289   2.941   5.444  0.1990 -0.2389 -0.1241
13771TIP3    H162728   3.274   2.997   5.368  0.4989 -0.0944 -0.0792
13771TIP3    H262729   3.209   2.890   5.452 -0.0619  0.1542 -0.1904
13772TIP3   OH262730   5.918   5.312  16.240  0.2001 -0.5574 -0.0956
13772TIP3    H162731   5.871   5.396  16.236 -2.2178 -1.8911 -2.2599
13772TIP3    H262732   5.897   5.278  16.327 -0.5837  0.1238 -0.0056
13773TIP3   OH262733   2.631   1.482  12.947  0.4036  0.2295  0.2986
13773TIP3    H162734   2.723   1.454  12.944  0.5832  0.6952  1.1517
13773TIP3    H262735   2.582   1.401  12.959  0.8725  0.1812  2.1499
13774TIP3   OH262736   5.856   3.988   1.840 -0.0761  0.0308  0.8007
13774TIP3    H162737   5.946   4.011   1.866 -1.0422  2.3096  2.4474
13774TIP3    H262738   5.828   3.923   1.904  0.3454 -0.5915  0.3597
13775TIP3   OH262739   6.743   0.703   4.096  0.2861  0.5860 -0.0521
13775TIP3    H162740   6.649   0.718   4.105  0.2589  0.1300  0.5845
13775TIP3    H262741   6.759   0.702   4.002 -0.6511 -1.0111 -0.2324
13776TIP3   OH262742   2.130   1.275  12.487  0.0313  0.6740 -0.6633
13776TIP3    H162743   2.082   1.193  12.470 -0.5610  1.0580 -0.8850
13776TIP3    H262744   2.077   1.342  12.444 -1.0714  1.5964  1.9345
13777TIP3   OH262745   6.782   6.518   4.235  0.0312 -0.3366  0.0990
13777TIP3    H162746   6.775   6.613   4.232  1.3487 -0.2296 -0.0176
13777TIP3    H262747   6.700   6.490   4.276 -0.1603  0.8763  0.5984
13778TIP3   OH262748   4.661   1.275  14.007 -0.0589 -0.2071  0.0455
13778TIP3    H162749   4.667   1.370  14.005  2.4083 -0.2810  0.4932
13778TIP3    H262750   4.623   1.255  14.092 -0.9976  0.3632 -0.2262
13779TIP3   OH262751   1.283   4.025   2.558  0.4175  0.1500  0.1084
13779TIP3    H162752   1.352   4.090   2.551 -0.7060  1.6322  1.7768
13779TIP3    H262753   1.268   4.015   2.652 -0.6020 -1.2750 -0.1578
13780TIP3   OH262754   6.362   4.223  14.966  0.3826  0.3532 -0.2031
13780TIP3    H162755   6.456   4.228  14.949 -0.0717  2.7594 -2.8640
13780TIP3    H262756   6.330   4.311  14.948 -2.4985 -0.5708 -0.1459
13781TIP3   OH262757   3.848   6.242  10.177  0.6302 -0.6110 -0.1298
13781TIP3    H162758   3.863   6.152  10.147  1.1020 -1.0371  1.3033
13781TIP3    H262759   3.783   6.233  10.247 -3.3542  0.7380 -3.2720
13782TIP3   OH262760   4.600   1.441  15.962 -0.7026 -0.3187  0.1352
13782TIP3    H162761   4.565   1.449  16.051  0.3498 -0.6591  0.6001
13782TIP3    H262762   4.630   1.350  15.956  0.9501  0.1786  0.1166
13783TIP3   OH262763   3.469   6.572  14.981 -0.7774 -0.5159 -0.2774
13783TIP3    H162764   3.543   6.578  14.922  0.7606 -0.0897  1.6045
13783TIP3    H262765   3.502   6.525  15.058 -1.2082  2.8984  2.2834
13784TIP3   OH262766   0.398   5.739   1.241  0.1593  0.3378  0.0207
13784TIP3    H162767   0.437   5.734   1.328  0.8835  0.3104 -0.3000
13784TIP3    H262768   0.462   5.787   1.189 -1.0457  1.9340 -0.0679
13785TIP3   OH262769   1.527   2.671   2.997  0.3853  0.0489  0.1601
13785TIP3    H162770   1.477   2.602   3.041 -2.7842  0.8454 -1.8672
13785TIP3    H262771   1.507   2.751   3.046 -0.1927  0.3287 -0.5050
13786TIP3   OH262772   5.012   2.046  16.579 -0.1481  0.1267  0.2982
13786TIP3    H162773   4.981   2.039  16.489 -0.8210  0.3801  0.4996
13786TIP3    H262774   5.106   2.060  16.572  0.2579 -2.4023 -0.2896
13787TIP3   OH262775   6.258   5.909  14.046  0.8474  0.4859  0.0026
13787TIP3    H162776   6.327   5.913  14.113  0.9561  1.6996 -0.1480
13787TIP3    H262777   6.296   5.954  13.971 -0.5709  2.4527  0.3842
13788TIP3   OH262778   6.769   5.790  15.491 -0.0179 -0.4410 -0.3141
13788TIP3    H162779   6.678   5.816  15.472  0.0624  0.5301  0.5521
13788TIP3    H262780   6.809   5.779  15.404 -0.3979  1.2068 -0.7332
13789TIP3   OH262781   5.909   5.694   3.986  0.5841  0.5352  0.7623
13789TIP3    H162782   5.842   5.708   4.053  0.8399  0.5847  1.0114
13789TIP3    H262783   5.961   5.621   4.021 -0.8087 -1.1932 -0.5659
13790TIP3   OH262784   3.864   5.696   3.325  0.5713 -0.2845  0.1406
13790TIP3    H162785   3.869   5.627   3.259  0.6020  0.9650 -1.2174
13790TIP3    H262786   3.783   5.743   3.305 -0.5644 -1.1485  2.3558
13791TIP3   OH262787   5.111   2.226  15.733  0.2378  0.1393  0.3252
13791TIP3    H162788   5.052   2.154  15.756  0.7367  0.4998  3.0139
13791TIP3    H262789   5.196   2.200  15.767  0.6348  1.5924  0.5002
13792TIP3   OH262790   6.406   3.635  13.478  0.3612 -0.0195  0.7635
13792TIP3    H162791   6.376   3.720  13.510  1.4172  1.1056 -1.0569
13792TIP3    H262792   6.354   3.571  13.527 -2.1048  1.7175  0.5878
13793TIP3   OH262793   5.374   6.064   1.819  0.2761  0.8875  0.2694
13793TIP3    H162794   5.441   6.001   1.792  0.9922  1.9335 -0.4689
13793TIP3    H262795   5.295   6.011   1.829  1.0255 -0.2522  0.4336
13794TIP3   OH262796   5.988   4.471  13.106 -0.2201 -0.0199 -0.4656
13794TIP3    H162797   6.004   4.512  13.191  0.1742 -0.1937 -0.4529
13794TIP3    H262798   5.902   4.504  13.079 -0.8216 -0.7457  0.4747
13795TIP3   OH262799   0.735   3.246   5.206  0.1122  0.0116 -0.0999
13795TIP3    H162800   0.763   3.279   5.120  1.2490  0.1508  0.3138
13795TIP3    H262801   0.733   3.151   5.196  1.2223 -0.0304  0.0011
13796TIP3   OH262802   3.340   1.005   3.009  0.2062 -0.0997  0.2194
13796TIP3    H162803   3.374   1.067   3.074  0.6283 -0.8690  0.7466
13796TIP3    H262804   3.335   1.055   2.928  0.8944  0.5180  0.5506
13797TIP3   OH262805   6.080   6.248   5.741 -0.1459 -0.1864  0.0026
13797TIP3    H162806   6.136   6.288   5.674 -1.0298  0.3874 -0.4119
13797TIP3    H262807   6.021   6.318   5.768 -1.8409 -1.2260 -0.8506
13798TIP3   OH262808   4.821   0.507  11.060 -0.2928  0.1217  0.8025
13798TIP3    H162809   4.906   0.499  11.018 -0.4276  0.4410  0.4583
13798TIP3    H262810   4.786   0.590  11.028 -0.5737  0.1767  1.2333
13799TIP3   OH262811   4.413   5.356  15.852 -0.2636 -0.1964  0.7132
13799TIP3    H162812   4.426   5.266  15.822 -0.3412  0.5450 -1.8401
13799TIP3    H262813   4.400   5.406  15.771 -1.0116  1.9908  2.0951
13800TIP3   OH262814   3.287   5.040  16.373 -0.1578 -0.1762  0.0131
13800TIP3    H162815   3.242   4.988  16.307 -0.1829 -1.3822  0.9572
13800TIP3    H262816   3.267   4.997  16.456  2.6129 -0.6957  0.4993
13801TIP3   OH262817   6.584   3.418  16.978  0.0674 -1.0893 -0.2188
13801TIP3    H162818   6.551   3.364  16.906 -0.0796 -1.6638  0.2667
13801TIP3    H262819   6.646   3.361  17.023  0.8126 -0.4307 -0.4051
13802TIP3   OH262820   2.354   0.922   2.048 -0.2869  0.3261  0.7400
13802TIP3    H162821   2.276   0.898   2.099 -0.0226  3.2046  2.7246
13802TIP3    H262822   2.426   0.882   2.096 -0.4056 -3.1930 -1.6449
13803TIP3   OH262823   3.825   4.513   4.585 -0.9891 -0.1702  0.2711
13803TIP3    H162824   3.780   4.435   4.617 -2.2866 -0.4392 -2.0588
13803TIP3    H262825   3.778   4.539   4.506 -1.1272  3.4908  1.3529
13804TIP3   OH262826   0.588   4.133   5.373 -0.2780 -0.1064  0.3088
13804TIP3    H162827   0.662   4.146   5.432  1.1903  3.4392 -2.0341
13804TIP3    H262828   0.625   4.092   5.295 -1.5670 -1.6575  0.4477
13805TIP3   OH262829   5.763   6.222  10.491 -0.2059  0.2444  0.7098
13805TIP3    H162830   5.844   6.187  10.454  0.1262  0.1491  1.4935
13805TIP3    H262831   5.773   6.317  10.486  0.4023  0.2498  1.6974
13806TIP3   OH262832   1.592   5.164  16.312 -0.2995  0.7609  0.1424
13806TIP3    H162833   1.672   5.118  16.288 -1.5507 -0.0699 -2.8062
13806TIP3    H262834   1.578   5.142  16.405  2.1612 -0.0983  0.3604
13807TIP3   OH262835   1.688   5.062  12.288 -0.5738 -0.3573  0.0923
13807TIP3    H162836   1.727   4.975  12.297 -2.0245 -1.0189  0.3565
13807TIP3    H262837   1.701   5.103  12.373  0.0435 -0.3292 -0.0076
13808TIP3   OH262838   0.088   6.719   3.488 -0.6358  0.0601 -0.2713
13808TIP3    H162839   0.110   6.701   3.396  0.0726 -2.0823  0.2662
13808TIP3    H262840   0.162   6.768   3.522 -0.2400 -0.3773 -0.4913
13809TIP3   OH262841   5.208   0.251   1.877 -0.2245  0.0001  0.2127
13809TIP3    H162842   5.215   0.271   1.784 -0.8813 -1.7265 -0.2571
13809TIP3    H262843   5.289   0.205   1.898 -0.5567 -0.6155  0.1885
13810TIP3   OH262844   2.916   5.223  14.849 -0.4244  0.2468  0.3151
13810TIP3    H162845   2.964   5.146  14.820 -0.4061 -0.3586  1.8408
13810TIP3    H262846   2.893   5.269  14.769  3.5087  1.1132 -0.5316
13811TIP3   OH262847   6.427   2.302  12.609  0.4182  0.5519  0.3748
13811TIP3    H162848   6.343   2.312  12.655  0.2477  2.0995 -0.2212
13811TIP3    H262849   6.457   2.214  12.633 -2.1384 -0.7066 -0.6481
13812TIP3   OH262850   5.272   0.096   4.243  0.2447  0.3427 -0.3608
13812TIP3    H162851   5.285   0.178   4.195 -1.9488  0.7742 -0.3227
13812TIP3    H262852   5.270   0.122   4.335 -1.0971  0.3771 -0.3833
13813TIP3   OH262853   5.597   3.968  15.163  0.2193  0.0525 -0.3430
13813TIP3    H162854   5.611   3.883  15.206 -1.0868  0.0933  0.1887
13813TIP3    H262855   5.512   3.960  15.121  0.5245  0.7719 -1.1301
13814TIP3   OH262856   6.416   5.822   3.071 -0.9032  0.7653  0.0974
13814TIP3    H162857   6.372   5.890   3.123  1.4844  1.4461  1.4104
13814TIP3    H262858   6.507   5.851   3.066 -0.3609 -1.0061 -1.6749
13815TIP3   OH262859   3.936   4.479  16.428  0.0064 -0.2022 -0.1321
13815TIP3    H162860   3.951   4.495  16.334  1.0478  0.4119  0.1241
13815TIP3    H262861   3.852   4.521  16.445  0.0882  0.2003 -0.6725
13816TIP3   OH262862   2.163   0.863  14.044 -0.0304  0.0354  0.2379
13816TIP3    H162863   2.092   0.879  14.107 -0.6715 -0.6194 -0.3080
13816TIP3    H262864   2.143   0.921  13.971  0.2538  0.1868  0.2821
13817TIP3   OH262865   3.856   0.226  13.447  0.0701  0.2459 -0.5512
13817TIP3    H162866   3.868   0.278  13.526 -0.6348 -1.2637  0.6130
13817TIP3    H262867   3.803   0.281  13.390  2.8396  2.4665 -1.1719
13818TIP3   OH262868   3.201   4.080   4.479  0.4638  0.6305  0.1780
13818TIP3    H162869   3.140   4.151   4.458  0.9486  1.6069  1.8104
13818TIP3    H262870   3.147   4.001   4.480 -0.1915  1.0360 -1.2052
13819TIP3   OH262871   6.753   0.469  11.743 -0.2612 -0.1785 -0.1841
13819TIP3    H162872   6.713   0.554  11.720 -1.0181 -0.0948  1.3014
13819TIP3    H262873   6.737   0.460  11.837 -0.7291 -2.2571 -0.4158
13820TIP3   OH262874   4.469   1.927   5.706 -0.2523  0.0365 -0.1031
13820TIP3    H162875   4.471   1.833   5.689  0.3637  0.1533 -0.7510
13820TIP3    H262876   4.397   1.940   5.767 -1.3209 -0.6571 -1.1939
13821TIP3   OH262877   3.972   1.201   3.503  0.7282 -0.1245  0.3171
13821TIP3    H162878   3.994   1.241   3.587  0.9953 -0.6134  0.4863
13821TIP3    H262879   3.983   1.107   3.518 -0.1536 -0.2838  0.0072
13822TIP3   OH262880   3.109   5.540   0.644  0.0349  0.2908 -0.1417
13822TIP3    H162881   3.133   5.491   0.723  0.0132  1.1457  0.4047
13822TIP3    H262882   3.178   5.518   0.581 -0.8990 -1.8036 -0.5208
13823TIP3   OH262883   1.304   0.439   4.884 -0.2027  0.2390 -0.2451
13823TIP3    H162884   1.329   0.357   4.842 -0.6773  0.1627 -0.3834
13823TIP3    H262885   1.358   0.443   4.963  0.7966  0.4484 -0.9135
13824TIP3   OH262886   6.397   3.424  16.729 -0.4112 -0.7401  0.1111
13824TIP3    H162887   6.475   3.369  16.719  0.4330 -0.0101  2.1170
13824TIP3    H262888   6.403   3.487  16.658  1.0983 -0.4496  0.4537
13825TIP3   OH262889   2.531   2.448   3.458  0.1582 -0.2378  0.1205
13825TIP3    H162890   2.559   2.400   3.536  0.1589 -2.1238 -0.9890
13825TIP3    H262891   2.570   2.400   3.385 -0.0496  1.3371 -1.0772
13826TIP3   OH262892   4.161   3.164  12.408  0.0048 -0.0416 -0.1568
13826TIP3    H162893   4.107   3.241  12.387 -0.5811 -0.9368 -2.1836
13826TIP3    H262894   4.143   3.102  12.337  3.0748 -0.7292 -0.4647
13827TIP3   OH262895   6.292   2.718  14.963 -0.4769 -0.3426  0.0337
13827TIP3    H162896   6.230   2.667  14.912 -1.5244  0.8514  0.0634
13827TIP3    H262897   6.268   2.809  14.946  0.8232  0.1379  0.6039
13828TIP3   OH262898   3.550   3.165   2.410 -0.0301  0.3912 -0.1864
13828TIP3    H162899   3.588   3.103   2.471  0.0501 -0.0897 -0.7132
13828TIP3    H262900   3.486   3.114   2.360 -1.4313  1.1852  0.7171
13829TIP3   OH262901   5.072   0.522  16.891  0.3187 -0.1715 -0.4236
13829TIP3    H162902   5.047   0.443  16.939 -1.0002  0.6820  0.3517
13829TIP3    H262903   5.046   0.504  16.801 -0.2428 -0.5333 -0.1990
13830TIP3   OH262904   4.982   5.885  14.167 -0.7785 -0.0330 -0.3373
13830TIP3    H162905   4.942   5.883  14.080 -0.3084 -0.5332 -0.5492
13830TIP3    H262906   4.910   5.862  14.227 -0.7136 -1.4537 -0.7617
13831TIP3   OH262907   4.065   0.850   5.672 -0.5347 -0.3059  0.3433
13831TIP3    H162908   4.011   0.784   5.627  1.9908 -0.4312 -2.9075
13831TIP3    H262909   4.130   0.798   5.720 -1.0951 -0.1415  1.3034
13832TIP3   OH262910   3.886   4.117   3.058  0.3228  0.2463 -0.2125
13832TIP3    H162911   3.929   4.177   2.997  1.6443 -0.9558 -0.5091
13832TIP3    H262912   3.826   4.173   3.108  1.1253  1.7123 -0.8307
13833TIP3   OH262913   2.008   3.997  11.548 -0.7120  1.3477 -0.4939
13833TIP3    H162914   2.056   4.014  11.629 -2.4604  1.8123  0.4875
13833TIP3    H262915   2.038   3.911  11.520 -1.5873  0.1836  1.8324
13834TIP3   OH262916   4.124   3.647   3.651  0.3137 -0.5792 -0.8721
13834TIP3    H162917   4.191   3.676   3.590  0.0451  0.2664 -0.7733
13834TIP3    H262918   4.043   3.688   3.620  0.2520  0.2463  0.2957
13835TIP3   OH262919   6.192   2.378   5.626  0.3807 -0.3618  0.1343
13835TIP3    H162920   6.115   2.429   5.651  0.8521 -0.0727  1.0079
13835TIP3    H262921   6.158   2.315   5.561 -0.4592  0.1703  0.0392
13836TIP3   OH262922   4.999   2.969  10.805 -0.9770  0.1115 -0.1160
13836TIP3    H162923   4.992   2.875  10.789  2.3079 -0.2325 -0.2171
13836TIP3    H262924   5.081   2.995  10.763 -1.0807  2.7498  1.0881
13837TIP3   OH262925   2.869   3.949   1.218  0.1678 -0.3226  0.1173
13837TIP3    H162926   2.866   3.876   1.155  1.8500 -0.1401 -0.2136
13837TIP3    H262927   2.962   3.963   1.234 -0.1995 -0.3650  2.6862
13838TIP3   OH262928   2.581   1.335  16.097 -0.1683 -0.1666  0.8811
13838TIP3    H162929   2.557   1.289  16.016  1.2753 -1.0143  0.9043
13838TIP3    H262930   2.661   1.383  16.075 -0.5144  0.6895  1.4445
13839TIP3   OH262931   1.051   4.774  12.834  0.2221  0.0941  0.1468
13839TIP3    H162932   1.096   4.749  12.754  0.6023  0.3775  0.2713
13839TIP3    H262933   0.959   4.783  12.808  0.2523 -0.3927 -0.1255
13840TIP3   OH262934   0.752   2.475  15.489 -0.7134 -0.3856 -0.0935
13840TIP3    H162935   0.824   2.472  15.426 -0.5295 -0.7294  0.1292
13840TIP3    H262936   0.682   2.522  15.443 -0.1182  0.5445 -0.0764
13841TIP3   OH262937   1.593   5.649  16.808 -0.0608 -0.3475  0.6387
13841TIP3    H162938   1.536   5.633  16.884 -1.1396 -1.5538 -0.3779
13841TIP3    H262939   1.561   5.731  16.772 -1.9196 -1.4851 -0.4960
13842TIP3   OH262940   0.377   3.862  11.955 -0.1304  0.2666  1.0209
13842TIP3    H162941   0.422   3.879  11.872 -1.7162 -0.2034  0.0173
13842TIP3    H262942   0.445   3.872  12.021  0.8893  2.0181 -0.1975
13843TIP3   OH262943   5.470   1.305   3.644 -0.0951 -0.0084 -0.1703
13843TIP3    H162944   5.386   1.283   3.683  0.0618  1.1257  0.9038
13843TIP3    H262945   5.488   1.234   3.583 -0.8490 -1.3632  1.1044
13844TIP3   OH262946   3.557   6.492  16.195 -0.0500  0.2668 -0.6092
13844TIP3    H162947   3.545   6.568  16.253 -0.1269 -0.1027 -0.1284
13844TIP3    H262948   3.507   6.422  16.238  0.1500 -0.0951 -0.9654
13845TIP3   OH262949   1.392   2.925   1.841  0.0133  0.2099  0.4044
13845TIP3    H162950   1.299   2.919   1.818  0.5452 -2.1114 -1.5328
13845TIP3    H262951   1.438   2.905   1.760  2.3270  3.3922  0.7791
13846TIP3   OH262952   5.164   5.055  13.058  0.2333 -0.2733 -0.8082
13846TIP3    H162953   5.080   5.059  13.104  0.7714  2.4083  0.1145
13846TIP3    H262954   5.220   5.001  13.114 -0.4002 -0.7580 -0.6314
13847TIP3   OH262955   5.275   4.471   1.646 -0.0871  0.6102  0.1685
13847TIP3    H162956   5.225   4.446   1.724  0.6709 -2.0701 -0.1031
13847TIP3    H262957   5.210   4.472   1.575  0.0938 -3.5200 -0.3214
13848TIP3   OH262958   4.793   6.059   0.790  0.2887  0.1505 -0.3028
13848TIP3    H162959   4.855   5.990   0.815  1.5118  1.7386  1.2784
13848TIP3    H262960   4.751   6.084   0.872  0.8184  2.1541 -0.6004
13849TIP3   OH262961   0.609   1.901   0.959  0.1376 -0.1915  0.1098
13849TIP3    H162962   0.607   1.808   0.983  1.3498 -0.4606 -0.7534
13849TIP3    H262963   0.702   1.922   0.954 -0.0759  0.4204 -2.0982
13850TIP3   OH262964   2.643   5.395  14.299  0.2576 -0.5855  0.0811
13850TIP3    H162965   2.593   5.318  14.273 -4.6752  1.9352  0.8263
13850TIP3    H262966   2.654   5.385  14.394  0.8328 -0.9144 -0.0127
13851TIP3   OH262967   0.101   5.759  16.443  0.3618  0.0579 -0.3353
13851TIP3    H162968   0.067   5.678  16.404  0.8214 -1.0538  1.4447
13851TIP3    H262969   0.103   5.821  16.370  1.2428 -1.9048 -2.1246
13852TIP3   OH262970   3.975   2.109   1.086  0.4336 -0.1739  0.6838
13852TIP3    H162971   3.968   2.093   0.992  2.2840  0.4544  0.3833
13852TIP3    H262972   3.981   2.022   1.125  0.9449 -0.4175  0.0759
13853TIP3   OH262973   6.116   2.189  10.597 -0.0832 -0.3834  0.1370
13853TIP3    H162974   6.048   2.252  10.573 -0.2920 -0.4630  0.5072
13853TIP3    H262975   6.173   2.184  10.520 -1.3689 -1.4962 -0.7704
13854TIP3   OH262976   0.272   6.748   3.859 -0.0523 -0.9357  0.3516
13854TIP3    H162977   0.207   6.753   3.928 -0.2042 -1.7178  0.2746
13854TIP3    H262978   0.282   6.654   3.841  1.3580 -0.8640  0.6181
13855TIP3   OH262979   5.029   2.449  11.492  0.1039  0.0461  0.4107
13855TIP3    H162980   5.115   2.448  11.451 -0.5479  0.7098 -1.0578
13855TIP3    H262981   4.968   2.459  11.419 -1.2440 -0.6850  1.3919
13856TIP3   OH262982   3.576   1.362  14.417  0.8419 -0.6036  0.2073
13856TIP3    H162983   3.551   1.407  14.498  0.6075  1.6786 -1.0316
13856TIP3    H262984   3.665   1.331  14.433  1.5086  1.4384  0.7706
13857TIP3   OH262985   1.671   1.111   3.777  0.0779 -0.2418 -0.3319
13857TIP3    H162986   1.646   1.150   3.693 -0.9231 -0.4743 -0.1570
13857TIP3    H262987   1.607   1.145   3.839  0.6792 -0.2437  0.2997
13858TIP3   OH262988   0.136   2.212  11.151 -0.3759  0.7931  0.0880
13858TIP3    H162989   0.110   2.141  11.210  1.3484  0.1490  0.1213
13858TIP3    H262990   0.079   2.201  11.075  0.7483 -1.5193 -0.5071
13859TIP3   OH262991   1.893   0.748   3.804 -0.3411 -0.0362  0.1776
13859TIP3    H162992   1.870   0.754   3.897  1.1478 -0.8426  0.6445
13859TIP3    H262993   1.872   0.834   3.768  1.7607  1.3389  1.9548
13860TIP3   OH262994   5.686   5.954   1.774 -0.0400 -0.0835  0.7035
13860TIP3    H162995   5.735   6.017   1.827 -1.0012  0.0656  1.4404
13860TIP3    H262996   5.658   6.004   1.697  0.3516  0.0129  0.6186
13861TIP3   OH262997   3.532   2.498  13.727 -0.5987 -0.0584 -0.0405
13861TIP3    H162998   3.561   2.496  13.818 -2.0829  2.0805  0.5511
13861TIP3    H262999   3.440   2.474  13.730 -0.6426 -0.0596 -0.9859
13862TIP3   OH263000   3.717   3.875   4.394  0.1408  0.0488 -0.2496
13862TIP3    H163001   3.732   3.813   4.323  1.3995  1.1239 -0.9684
13862TIP3    H263002   3.781   3.944   4.380 -0.4265  0.9323  1.2149
13863TIP3   OH263003   6.715   3.704  12.566 -0.1787 -0.0234  0.0085
13863TIP3    H163004   6.782   3.742  12.509  0.3529  1.4258  1.5174
13863TIP3    H263005   6.632   3.733  12.529  0.0681 -0.7018 -1.1057
13864TIP3   OH263006   6.325   4.340  11.413 -0.0712  0.5627 -0.0366
13864TIP3    H163007   6.352   4.291  11.491  2.9011  0.6353 -0.8861
13864TIP3    H263008   6.313   4.430  11.444 -0.9012  0.2113  0.6843
13865TIP3   OH263009   6.413   0.866   5.294  0.0147 -0.4873  0.3566
13865TIP3    H163010   6.334   0.915   5.315  0.2039 -0.4316  0.9475
13865TIP3    H263011   6.445   0.835   5.378  1.0475  0.1404  0.2126
13866TIP3   OH263012   2.048   6.308  11.742  0.1993 -0.4198 -0.8221
13866TIP3    H163013   2.139   6.292  11.715  0.3075 -0.6164 -0.3472
13866TIP3    H263014   2.005   6.340  11.663  0.9778  0.8829 -0.7499
13867TIP3   OH263015   2.292   4.107  10.972  0.0499  0.4578 -0.1681
13867TIP3    H163016   2.314   4.083  10.882 -0.5378  2.3649 -0.8931
13867TIP3    H263017   2.320   4.198  10.979 -0.7759  0.6201  1.2780
13868TIP3   OH263018   0.920   0.299  15.549 -0.3682 -0.2309 -0.1354
13868TIP3    H163019   0.949   0.238  15.617 -0.8676 -0.7333 -0.3630
13868TIP3    H263020   0.922   0.248  15.468 -1.3546 -0.1354 -0.2402
13869TIP3   OH263021   3.236   1.284   2.411  0.4857 -0.1859 -0.7862
13869TIP3    H163022   3.317   1.333   2.427 -0.3689  0.6288  1.5486
13869TIP3    H263023   3.193   1.281   2.497 -2.3376  0.1126 -2.0923
13870TIP3   OH263024   0.795   2.315  15.827 -0.5327  0.3761 -0.1331
13870TIP3    H163025   0.850   2.244  15.793 -0.8640 -0.1864  0.4933
13870TIP3    H263026   0.745   2.275  15.897 -0.2489  1.3969  0.6724
13871TIP3   OH263027   0.696   4.716   1.490 -0.2657 -0.6125  0.0263
13871TIP3    H163028   0.679   4.692   1.581  1.5062 -0.2069  0.4974
13871TIP3    H263029   0.779   4.674   1.469 -0.8092 -0.9766 -1.5372
13872TIP3   OH263030   3.808   1.409  11.284  0.8269  0.4373 -0.6241
13872TIP3    H163031   3.779   1.350  11.214 -1.0632  0.1900  0.3054
13872TIP3    H263032   3.881   1.363  11.325  2.3796  0.8559 -2.7517
13873TIP3   OH263033   5.160   5.587  15.763 -0.3936 -0.1570 -0.4411
13873TIP3    H163034   5.187   5.655  15.826  1.4053 -0.6560 -0.6058
13873TIP3    H263035   5.242   5.562  15.720 -1.1188 -2.0354 -0.7895
13874TIP3   OH263036   1.782   1.733  11.282  0.2183  0.4560 -0.2622
13874TIP3    H163037   1.691   1.722  11.255 -0.1071 -3.1056  1.6648
13874TIP3    H263038   1.833   1.706  11.206 -0.4434 -0.2511 -0.4748
13875TIP3   OH263039   6.307   5.000  12.801  0.6673 -0.3000 -0.4477
13875TIP3    H163040   6.264   5.085  12.803  1.9610  0.3879 -0.7029
13875TIP3    H263041   6.395   5.017  12.836  0.0627 -2.0958  2.3405
13876TIP3   OH263042   4.121   1.654   0.038 -0.1616  0.7240  0.3032
13876TIP3    H163043   4.031   1.647   0.067 -0.0691  0.2227  0.4741
13876TIP3    H263044   4.138   1.748   0.036 -1.0950  0.8755 -1.0303
13877TIP3   OH263045   1.100   1.994  11.250  0.0262  0.0944  0.5965
13877TIP3    H163046   1.109   2.053  11.325  0.5656  0.9709 -0.1352
13877TIP3    H263047   1.013   1.956  11.259 -0.2644  0.8734  1.1789
13878TIP3   OH263048   3.931   6.608  14.342  0.2645  0.4345 -0.0512
13878TIP3    H163049   3.866   6.556  14.294  1.6427 -0.5528 -0.9332
13878TIP3    H263050   4.015   6.565  14.323  1.1418  1.4261  1.3769
13879TIP3   OH263051   1.367   6.605  12.525 -0.1993  0.2373  0.3127
13879TIP3    H163052   1.438   6.668  12.542  1.6194 -1.7951  0.6611
13879TIP3    H263053   1.399   6.553  12.452 -1.2367 -0.8628  0.6215
13880TIP3   OH263054   3.615   5.200   5.673  0.2734  0.6404  0.2812
13880TIP3    H163055   3.672   5.269   5.639 -0.0038  1.3572  1.2225
13880TIP3    H263056   3.657   5.173   5.755 -0.3292  0.6402  0.5963
13881TIP3   OH263057   5.901   5.587   2.033 -0.0225 -0.0925  0.4451
13881TIP3    H163058   5.903   5.591   2.128  0.7720 -0.0680  0.4345
13881TIP3    H263059   5.824   5.639   2.008  0.8865  1.5994  1.0039
13882TIP3   OH263060   1.146   5.885   5.081 -0.1197 -0.0789 -0.2875
13882TIP3    H163061   1.079   5.848   5.139 -0.3221 -1.4958 -1.3639
13882TIP3    H263062   1.107   5.966   5.048 -1.2693 -0.7941 -0.7638
13883TIP3   OH263063   1.295   0.178   0.636 -0.3295  0.4145  0.1853
13883TIP3    H163064   1.271   0.253   0.581  0.6543  1.0032  0.5183
13883TIP3    H263065   1.356   0.128   0.581 -0.8808 -0.0643  0.0143
13884TIP3   OH263066   3.402   0.536  16.541  0.6180 -0.7766 -0.2117
13884TIP3    H163067   3.439   0.511  16.626  1.6608 -0.5911 -0.5927
13884TIP3    H263068   3.424   0.629  16.532  0.0183 -0.6566 -0.4315
13885TIP3   OH263069   2.456   1.442   3.480  0.3314  0.3830 -0.2332
13885TIP3    H163070   2.391   1.429   3.550  0.6097  1.2177  0.1961
13885TIP3    H263071   2.537   1.460   3.527  0.2691  2.1616 -0.7713
13886TIP3   OH263072   6.739   1.058  11.702 -0.0370 -0.5215  0.3772
13886TIP3    H163073   6.747   1.092  11.791 -1.4618  1.1340 -0.0760
13886TIP3    H263074   6.820   1.083  11.659 -0.6511  1.5259  0.3394
13887TIP3   OH263075   1.407   5.163  16.809 -0.3992  0.0876 -0.0636
13887TIP3    H163076   1.456   5.111  16.745 -1.4171 -0.4171 -0.4566
13887TIP3    H263077   1.318   5.129  16.804 -1.0526  1.7308 -0.1747
13888TIP3   OH263078   4.365   5.093   0.939  0.4424  0.3237  0.2727
13888TIP3    H163079   4.356   5.029   1.010  1.3020 -0.0462  0.0592
13888TIP3    H263080   4.385   5.176   0.984 -0.0269  0.3111  0.5107
13889TIP3   OH263081   2.432   3.699  10.762  0.5467 -0.3889 -0.1844
13889TIP3    H163082   2.395   3.678  10.848 -0.7556 -0.2434 -0.6907
13889TIP3    H263083   2.482   3.621  10.738  0.9890 -0.4026  0.7242
13890TIP3   OH263084   5.474   4.971  13.478  0.3185 -0.4704  0.4331
13890TIP3    H163085   5.430   4.904  13.530  1.7261 -2.5078 -0.8963
13890TIP3    H263086   5.564   4.973  13.511  0.4997  0.2207 -0.0722
13891TIP3   OH263087   4.092   1.629  10.590  0.4528  0.0088 -0.3930
13891TIP3    H163088   4.028   1.653  10.522 -0.5476 -0.5283  0.3403
13891TIP3    H263089   4.170   1.606  10.541 -0.5948 -1.4834 -1.4618
13892TIP3   OH263090   6.226   2.137  14.946  0.3669 -0.1555  0.6922
13892TIP3    H163091   6.261   2.088  15.020 -0.0163 -0.3639  0.7376
13892TIP3    H263092   6.303   2.176  14.905  0.8355 -1.8926 -0.1504
13893TIP3   OH263093   0.434   4.525  15.361 -0.0195  0.0726  0.3722
13893TIP3    H163094   0.423   4.620  15.374 -0.1012  0.2131 -0.6677
13893TIP3    H263095   0.522   4.507  15.395  0.0771  0.5570  0.3991
13894TIP3   OH263096   3.499   6.367  15.177  0.6114  0.2884  0.0437
13894TIP3    H163097   3.404   6.378  15.187  0.5161 -1.2617  1.1894
13894TIP3    H263098   3.524   6.307  15.247  2.4042  0.4202 -0.4324
13895TIP3   OH263099   2.057   2.807   4.353  0.4666  0.2587 -0.1550
13895TIP3    H163100   2.123   2.743   4.380 -1.0756 -0.7179  1.5117
13895TIP3    H263101   1.986   2.755   4.317 -0.2440  1.1506 -0.0756
13896TIP3   OH263102   0.438   2.671   4.604 -0.0927 -0.0420  0.1722
13896TIP3    H163103   0.467   2.724   4.529 -0.0099 -0.6033 -0.2011
13896TIP3    H263104   0.449   2.581   4.574 -0.9757 -0.2692  0.5121
13897TIP3   OH263105   6.773   1.782   6.167 -0.2746 -0.3271  0.4801
13897TIP3    H163106   6.800   1.794   6.076  1.1079  2.1456  1.1254
13897TIP3    H263107   6.825   1.709   6.198  0.5946 -0.0308 -0.2386
13898TIP3   OH263108   2.138   0.099  14.486 -0.6482  0.5772 -0.1642
13898TIP3    H163109   2.053   0.055  14.487  0.3844 -1.6455 -1.8465
13898TIP3    H263110   2.202   0.028  14.492  1.1039  1.9822 -1.1580
13899TIP3   OH263111   4.596   5.358   1.447 -0.0322  0.2655 -0.6181
13899TIP3    H163112   4.625   5.445   1.473 -0.8467  0.5683 -0.6988
13899TIP3    H263113   4.656   5.334   1.376 -0.9002  1.5108 -1.8105
13900TIP3   OH263114   2.739   0.466  14.981  0.1695  0.0992  0.1834
13900TIP3    H163115   2.728   0.510  15.065  1.8816  0.7376  0.1235
13900TIP3    H263116   2.651   0.439  14.956 -0.2158 -1.9033  3.1147
13901TIP3   OH263117   5.865   2.871   3.837  0.0780  0.4371 -0.0342
13901TIP3    H163118   5.959   2.886   3.836  0.0697  0.5216  0.2942
13901TIP3    H263119   5.827   2.958   3.842 -0.0199  0.4085 -0.2804
13902TIP3   OH263120   3.996   5.377   0.211 -0.3656 -0.2910  0.4485
13902TIP3    H163121   4.066   5.344   0.268  1.2856  2.4933  0.2186
13902TIP3    H263122   3.941   5.430   0.268 -0.9304 -0.5683  0.1670
13903TIP3   OH263123   5.017   3.898   4.445  0.7222 -0.3604 -0.4310
13903TIP3    H163124   5.043   3.983   4.480  1.0197 -0.5248 -0.2542
13903TIP3    H263125   5.062   3.891   4.360  0.7550 -0.3714 -0.4128
13904TIP3   OH263126   4.120   4.270  14.125 -0.2979 -0.1644 -0.5281
13904TIP3    H163127   4.032   4.257  14.162  0.1265 -2.1970 -0.1181
13904TIP3    H263128   4.176   4.210  14.175  0.6672 -1.5015 -3.0645
13905TIP3   OH263129   3.625   0.606  14.456  0.2713  0.3233 -0.3200
13905TIP3    H163130   3.603   0.520  14.421  1.7293 -0.7355  1.2019
13905TIP3    H263131   3.545   0.636  14.499 -0.0957 -0.5032 -0.4111
13906TIP3   OH263132   3.965   5.189   1.103  0.0632 -0.3232 -0.2822
13906TIP3    H163133   3.903   5.146   1.162 -0.2643  1.4030  0.6958
13906TIP3    H263134   4.043   5.203   1.155 -0.1334  0.9804 -0.2980
13907TIP3   OH263135   3.401   2.123   3.033 -0.3218 -0.0320 -0.0155
13907TIP3    H163136   3.464   2.186   3.069  0.4351 -0.7942  0.0177
13907TIP3    H263137   3.328   2.125   3.094 -0.0514  0.3891  0.3052
13908TIP3   OH263138   6.516   2.802  15.549  0.3371  0.0274  0.4754
13908TIP3    H163139   6.535   2.708  15.550  1.4971  0.2251 -0.3583
13908TIP3    H263140   6.433   2.810  15.596 -0.2696 -1.5178 -0.2447
13909TIP3   OH263141   2.693   1.172   6.431  0.1365  0.6227 -0.3564
13909TIP3    H163142   2.628   1.213   6.488  1.6399  0.4366  1.6231
13909TIP3    H263143   2.681   1.078   6.445 -0.2081  0.5208 -1.2516
13910TIP3   OH263144   4.735   1.276   2.151  0.5921  0.5630  0.0692
13910TIP3    H163145   4.759   1.259   2.060 -1.4521  0.6808 -0.5561
13910TIP3    H263146   4.784   1.212   2.201  0.5442 -0.5919 -1.2954
13911TIP3   OH263147   6.030   4.404  16.473  0.6051  0.0562  0.2573
13911TIP3    H163148   5.960   4.435  16.530 -0.0048 -0.5976 -0.1235
13911TIP3    H263149   6.093   4.364  16.533  0.7185  0.7418  0.6112
13912TIP3   OH263150   2.402   4.125  10.706  0.0497 -0.2100 -0.3065
13912TIP3    H163151   2.475   4.178  10.677 -1.0771  1.6197  0.0537
13912TIP3    H263152   2.326   4.161  10.661 -0.9131 -0.8501  0.7420
13913TIP3   OH263153   0.957   5.787   3.687  0.0303 -0.0427 -0.2859
13913TIP3    H163154   0.979   5.864   3.634 -0.1343 -0.3558 -0.8198
13913TIP3    H263155   0.897   5.737   3.632  1.2051 -1.2492 -0.5131
13914TIP3   OH263156   4.538   1.856  16.876  0.5011  0.3438 -0.3004
13914TIP3    H163157   4.549   1.789  16.943 -2.0465  0.5425  0.4187
13914TIP3    H263158   4.500   1.930  16.923 -0.3379  0.8670 -1.7500
13915TIP3   OH263159   1.509   0.366  14.273 -0.1824 -0.0787  0.3192
13915TIP3    H163160   1.527   0.455  14.303 -0.1714 -0.2868  0.9360
13915TIP3    H263161   1.556   0.310  14.335 -1.2599 -0.5564  0.7265
13916TIP3   OH263162   2.379   1.226   1.182 -0.0419 -0.1377  0.3765
13916TIP3    H163163   2.457   1.277   1.159 -0.5434  2.5022  3.7085
13916TIP3    H263164   2.307   1.272   1.140 -0.1930 -0.1468  0.6260
13917TIP3   OH263165   5.890   5.460  11.922  0.1752  0.2893  0.4455
13917TIP3    H163166   5.890   5.487  12.014 -2.6101  0.2469  0.5547
13917TIP3    H263167   5.863   5.538  11.874  0.2980 -0.0525 -0.1943
13918TIP3   OH263168   3.063   4.136  10.999  0.3066 -1.0663 -0.6447
13918TIP3    H163169   3.105   4.187  11.069 -1.3422  1.3894 -1.3079
13918TIP3    H263170   3.087   4.045  11.018  0.8740 -0.4033  2.4239
13919TIP3   OH263171   0.724   2.200   3.625 -0.0124 -0.2765  0.1342
13919TIP3    H163172   0.663   2.221   3.695 -0.5318 -0.5527 -0.2275
13919TIP3    H263173   0.811   2.203   3.666 -0.1777  1.1093  0.4302
13920TIP3   OH263174   4.612   1.656  14.296  0.7940  0.1327 -0.1758
13920TIP3    H163175   4.576   1.743  14.278  0.9063 -0.0285 -1.2342
13920TIP3    H263176   4.639   1.660  14.388  0.8943  1.2464 -0.2426
13921TIP3   OH263177   3.213   5.344   0.833 -0.5393  0.1598 -0.0734
13921TIP3    H163178   3.163   5.284   0.890 -0.0363 -0.0751  0.1233
13921TIP3    H263179   3.296   5.299   0.819  0.3867  1.4027  1.1873
13922TIP3   OH263180   6.142   1.775  14.179  0.4391 -0.0525  0.7047
13922TIP3    H163181   6.126   1.849  14.120  0.6179 -0.6214 -0.0657
13922TIP3    H263182   6.233   1.785  14.205 -0.5497  2.3677  3.9583
13923TIP3   OH263183   6.774   5.435  13.942  0.0521  0.3703 -0.0377
13923TIP3    H163184   6.792   5.519  13.899 -1.6008  0.7933  0.0235
13923TIP3    H263185   6.836   5.432  14.015  2.1494  0.1588 -1.7166
13924TIP3   OH263186   1.497   1.059  14.296  0.6501  0.3921 -0.6581
13924TIP3    H163187   1.432   0.989  14.303  0.3081  0.6437 -1.2307
13924TIP3    H263188   1.445   1.139  14.291  1.0563  1.0078  2.9099
13925TIP3   OH263189   5.326   1.450  14.595  0.3377 -0.6370  0.3507
13925TIP3    H163190   5.234   1.453  14.621  0.2708  0.8071  0.0349
13925TIP3    H263191   5.373   1.485  14.671  0.2999  1.8450 -0.7001
13926TIP3   OH263192   4.604   0.720  16.583  0.1879 -0.1340  0.6964
13926TIP3    H163193   4.692   0.727  16.620 -0.2986 -3.3984  2.9953
13926TIP3    H263194   4.570   0.638  16.621 -3.7192  0.8392 -0.3395
13927TIP3   OH263195   5.409   0.211   6.162  0.2235  0.1551  0.1140
13927TIP3    H163196   5.470   0.151   6.206 -1.8531 -0.6420  2.0640
13927TIP3    H263197   5.325   0.197   6.206 -1.2389  1.7386 -1.9854
13928TIP3   OH263198   2.595   2.138  17.049  0.0236  0.4796  0.0550
13928TIP3    H163199   2.582   2.185  16.966 -0.7204 -0.1905 -0.2183
13928TIP3    H263200   2.507   2.128  17.085  0.3067  0.4400  0.7495
13929TIP3   OH263201   6.683   1.764   1.977 -0.0608 -0.4839  0.0460
13929TIP3    H163202   6.622   1.769   1.903 -0.1711 -1.2065  0.0779
13929TIP3    H263203   6.630   1.787   2.053 -0.5288 -1.8813  0.1824
13930TIP3   OH263204   0.669   2.370   4.964  0.2506  0.4053 -0.1709
13930TIP3    H163205   0.711   2.415   4.891  0.2839  1.4923  0.5036
13930TIP3    H263206   0.709   2.283   4.965  0.4630  0.4769 -1.2519
13931TIP3   OH263207   4.601   6.193  11.568 -0.1632 -0.2100  0.4813
13931TIP3    H163208   4.517   6.233  11.588 -0.0111 -0.6131  2.1442
13931TIP3    H263209   4.587   6.145  11.487 -0.9436  1.4031 -0.3748
13932TIP3   OH263210   1.519   0.921   4.633 -0.1840 -0.0139 -0.2068
13932TIP3    H163211   1.469   0.851   4.590  0.6681  0.2308 -1.6404
13932TIP3    H263212   1.529   0.988   4.566  2.6993 -0.3705 -0.2240
13933TIP3   OH263213   2.917   2.107   0.737  0.1146 -0.4019  0.0457
13933TIP3    H163214   2.851   2.169   0.769  1.1036  1.1966 -0.8619
13933TIP3    H263215   2.911   2.112   0.642 -0.2743 -2.2930 -0.0617
13934TIP3   OH263216   4.422   2.494  15.484 -0.1555 -0.2236 -0.0131
13934TIP3    H163217   4.515   2.471  15.493 -0.5983 -2.0523  0.3823
13934TIP3    H263218   4.376   2.414  15.510 -1.8357  0.4758 -0.7386
13935TIP3   OH263219   5.491   0.371  12.327  0.0040  0.1072  0.5647
13935TIP3    H163220   5.571   0.423  12.314 -0.9277  1.7360  1.0579
13935TIP3    H263221   5.482   0.367  12.422 -0.4526 -0.1326  0.5089
13936TIP3   OH263222   0.170   1.965   4.505 -0.1424  0.1316 -0.5834
13936TIP3    H163223   0.131   1.907   4.439  0.3746 -0.1278 -0.6697
13936TIP3    H263224   0.264   1.959   4.489 -0.0670  0.8098 -0.4335
13937TIP3   OH263225   0.314   2.227   5.793 -0.4783 -0.4413 -0.0248
13937TIP3    H163226   0.366   2.288   5.846 -0.0873 -1.0353  0.2788
13937TIP3    H263227   0.359   2.143   5.802 -0.6102 -0.6278 -1.0082
13938TIP3   OH263228   2.258   5.125  10.679  0.3946  0.2327  0.8250
13938TIP3    H163229   2.327   5.073  10.638  0.4616  0.0818  1.1274
13938TIP3    H263230   2.188   5.127  10.615  0.2555 -0.5156  0.9488
13939TIP3   OH263231   0.096   4.518   1.974  0.3208  0.6738 -0.1181
13939TIP3    H163232   0.138   4.433   1.981 -1.2108 -0.0826  0.4869
13939TIP3    H263233   0.088   4.534   1.880  0.9662  0.3327 -0.2312
13940TIP3   OH263234   4.481   6.220  15.875  0.3231  0.1152 -0.1920
13940TIP3    H163235   4.557   6.240  15.820  0.4292  0.6294  0.1369
13940TIP3    H263236   4.511   6.150  15.933 -0.3898 -1.9003 -2.1052
13941TIP3   OH263237   5.185   2.113   1.406 -0.3893  0.4685 -0.2556
13941TIP3    H163238   5.111   2.073   1.452  1.0141 -0.5804  1.2133
13941TIP3    H263239   5.174   2.207   1.419 -2.2486  0.4736 -1.3925
13942TIP3   OH263240   1.377   1.340   4.164  0.2270  0.0675 -0.3268
13942TIP3    H163241   1.467   1.341   4.132  0.1958  2.7587 -0.5874
13942TIP3    H263242   1.323   1.333   4.085  0.2284  2.0619 -0.5731
13943TIP3   OH263243   5.147   0.879  12.741  0.6018 -0.0837 -0.1378
13943TIP3    H163244   5.179   0.843  12.823 -2.3899 -0.5128  0.9917
13943TIP3    H263245   5.131   0.802  12.686 -0.1715 -0.0482  0.0237
13944TIP3   OH263246   2.570   6.384  16.835  0.4116 -0.0346  0.1176
13944TIP3    H163247   2.652   6.348  16.868  1.0526  0.6873 -0.6431
13944TIP3    H263248   2.573   6.476  16.861 -0.6071 -0.2051  0.9089
13945TIP3   OH263249   2.698   2.375  11.610  0.1439  0.8253  0.0572
13945TIP3    H163250   2.743   2.458  11.621 -2.1397  2.0901  0.4422
13945TIP3    H263251   2.686   2.366  11.515  4.0524 -1.2353 -0.4157
13946TIP3   OH263252   0.739   4.046  10.667  0.4429 -0.1530 -0.0201
13946TIP3    H163253   0.761   3.953  10.669  0.0914 -0.2680  2.9122
13946TIP3    H263254   0.657   4.050  10.617  0.2203 -1.4798  0.2066
13947TIP3   OH263255   0.517   5.416  15.896 -0.4631 -0.2179  0.3330
13947TIP3    H163256   0.431   5.402  15.857 -0.2923  1.0458 -0.5860
13947TIP3    H263257   0.499   5.449  15.984 -0.9846  1.3549 -0.3284
13948TIP3   OH263258   6.277   5.910  15.782  0.0590 -0.1835  0.0635
13948TIP3    H163259   6.304   5.820  15.798  2.0160  0.0221 -1.6187
13948TIP3    H263260   6.282   5.953  15.868 -1.5503 -1.7758  1.0102
13949TIP3   OH263261   6.300   0.939   2.020  0.4030  0.0726 -0.4603
13949TIP3    H163262   6.225   0.916   1.965  0.0536 -0.9074  0.3913
13949TIP3    H263263   6.348   0.858   2.031  1.2603  0.5672 -0.4928
13950TIP3   OH263264   0.745   6.369   3.976 -0.2218 -0.0596 -0.4199
13950TIP3    H163265   0.684   6.438   3.949 -0.3053 -0.4816 -1.3393
13950TIP3    H263266   0.831   6.409   3.968 -0.1870 -0.3690 -2.0242
13951TIP3   OH263267   6.520   5.110  15.908 -0.5846  0.0408  0.4387
13951TIP3    H163268   6.441   5.059  15.892 -0.1371 -0.1805 -1.2365
13951TIP3    H263269   6.556   5.128  15.821  0.1783  1.7879  1.0551
13952TIP3   OH263270   0.263   6.709   2.881 -0.1466  0.1150  0.0267
13952TIP3    H163271   0.290   6.795   2.847 -3.9831  1.0224 -1.1508
13952TIP3    H263272   0.320   6.647   2.836  1.2135  1.8792 -0.8136
13953TIP3   OH263273   3.061   4.668   1.667  0.0387 -0.2804 -0.3966
13953TIP3    H163274   3.053   4.580   1.629  0.4986 -0.6916  0.4346
13953TIP3    H263275   2.996   4.669   1.737  0.6459 -0.2749  0.1721
13954TIP3   OH263276   1.036   6.411  14.960 -0.2848  0.3414 -0.0809
13954TIP3    H163277   1.064   6.485  15.014  1.0745 -0.1282 -0.0795
13954TIP3    H263278   1.118   6.378  14.921 -0.8908 -0.9833 -0.2953
13955TIP3   OH263279   4.934   6.612   5.512  0.2857 -0.5036  0.7392
13955TIP3    H163280   4.865   6.646   5.456  0.0055 -0.2637  1.2233
13955TIP3    H263281   4.979   6.689   5.545  0.1221 -0.6227  1.2491
13956TIP3   OH263282   2.876   0.223  15.017 -0.5976  0.1020  0.1023
13956TIP3    H163283   2.886   0.212  15.111 -0.7346  0.3636  0.1473
13956TIP3    H263284   2.826   0.304  15.007 -0.7326 -0.0152 -0.1879
13957TIP3   OH263285   2.317   5.466   1.995 -0.2257  0.6561 -0.7135
13957TIP3    H163286   2.307   5.560   1.981 -0.2951  0.6145 -0.9331
13957TIP3    H263287   2.234   5.439   2.034 -0.1650  0.7054 -0.5490
13958TIP3   OH263288   5.710   0.482  12.080 -0.0037 -0.0122  1.0202
13958TIP3    H163289   5.654   0.451  12.009 -1.2440 -0.0511  1.9747
13958TIP3    H263290   5.797   0.488  12.041 -0.7157  0.4034 -0.6306
13959TIP3   OH263291   0.528   6.570   1.927 -0.6109  0.0904 -0.2288
13959TIP3    H163292   0.552   6.602   1.840 -2.6280  1.2660 -0.4282
13959TIP3    H263293   0.489   6.646   1.970 -1.0961 -0.8843  1.1289
13960TIP3   OH263294   1.883   6.434   0.021  0.5225 -0.4402  0.2071
13960TIP3    H163295   1.812   6.417   0.082  1.4981 -0.3832  1.3807
13960TIP3    H263296   1.952   6.371   0.044  1.1382 -0.0320 -0.4434
13961TIP3   OH263297   4.120   4.777  14.055 -0.5197  0.1463 -0.2774
13961TIP3    H163298   4.036   4.780  14.008 -1.1662  1.4226  0.9024
13961TIP3    H263299   4.139   4.683  14.064 -0.8697 -0.1446 -2.1690
13962TIP3   OH263300   6.801   2.801   5.142 -0.4860  0.3149 -0.1910
13962TIP3    H163301   6.873   2.835   5.089  0.4081  0.3422  0.9893
13962TIP3    H263302   6.722   2.820   5.092  0.2376  1.3857 -0.9560
13963TIP3   OH263303   5.041   4.171  12.432  0.8014  0.0266 -0.2104
13963TIP3    H163304   4.987   4.112  12.379  0.6211  1.6583 -1.9500
13963TIP3    H263305   4.985   4.247  12.447  2.1737  1.2617 -1.0657
13964TIP3   OH263306   3.055   3.908  11.815  0.3942  0.1158 -0.4990
13964TIP3    H163307   3.021   3.883  11.901  1.9449  1.1295  0.4591
13964TIP3    H263308   3.080   4.000  11.826  2.3912 -0.2682 -1.4445
13965TIP3   OH263309   6.578   4.148  16.243  1.1792  0.3898  0.1837
13965TIP3    H163310   6.487   4.172  16.226  1.2856 -0.4764 -1.9024
13965TIP3    H263311   6.626   4.231  16.239  0.6583  0.6754 -0.1951
13966TIP3   OH263312   1.312   6.227   2.518  0.0069  0.0944 -0.0564
13966TIP3    H163313   1.286   6.208   2.428 -0.1359 -0.3624  0.0779
13966TIP3    H263314   1.318   6.141   2.560 -0.9353  0.3599  0.6491
13967TIP3   OH263315   6.758   3.946  15.328  0.1052  0.1677 -0.2574
13967TIP3    H163316   6.783   4.039  15.330 -1.6125  0.6985 -0.9611
13967TIP3    H263317   6.662   3.948  15.322 -0.1134 -1.6975  1.6715
13968TIP3   OH263318   2.328   6.730   4.316  0.0942  0.8029  0.1503
13968TIP3    H163319   2.269   6.788   4.270 -1.0900  0.1199  0.7663
13968TIP3    H263320   2.286   6.644   4.312  0.1760  0.6329  2.0875
13969TIP3   OH263321   2.173   5.863   2.907  0.5532 -0.5354 -0.3677
13969TIP3    H163322   2.093   5.814   2.924  0.6023 -0.2212  0.8723
13969TIP3    H263323   2.145   5.939   2.857 -0.4335  1.0354  2.3212
13970TIP3   OH263324   3.927   2.596  15.998  0.0079 -0.0202  0.3646
13970TIP3    H163325   3.957   2.671  16.050 -2.6936  1.4912 -0.1405
13970TIP3    H263326   3.949   2.618  15.908 -0.6995  0.1090  0.2244
13971TIP3   OH263327   4.153   0.918   4.801  0.0643 -0.0654 -0.0843
13971TIP3    H163328   4.161   1.008   4.769  1.4407 -0.2238 -0.2708
13971TIP3    H263329   4.105   0.926   4.883  1.9187  1.1380  0.9724
13972TIP3   OH263330   5.446   6.600  13.337  0.0673  0.3997  0.0675
13972TIP3    H163331   5.470   6.532  13.274 -2.0249 -1.2764  0.9479
13972TIP3    H263332   5.362   6.572  13.373 -0.0855  2.6207  1.7266
13973TIP3   OH263333   0.028   1.375   5.961  0.3671  0.1989 -0.4111
13973TIP3    H163334   0.053   1.342   5.875  0.7392  1.9000 -1.0030
13973TIP3    H263335  -0.031   1.448   5.943 -1.7977 -1.1038  0.8768
13974TIP3   OH263336   4.855   6.735  11.581  0.1043 -0.2754  0.3856
13974TIP3    H163337   4.800   6.811  11.563 -0.4997 -0.8348 -0.1681
13974TIP3    H263338   4.800   6.679  11.636  1.4221  0.7792  2.9309
13975TIP3   OH263339   1.829   0.831   0.290  0.4815 -0.5166 -0.0074
13975TIP3    H163340   1.854   0.923   0.293 -0.3368 -0.3006  1.4556
13975TIP3    H263341   1.754   0.828   0.231  0.5055 -0.2447 -0.0508
13976TIP3   OH263342   4.771   1.782   0.344  0.2759 -0.4477 -0.1403
13976TIP3    H163343   4.831   1.824   0.405 -1.2452 -0.7489  1.6838
13976TIP3    H263344   4.752   1.697   0.384 -0.7335 -0.6726 -1.0550
13977TIP3   OH263345   1.011   2.442   3.281  0.8679  0.2200 -0.2020
13977TIP3    H163346   0.926   2.419   3.320  0.6747  0.6994 -0.3307
13977TIP3    H263347   0.992   2.455   3.188  1.2362 -0.4412 -0.3799
13978TIP3   OH263348   1.282   0.684   4.270 -0.0966  0.2427  0.2097
13978TIP3    H163349   1.257   0.776   4.272  1.8959  0.9531 -2.0978
13978TIP3    H263350   1.322   0.668   4.356 -3.0515  0.6149  1.7644
13979TIP3   OH263351   2.047   6.632  15.016  0.5488 -0.3447  0.0640
13979TIP3    H163352   2.083   6.562  14.962  0.7548  0.7688 -1.2994
13979TIP3    H263353   2.120   6.662  15.070  1.1268  0.4086 -1.0908
13980TIP3   OH263354   0.312   1.842   4.910  0.2955 -0.1797  0.0652
13980TIP3    H163355   0.396   1.825   4.867  0.8740  1.0054  0.6535
13980TIP3    H263356   0.317   1.935   4.935 -0.7364 -0.3836  1.0928
13981TIP3   OH263357   0.235   1.834   0.658 -0.1306 -0.3629 -0.4358
13981TIP3    H163358   0.222   1.826   0.564 -2.4195 -0.5175 -0.1589
13981TIP3    H263359   0.208   1.923   0.679 -0.7483 -0.6935  0.2202
13982TIP3   OH263360   3.830   2.097   0.848  0.4857  0.0348 -0.0119
13982TIP3    H163361   3.786   2.017   0.875  1.3080  0.6768  3.9388
13982TIP3    H263362   3.760   2.161   0.838 -0.1405 -0.9782 -2.8400
13983TIP3   OH263363   5.163   1.819  11.350 -0.4436 -0.5470 -0.1773
13983TIP3    H163364   5.083   1.872  11.356 -0.3007 -0.3819  0.3400
13983TIP3    H263365   5.234   1.881  11.367 -0.1014 -0.4227 -1.8870
13984TIP3   OH263366   3.082   1.123  12.124 -0.2336 -0.4861  0.0552
13984TIP3    H163367   3.046   1.054  12.180  0.5411 -1.3517 -0.4879
13984TIP3    H263368   3.155   1.159  12.174 -1.0552  0.4297  0.6303
13985TIP3   OH263369   6.067   1.495  15.504 -0.1798  0.2735 -0.4629
13985TIP3    H163370   5.979   1.468  15.481  0.1518 -0.5600 -0.7768
13985TIP3    H263371   6.124   1.439  15.452  0.5366  0.6601 -0.1081
13986TIP3   OH263372   0.873   5.250  12.466  0.9024  0.8122 -0.3472
13986TIP3    H163373   0.875   5.277  12.374  0.0693  0.9333 -0.3391
13986TIP3    H263374   0.903   5.328  12.514 -1.5121  1.8321 -0.3242
13987TIP3   OH263375   0.293   3.935   3.828 -0.3888  0.5798  1.0054
13987TIP3    H163376   0.358   3.961   3.893 -0.4329  2.0010  0.5120
13987TIP3    H263377   0.296   4.004   3.762 -1.1468 -0.2527  0.0602
13988TIP3   OH263378   1.439   1.392  15.270 -0.3175 -0.3823  0.3099
13988TIP3    H163379   1.418   1.481  15.297 -0.9014 -1.1585  2.6372
13988TIP3    H263380   1.525   1.374  15.307  0.1215 -0.5589 -0.7638
13989TIP3   OH263381   2.691   5.862   1.608  0.4800  0.3580 -0.1851
13989TIP3    H163382   2.766   5.920   1.599  1.0925 -0.3745  0.1132
13989TIP3    H263383   2.721   5.777   1.575 -0.7280  0.4443 -1.6236
13990TIP3   OH263384   1.888   5.062   3.618  0.1447 -0.0203 -0.3842
13990TIP3    H163385   1.849   5.102   3.541 -0.4822 -1.6202 -0.9418
13990TIP3    H263386   1.821   5.069   3.686 -0.1672 -0.5395 -0.6279
13991TIP3   OH263387   2.550   2.091  14.721  0.2406  0.0994 -0.5747
13991TIP3    H163388   2.579   2.003  14.746  0.4819  0.4854  0.5443
13991TIP3    H263389   2.484   2.076  14.654 -0.5697 -0.9956  0.4261
13992TIP3   OH263390   4.613   0.951  10.829 -0.4412 -0.0882  0.4526
13992TIP3    H163391   4.620   1.007  10.907  0.6939 -0.3174  0.5288
13992TIP3    H263392   4.568   1.005  10.765  0.6122  0.9268  0.5307
13993TIP3   OH263393   0.775   2.147  14.790 -0.2179 -0.1364  0.1639
13993TIP3    H163394   0.683   2.126  14.774 -0.9772  1.6281  1.8164
13993TIP3    H263395   0.800   2.205  14.719 -0.9657  0.8591  0.7048
13994TIP3   OH263396   1.997   6.491   2.652  0.1481  0.2507 -0.3953
13994TIP3    H163397   2.024   6.500   2.743  1.9330  1.7485 -1.0191
13994TIP3    H263398   1.931   6.560   2.640  0.4166  0.5031 -0.4195
13995TIP3   OH263399   3.254   2.242  16.084 -0.4480  0.0285 -0.1560
13995TIP3    H163400   3.203   2.162  16.089 -2.2836  1.1952  2.4046
13995TIP3    H263401   3.326   2.228  16.146  0.2161 -0.2371 -0.9745
13996TIP3   OH263402   3.415   4.470   1.914  0.3265 -0.2880  0.2951
13996TIP3    H163403   3.351   4.404   1.887 -0.5333  1.0290 -1.0029
13996TIP3    H263404   3.463   4.491   1.834  2.0667 -0.8620  1.1314
13997TIP3   OH263405   3.308   1.855   1.669  0.9315  0.2477  0.3120
13997TIP3    H163406   3.248   1.813   1.730 -0.0121  2.3369  0.9400
13997TIP3    H263407   3.373   1.788   1.648 -0.3348 -1.3907  1.3889
13998TIP3   OH263408   6.295   3.529   2.121 -0.5027 -0.3300  0.0066
13998TIP3    H163409   6.264   3.479   2.046 -0.4851 -0.1463 -0.1229
13998TIP3    H263410   6.266   3.619   2.104  0.9014  0.0450 -0.5828
13999TIP3   OH263411   2.220   6.347  15.102  0.2831 -0.1280  0.2281
13999TIP3    H163412   2.211   6.266  15.151  1.9258 -0.5000 -0.0034
13999TIP3    H263413   2.176   6.413  15.155  0.2025 -0.9077  1.1545
14000TIP3   OH263414   4.700   6.340   6.248  0.2088  0.2886 -0.0415
14000TIP3    H163415   4.683   6.430   6.278  0.4956  0.4169 -0.2573
14000TIP3    H263416   4.792   6.325   6.270  0.5992  0.6014 -1.3987
14001TIP3   OH263417   0.829   5.121   0.768 -0.8986 -0.4632  0.0747
14001TIP3    H163418   0.826   5.182   0.695  1.3677  0.8405  0.9696
14001TIP3    H263419   0.890   5.053   0.740 -1.4360 -0.9431  0.0629
14002TIP3   OH263420   3.074   0.047   0.820  0.0262 -0.1409 -0.5091
14002TIP3    H163421   3.058  -0.008   0.897 -0.1037 -1.7334 -1.6178
14002TIP3    H263422   3.149   0.101   0.844  0.5296 -1.2114  0.4489
14003TIP3   OH263423   0.781   0.815   2.752  0.3518  0.2177  0.0237
14003TIP3    H163424   0.835   0.873   2.698 -0.1273 -1.0741 -1.9609
14003TIP3    H263425   0.693   0.852   2.747  0.3142  0.1182 -0.0629
14004TIP3   OH263426   2.197   0.510  11.244  0.2109  0.4134 -0.0771
14004TIP3    H163427   2.255   0.579  11.212  0.3656  0.9877  1.3980
14004TIP3    H263428   2.169   0.539  11.330  0.2047 -1.3130  0.5520
14005TIP3   OH263429   3.886   6.454  11.122 -0.1059  0.3518 -0.1260
14005TIP3    H163430   3.911   6.545  11.135 -0.6223  0.3073  1.2984
14005TIP3    H263431   3.792   6.457  11.106 -0.2459  0.0169  0.6076
14006TIP3   OH263432   3.933   3.570  12.281 -0.2013  0.0722  0.1699
14006TIP3    H163433   3.838   3.575  12.294 -0.4744 -1.6992 -0.7720
14006TIP3    H263434   3.947   3.591  12.189  0.4362  1.1096  0.4829
14007TIP3   OH263435   5.552   5.825  15.006 -0.0796  0.1363 -0.2659
14007TIP3    H163436   5.474   5.787  14.965 -0.6751  0.3651  0.6407
14007TIP3    H263437   5.519   5.873  15.082  0.9077  0.5543 -0.0826
14008TIP3   OH263438   2.394   2.526  10.843  0.3800 -0.1311 -0.1082
14008TIP3    H163439   2.306   2.562  10.853 -0.1785 -0.8139 -2.1794
14008TIP3    H263440   2.452   2.599  10.866 -0.7204  0.6597  0.2317
14009TIP3   OH263441   3.926   3.229   2.055  0.1484 -0.0254 -0.1683
14009TIP3    H163442   3.891   3.160   2.112 -1.8396  0.5677 -0.6034
14009TIP3    H263443   3.891   3.209   1.968  1.3397  0.3284 -0.7553
14010TIP3   OH263444   5.275   5.134   3.365 -0.1424  0.2872 -0.3991
14010TIP3    H163445   5.369   5.132   3.380 -0.0380 -0.4179 -1.0648
14010TIP3    H263446   5.236   5.121   3.451  0.3799  0.0919 -0.1899
14011TIP3   OH263447   0.658   3.196  11.800 -0.1084  0.6166 -0.3511
14011TIP3    H163448   0.571   3.161  11.781 -0.3877  0.6373  0.7952
14011TIP3    H263449   0.709   3.176  11.722 -1.3995  1.5514 -1.4777
14012TIP3   OH263450   1.657   2.796  12.998  0.6011 -0.6153  0.7159
14012TIP3    H163451   1.590   2.806  13.066 -1.3848 -1.2850 -1.0319
14012TIP3    H263452   1.611   2.754  12.926  2.2004  1.4497 -1.6565
14013TIP3   OH263453   4.099   0.203  15.307  0.0579 -0.1431 -0.5803
14013TIP3    H163454   4.060   0.119  15.331  0.0314 -0.0721 -0.3712
14013TIP3    H263455   4.031   0.248  15.258 -0.2493  0.1235  0.0862
14014TIP3   OH263456   6.245   3.522  16.065 -0.3116 -0.0656  0.1487
14014TIP3    H163457   6.224   3.482  15.980  1.8373 -0.4097 -0.2734
14014TIP3    H263458   6.262   3.614  16.045 -0.0838 -0.0849  0.2567
14015TIP3   OH263459   4.702   2.056   3.447 -0.0186  0.1347  0.0587
14015TIP3    H163460   4.736   1.970   3.421 -1.0552  0.4207 -2.4632
14015TIP3    H263461   4.776   2.115   3.436  0.6369 -0.3259  1.5984
14016TIP3   OH263462   3.354   4.822   2.054  0.7798  0.3638  0.0961
14016TIP3    H163463   3.418   4.877   2.099  1.7632 -0.3668 -0.3625
14016TIP3    H263464   3.317   4.878   1.986  0.3877  1.0138  0.8435
14017TIP3   OH263465   2.852   1.844   1.473 -0.0729 -0.0280 -0.3646
14017TIP3    H163466   2.925   1.831   1.412  0.0244 -0.0667 -0.2395
14017TIP3    H263467   2.775   1.817   1.423 -0.2872  2.0801 -1.2791
14018TIP3   OH263468   5.170   5.478  11.952 -0.2396 -0.4898  0.0597
14018TIP3    H163469   5.171   5.569  11.980  0.2297 -0.2668 -0.6375
14018TIP3    H263470   5.113   5.433  12.014  1.8848 -0.3280  2.2732
14019TIP3   OH263471   3.897   4.604   1.259  0.0375 -0.4128 -0.5902
14019TIP3    H163472   3.948   4.578   1.182 -0.9279 -1.1329 -1.0065
14019TIP3    H263473   3.858   4.523   1.291 -0.9918  0.1390 -0.3931
14020TIP3   OH263474   6.358   3.163  16.438 -0.0888  0.1208 -0.3183
14020TIP3    H163475   6.437   3.218  16.433 -0.5353  0.7401 -0.8164
14020TIP3    H263476   6.327   3.158  16.348 -0.0524 -0.9769 -0.2770
14021TIP3   OH263477   5.468   0.194   1.170 -0.6431 -0.1318 -0.6257
14021TIP3    H163478   5.456   0.153   1.084 -0.6302  1.0040 -1.1886
14021TIP3    H263479   5.412   0.144   1.229  0.7739 -2.1620 -0.8726
14022TIP3   OH263480   3.218   1.372   3.953 -0.0812  0.1008  0.0188
14022TIP3    H163481   3.219   1.429   3.875 -0.3338  0.1094  0.0200
14022TIP3    H263482   3.140   1.318   3.942 -0.9109  1.0736  0.9534
14023TIP3   OH263483   2.850   6.639   1.657  0.1476  0.1583 -0.3627
14023TIP3    H163484   2.800   6.559   1.674  1.0177 -0.3272 -0.0190
14023TIP3    H263485   2.939   6.608   1.639  0.4222  1.0329 -0.5559
14024TIP3   OH263486   6.636   4.521   1.974  0.0327 -0.0786  0.2958
14024TIP3    H163487   6.641   4.557   1.885  1.3201 -1.8202 -0.3932
14024TIP3    H263488   6.726   4.525   2.007  0.4925 -3.4406 -0.2154
14025TIP3   OH263489   2.123   1.745  11.597 -0.1271 -0.1320 -0.0249
14025TIP3    H163490   2.087   1.731  11.509  0.3723  0.6831 -0.3611
14025TIP3    H263491   2.148   1.837  11.599 -0.6184 -0.0044  1.1559
14026TIP3   OH263492   6.334   4.187  11.625 -0.6146 -0.3481 -0.2652
14026TIP3    H163493   6.241   4.208  11.619 -0.7349 -0.9034 -0.4017
14026TIP3    H263494   6.336   4.100  11.665 -0.2313 -1.0354 -1.7214
14027TIP3   OH263495   2.626   3.108   2.220  1.0852  0.5585  0.1861
14027TIP3    H163496   2.570   3.185   2.212 -0.2235 -0.0974  2.4224
14027TIP3    H263497   2.684   3.128   2.294  0.9623 -0.4636  0.5715
14028TIP3   OH263498   0.087   4.277  15.712  0.3584  0.0475 -0.5756
14028TIP3    H163499   0.026   4.250  15.781  0.2663  1.1444 -0.2010
14028TIP3    H263500   0.064   4.369  15.696  2.8464  0.9632  0.6186
14029TIP3   OH263501   0.413   3.770  15.667  0.3668  0.3342 -0.1812
14029TIP3    H163502   0.449   3.759  15.754  1.8581 -0.1249 -0.8251
14029TIP3    H263503   0.321   3.744  15.675  0.5754 -0.0274  1.1611
14030TIP3   OH263504   1.428   3.301  13.643 -0.2605 -0.4844 -0.3303
14030TIP3    H163505   1.455   3.324  13.732 -0.7503 -2.6468  0.4376
14030TIP3    H263506   1.510   3.302  13.593 -0.1741  2.1961 -0.2752
14031TIP3   OH263507   2.754   1.694  14.944 -0.1118 -0.2665  0.3736
14031TIP3    H163508   2.747   1.730  15.033  0.2907 -1.2908  0.8330
14031TIP3    H263509   2.773   1.770  14.889 -2.1489  0.6768  0.8795
14032TIP3   OH263510   4.776   6.571  13.661 -0.0773  0.5994  0.7283
14032TIP3    H163511   4.738   6.574  13.574 -0.9309  0.0444  1.0632
14032TIP3    H263512   4.700   6.558  13.719  0.5224  0.5164  1.5041
14033TIP3   OH263513   6.706   4.778   4.559 -0.6484 -0.3373 -0.1441
14033TIP3    H163514   6.629   4.828   4.588 -1.7990 -1.3528 -1.3268
14033TIP3    H263515   6.755   4.762   4.639 -0.5367  2.1129  0.3768
14034TIP3   OH263516   1.110   0.429  16.483  0.9245  0.0185 -0.0599
14034TIP3    H163517   1.114   0.375  16.404 -0.6682  0.4281 -0.4529
14034TIP3    H263518   1.137   0.369  16.553  3.4318 -0.0473 -0.9975
14035TIP3   OH263519   0.673   1.568  12.994 -0.1045 -0.9592 -0.3466
14035TIP3    H163520   0.641   1.534  13.078 -0.6376 -0.2571 -0.2547
14035TIP3    H263521   0.766   1.544  12.992  0.5629  1.1516  1.5836
14036TIP3   OH263522   1.995   4.489  14.023  0.7197  0.2190 -0.3222
14036TIP3    H163523   2.025   4.400  14.041 -2.0573 -0.6243  0.7531
14036TIP3    H263524   1.911   4.478  13.979  0.6076  2.3388 -0.7641
14037TIP3   OH263525   6.177   1.481  14.513  0.1435  0.7612 -0.6375
14037TIP3    H163526   6.192   1.463  14.420 -1.6092  2.7712 -1.3940
14037TIP3    H263527   6.114   1.414  14.541  1.2494 -0.3200 -0.6376
14038TIP3   OH263528   4.615   2.946  14.870  0.3741 -0.9326 -0.4832
14038TIP3    H163529   4.532   2.930  14.915  1.7911 -1.7606  2.0835
14038TIP3    H263530   4.626   3.041  14.872  0.3077 -0.9288  0.8770
14039TIP3   OH263531   3.125   0.509   5.669  0.2752 -0.4836  0.2114
14039TIP3    H163532   3.114   0.568   5.744  0.7274 -1.5311  1.1364
14039TIP3    H263533   3.102   0.423   5.703  0.1663 -0.9399 -0.9643
14040TIP3   OH263534   1.269   1.078   2.932  0.3106  0.1190 -0.2790
14040TIP3    H163535   1.323   1.155   2.950 -0.6638  0.6525  0.4903
14040TIP3    H263536   1.185   1.097   2.974 -1.6589  0.7094 -4.0321
14041TIP3   OH263537   5.272   4.325   5.531 -0.3414  0.2238 -0.1226
14041TIP3    H163538   5.249   4.357   5.444  0.0156  0.3942 -0.1581
14041TIP3    H263539   5.368   4.323   5.531 -0.2972 -2.9594 -0.8931
14042TIP3   OH263540   0.318   3.295  17.043  0.0486 -0.4331 -0.5454
14042TIP3    H163541   0.412   3.313  17.033 -0.0593 -0.4839 -1.9754
14042TIP3    H263542   0.278   3.382  17.055  0.0484 -0.1217 -2.4466
14043TIP3   OH263543   6.761   5.278  14.753 -0.6460  0.0374 -0.2544
14043TIP3    H163544   6.840   5.226  14.770  0.7836  2.1585  0.0673
14043TIP3    H263545   6.699   5.250  14.820  0.1642 -1.0462  0.0726
14044TIP3   OH263546   6.010   5.482   0.305  0.1404  0.0217  0.1865
14044TIP3    H163547   5.983   5.391   0.321 -1.2751  0.4765  0.4844
14044TIP3    H263548   5.931   5.533   0.318  1.0314  1.3670  0.4952
14045TIP3   OH263549   3.438   3.400  11.714  0.6878  0.1778 -0.1819
14045TIP3    H163550   3.443   3.453  11.634  0.6152 -1.8586 -1.6328
14045TIP3    H263551   3.529   3.378  11.734  0.5986 -2.1312 -1.8222
14046TIP3   OH263552   6.704   0.505   2.504 -0.6666 -0.2474 -0.3266
14046TIP3    H163553   6.668   0.444   2.439 -0.7081  1.3673 -1.9180
14046TIP3    H263554   6.690   0.592   2.465  0.3576  0.7240  1.3492
14047TIP3   OH263555   2.517   2.784  12.858 -0.2254 -0.1710 -0.1395
14047TIP3    H163556   2.571   2.863  12.855  0.9516 -0.8494  1.6417
14047TIP3    H263557   2.569   2.718  12.812 -0.9854 -0.0629 -1.1882
14048TIP3   OH263558   5.640   5.179   6.446 -0.3220  0.2714 -0.1682
14048TIP3    H163559   5.684   5.250   6.399 -0.5876  0.1238 -0.6448
14048TIP3    H263560   5.701   5.155   6.516 -0.4665  1.3509  0.3527
14049TIP3   OH263561   2.200   5.075   0.480  0.1968  0.4757 -0.1941
14049TIP3    H163562   2.278   5.025   0.505  0.2530  1.1070  0.9557
14049TIP3    H263563   2.150   5.084   0.561 -2.0460 -1.5023 -1.2379
14050TIP3   OH263564   3.696   3.733   0.710  0.3529 -0.3866  0.2483
14050TIP3    H163565   3.763   3.801   0.721  1.5297 -0.9998 -2.4082
14050TIP3    H263566   3.702   3.680   0.789  2.5033  0.0301  0.4196
14051TIP3   OH263567   2.228   4.978  12.089  0.0574 -0.1199 -0.7571
14051TIP3    H163568   2.205   4.891  12.057 -1.9211  0.1001 -0.0530
14051TIP3    H263569   2.246   5.029  12.010 -1.7687 -0.3777 -1.3809
14052TIP3   OH263570   6.763   0.235   5.513 -0.2750 -0.2668 -0.5679
14052TIP3    H163571   6.803   0.317   5.487  1.8475 -0.6364  1.2145
14052TIP3    H263572   6.672   0.257   5.534 -0.2423  1.2171 -1.8828
14053TIP3   OH263573   5.360   2.828   0.796  0.0446 -0.3333  0.4565
14053TIP3    H163574   5.298   2.883   0.749  0.4231 -1.7256 -1.8160
14053TIP3    H263575   5.433   2.886   0.817  0.2014  0.1998 -1.3973
14054TIP3   OH263576   4.966   5.047   3.032  0.5775 -0.5366  0.7471
14054TIP3    H163577   4.937   5.036   3.123 -0.5792  1.0637  0.6112
14054TIP3    H263578   4.952   4.961   2.993 -2.9907 -0.2388  1.0342
14055TIP3   OH263579   1.582   2.179  10.423  0.5001  0.2857  0.2189
14055TIP3    H163580   1.666   2.175  10.468  0.9800  0.4294 -0.6408
14055TIP3    H263581   1.543   2.092  10.437  1.1723 -0.0717 -0.0766
14056TIP3   OH263582   1.378   1.397  11.453 -0.6786  0.6202  0.7914
14056TIP3    H163583   1.408   1.371  11.366 -0.9974 -1.9200  1.3590
14056TIP3    H263584   1.310   1.462  11.436  2.2702  3.5783 -0.6228
14057TIP3   OH263585   0.332   3.610   4.156 -0.0568  0.1882  0.0300
14057TIP3    H163586   0.274   3.610   4.232 -0.2248 -1.6941 -0.0308
14057TIP3    H263587   0.389   3.685   4.168 -0.0064 -0.1388  2.1028
14058TIP3   OH263588   4.455   1.759  10.719 -0.1824  0.1465  0.2224
14058TIP3    H163589   4.545   1.768  10.690 -0.4090  2.8082  0.1203
14058TIP3    H263590   4.417   1.694  10.659  1.8537 -1.7842  0.9042
14059TIP3   OH263591   4.588   3.347   1.545 -0.0390  0.3725 -0.3122
14059TIP3    H163592   4.563   3.438   1.529  0.2550  0.3056 -1.1552
14059TIP3    H263593   4.534   3.321   1.620  0.5040  1.5112  0.5117
14060TIP3   OH263594   2.964   4.077   3.670 -0.0629 -0.1261 -0.4867
14060TIP3    H163595   2.938   4.086   3.762 -0.2033  0.4735 -0.5838
14060TIP3    H263596   3.045   4.026   3.674  0.0538  0.0839 -0.0153
14061TIP3   OH263597   5.688   3.519  16.802 -0.0586 -0.4604 -0.3907
14061TIP3    H163598   5.697   3.486  16.712 -1.6113  1.1003 -1.1717
14061TIP3    H263599   5.657   3.609  16.792 -1.4605 -0.6347  1.7206
14062TIP3   OH263600   3.062   4.874  15.126 -0.4276 -0.0861  0.3180
14062TIP3    H163601   3.138   4.929  15.108  0.3957 -1.6071 -1.1122
14062TIP3    H263602   3.006   4.886  15.049  0.4780 -2.3226 -0.7904
14063TIP3   OH263603   0.967   0.852   5.265  0.1604  0.7283 -0.5594
14063TIP3    H163604   0.973   0.757   5.276  2.5211  1.0289  1.3724
14063TIP3    H263605   0.873   0.870   5.267 -0.3787 -1.5725 -1.4733
14064TIP3   OH263606   5.978   5.389  14.988  0.3578 -0.2572 -0.5577
14064TIP3    H163607   5.923   5.448  14.935 -0.1056 -1.0308 -0.9603
14064TIP3    H263608   6.024   5.447  15.049 -1.4346  0.3571  0.2683
14065TIP3   OH263609   5.486   1.307  12.071 -0.1576 -0.9406 -0.1652
14065TIP3    H163610   5.454   1.223  12.037 -1.4030  0.3401 -2.3689
14065TIP3    H263611   5.408   1.360  12.082  0.7103  0.3765 -0.1260
14066TIP3   OH263612   3.109   1.399  15.904 -0.5511  0.1560 -0.2878
14066TIP3    H163613   3.131   1.474  15.848  0.0623 -0.4559 -0.8813
14066TIP3    H263614   3.066   1.337  15.845 -0.0839 -0.4084 -0.0436
14067TIP3   OH263615   1.220   2.127   4.636 -0.5174  0.0281  0.1186
14067TIP3    H163616   1.194   2.158   4.723  1.1450  0.6149  0.4486
14067TIP3    H263617   1.234   2.207   4.585  2.8302 -0.0328  0.6807
14068TIP3   OH263618   4.386   0.560   4.972  0.6175  0.1263  0.3275
14068TIP3    H163619   4.454   0.504   5.010  0.6267 -1.3129 -1.6089
14068TIP3    H263620   4.427   0.599   4.895 -0.2676  0.5326  0.0435
14069TIP3   OH263621   4.740   6.148  11.939  0.3096 -0.6618 -0.3242
14069TIP3    H163622   4.710   6.221  11.994  1.2511  1.0549 -1.9473
14069TIP3    H263623   4.689   6.157  11.858  1.3968 -0.9857 -1.0608
14070TIP3   OH263624   4.995   0.394  13.819  0.4078  0.4533  0.0868
14070TIP3    H163625   4.984   0.481  13.855  0.0755 -0.2216  1.6999
14070TIP3    H263626   5.004   0.337  13.895  0.5568 -0.9314 -0.9231
14071TIP3   OH263627   1.428   6.426  13.753 -0.6802  0.0335 -0.0017
14071TIP3    H163628   1.521   6.445  13.762 -0.5323 -0.6117 -0.0885
14071TIP3    H263629   1.401   6.475  13.675 -0.5318  0.6035  0.2962
14072TIP3   OH263630   3.279   5.945   5.026  0.5151  0.6251  0.3789
14072TIP3    H163631   3.294   5.992   4.945 -1.4368 -0.8262 -0.9263
14072TIP3    H263632   3.343   5.874   5.025  1.4656  1.4548  0.8699
14073TIP3   OH263633   3.302   5.269   1.828  0.0421 -0.2082 -0.4891
14073TIP3    H163634   3.287   5.352   1.784  0.4041  0.3209  0.3682
14073TIP3    H263635   3.397   5.263   1.838  0.0869 -1.1196 -1.2801
14074TIP3   OH263636   5.283   6.534   3.896  0.2247 -0.4289 -0.4772
14074TIP3    H163637   5.304   6.547   3.804 -1.6458 -0.8063 -1.0133
14074TIP3    H263638   5.315   6.612   3.940  0.3222  0.1759 -1.5926
14075TIP3   OH263639   0.551   6.571  12.795  0.3519 -0.0908 -0.2305
14075TIP3    H163640   0.462   6.596  12.770  0.8317 -0.5266 -2.6200
14075TIP3    H263641   0.607   6.617  12.732  1.7034 -1.3719 -0.0113
14076TIP3   OH263642   4.755   4.468   2.333  0.2706 -0.0146 -0.1289
14076TIP3    H163643   4.669   4.508   2.349  0.7007  0.7640  0.3178
14076TIP3    H263644   4.759   4.456   2.238  0.2591  1.3636 -0.3270
14077TIP3   OH263645   2.519   2.279   0.702 -0.2964  0.7229  0.0828
14077TIP3    H163646   2.540   2.242   0.616  0.4565  1.9606 -0.2992
14077TIP3    H263647   2.429   2.308   0.695 -0.8080 -0.7404  0.2987
14078TIP3   OH263648   3.568   0.453   5.916 -0.3178 -0.6384 -0.5054
14078TIP3    H163649   3.515   0.473   5.839 -0.2369  0.5588 -0.2793
14078TIP3    H263650   3.508   0.462   5.990  0.6060  3.4726  0.0396
14079TIP3   OH263651   5.414   4.846   3.739  0.0118 -0.1690 -0.0884
14079TIP3    H163652   5.477   4.830   3.809  0.2767 -0.1251 -0.3156
14079TIP3    H263653   5.465   4.888   3.670  0.0249 -1.3326 -0.8160
14080TIP3   OH263654   6.735   1.224  11.301  0.2060  0.2604  0.0420
14080TIP3    H163655   6.793   1.220  11.377 -0.3763 -0.7981  0.4487
14080TIP3    H263656   6.647   1.228  11.338 -0.0339  1.1742 -0.5788
14081TIP3   OH263657   0.915   6.406   1.498 -0.6932  0.0496  0.9134
14081TIP3    H163658   0.944   6.427   1.587 -1.5334  2.1210  0.7617
14081TIP3    H263659   0.820   6.408   1.503 -0.7803  1.8518 -0.3125
14082TIP3   OH263660   1.997   2.136  16.314 -0.0352 -0.2482 -0.1767
14082TIP3    H163661   2.072   2.182  16.275 -1.0820  0.9235 -0.8824
14082TIP3    H263662   2.032   2.098  16.394  1.0241  1.3700  0.1954
14083TIP3   OH263663   3.531   2.308   2.664 -0.0211  0.5704 -0.0276
14083TIP3    H163664   3.556   2.390   2.621 -0.1928 -0.0759 -1.4242
14083TIP3    H263665   3.487   2.258   2.595  0.2337 -0.7665  0.7535
14084TIP3   OH263666   5.200   1.215   4.036  0.2115  0.1936  0.3334
14084TIP3    H163667   5.144   1.275   3.985 -1.5253 -1.5935 -0.0141
14084TIP3    H263668   5.289   1.240   4.012 -0.4859  1.2201 -1.4812
14085TIP3   OH263669   3.816   4.794   3.481 -0.1513 -1.0418 -0.3187
14085TIP3    H163670   3.736   4.761   3.440 -0.1044 -0.3558 -0.9921
14085TIP3    H263671   3.854   4.853   3.416  0.1014 -0.1761  0.5759
14086TIP3   OH263672   5.325   5.376  11.045  0.3628 -0.5080 -0.2213
14086TIP3    H163673   5.387   5.326  10.991  1.3948  0.9227 -0.4326
14086TIP3    H263674   5.334   5.466  11.013 -0.0416  0.1295  1.3995
14087TIP3   OH263675   6.784   3.822   1.749 -0.1731 -0.4483  0.3584
14087TIP3    H163676   6.829   3.797   1.829  0.2894 -0.5219  0.0773
14087TIP3    H263677   6.825   3.770   1.680  0.3944  0.6259 -0.1498
14088TIP3   OH263678   3.626   3.122   5.924  0.3740  0.1890 -0.0595
14088TIP3    H163679   3.576   3.051   5.884 -0.2775  0.8652 -0.4656
14088TIP3    H263680   3.698   3.078   5.968 -0.0910 -0.7386 -0.1929
14089TIP3   OH263681   2.237   2.182   5.180 -0.0661  0.5527 -0.9142
14089TIP3    H163682   2.288   2.207   5.104  1.1670  2.5506  0.4727
14089TIP3    H263683   2.300   2.145   5.242 -1.0900 -1.3655 -0.9062
14090TIP3   OH263684   0.930   4.894  16.090 -0.6363  0.0481  0.0857
14090TIP3    H163685   0.981   4.828  16.137  0.3518  0.2611 -0.6413
14090TIP3    H263686   0.968   4.894  16.002 -1.2621  0.9082 -0.1902
14091TIP3   OH263687   1.180   1.983  11.782  0.6639  0.0221  0.3194
14091TIP3    H163688   1.111   2.049  11.793 -0.8726 -1.3964 -0.4557
14091TIP3    H263689   1.203   1.958  11.871 -0.3318  0.0022  0.5795
14092TIP3   OH263690   3.257   0.796   3.569  0.6925 -0.5790 -0.6850
14092TIP3    H163691   3.349   0.818   3.582 -0.2554  1.9931  3.2999
14092TIP3    H263692   3.226   0.860   3.504  1.0195  0.8540  0.5342
14093TIP3   OH263693   3.632   5.916  12.018  0.1862 -0.0284 -0.2038
14093TIP3    H163694   3.725   5.926  12.000 -0.0322  3.5562  0.0988
14093TIP3    H263695   3.613   5.979  12.087 -2.4811 -0.7495 -0.1424
14094TIP3   OH263696   4.161   5.251   4.560  0.3680  0.3996  0.2925
14094TIP3    H163697   4.072   5.241   4.526  0.5957  2.4185 -1.0311
14094TIP3    H263698   4.163   5.338   4.599  1.1254 -0.5454  2.5618
14095TIP3   OH263699   2.609   4.142   3.863  0.2762 -0.4930  0.4932
14095TIP3    H163700   2.516   4.151   3.839 -0.0754 -0.4992  1.7697
14095TIP3    H263701   2.648   4.226   3.840 -0.3556  0.0055  1.1706
14096TIP3   OH263702   0.017   6.636   3.012 -0.3084  0.2238  0.4493
14096TIP3    H163703   0.110   6.649   2.995  0.1749 -1.1994  1.7195
14096TIP3    H263704  -0.013   6.577   2.943 -0.7977  2.2012 -1.1235
14097TIP3   OH263705   0.748   3.158   1.042  0.1585 -0.0265 -0.0091
14097TIP3    H163706   0.728   3.222   0.975 -1.1728 -0.5167 -0.1105
14097TIP3    H263707   0.757   3.075   0.995 -0.4165 -0.3092  0.3647
14098TIP3   OH263708   3.771   5.105  13.103  0.4187  0.0577 -0.4062
14098TIP3    H163709   3.732   5.131  13.020 -2.8093  0.7170  1.1477
14098TIP3    H263710   3.761   5.010  13.106 -1.8100  0.2516  0.1792
14099TIP3   OH263711   2.804   2.634   5.015  0.1197  0.2758 -0.5250
14099TIP3    H163712   2.741   2.582   5.065 -0.2098  0.7762 -0.4066
14099TIP3    H263713   2.758   2.656   4.934 -0.5414  2.1134  0.2890
14100TIP3   OH263714   3.579   6.752  16.348 -0.5565 -0.0270 -0.2449
14100TIP3    H163715   3.536   6.822  16.397  1.2406  1.6864 -0.9331
14100TIP3    H263716   3.658   6.733  16.398 -0.2703 -0.4689 -0.8469
14101TIP3   OH263717   6.346   1.343   4.233 -0.4656  0.3944  0.7430
14101TIP3    H163718   6.342   1.439   4.230  0.4055  0.4357  0.7211
14101TIP3    H263719   6.419   1.324   4.292  0.6818 -0.2281 -0.8084
14102TIP3   OH263720   1.656   2.247  14.986  0.4772 -0.6147  0.7673
14102TIP3    H163721   1.744   2.253  14.949  0.6843  0.0840  1.3394
14102TIP3    H263722   1.671   2.239  15.081 -0.0660 -0.8791  0.8345
14103TIP3   OH263723   0.455   2.941   2.248 -0.6623  0.0859 -0.3550
14103TIP3    H163724   0.464   2.846   2.261  0.7348  0.4475  1.9224
14103TIP3    H263725   0.519   2.962   2.181  0.3481 -0.3700  0.4405
14104TIP3   OH263726   4.549   0.049  14.421 -0.2410  0.6276  0.1981
14104TIP3    H163727   4.596   0.073  14.341 -1.7744 -0.2578 -1.0044
14104TIP3    H263728   4.602  -0.021  14.460  0.6887  1.2933  0.1626
14105TIP3   OH263729   6.423   4.496   2.143  0.2560  0.1593 -0.1264
14105TIP3    H163730   6.501   4.497   2.089 -0.5949 -2.7551 -1.6176
14105TIP3    H263731   6.366   4.562   2.104  0.7262  0.0047 -1.1056
14106TIP3   OH263732   1.945   3.605  13.466  0.3183 -0.3232  0.3256
14106TIP3    H163733   1.993   3.525  13.448 -1.6764 -1.3133 -0.9164
14106TIP3    H263734   1.945   3.613  13.561 -0.1557 -2.2843  0.5216
14107TIP3   OH263735   3.083   5.346  17.021  0.1141  0.4476 -0.8261
14107TIP3    H163736   3.161   5.385  17.062  0.4655 -0.0160 -1.0452
14107TIP3    H263737   3.051   5.414  16.961 -0.7145  1.3494  0.5768
14108TIP3   OH263738   1.764   6.552  12.149 -0.1818 -0.2253 -0.2314
14108TIP3    H163739   1.761   6.473  12.202  1.1899  0.4468  0.9444
14108TIP3    H263740   1.794   6.620  12.210  0.9967  0.6867 -1.7464
14109TIP3   OH263741   5.982   3.785   5.470  0.3458  0.3840  0.2050
14109TIP3    H163742   5.900   3.831   5.488  1.5125  1.6427  2.8636
14109TIP3    H263743   6.043   3.818   5.536  3.1239 -0.2576 -1.8445
14110TIP3   OH263744   6.529   5.025  16.201  0.0562  0.0188  0.2232
14110TIP3    H163745   6.480   5.047  16.122 -1.3513 -2.3166  0.3752
14110TIP3    H263746   6.467   5.041  16.273  0.8897  0.8765  0.7821
14111TIP3   OH263747   6.126   3.399  16.329 -0.2322  0.1679 -0.6986
14111TIP3    H163748   6.135   3.307  16.303  0.5599 -0.1954  0.7783
14111TIP3    H263749   6.168   3.447  16.258  0.7944 -0.7194 -0.7188
14112TIP3   OH263750   1.028   5.687  12.808 -0.5039  0.0306  0.0952
14112TIP3    H163751   1.111   5.716  12.845 -0.7303  0.3679  0.3471
14112TIP3    H263752   0.992   5.627  12.873  0.0264 -0.9420 -0.4835
14113TIP3   OH263753   1.282   1.212   3.526 -0.1879 -0.1244 -0.3442
14113TIP3    H163754   1.239   1.126   3.525 -1.0002  0.2375  1.1341
14113TIP3    H263755   1.283   1.239   3.434 -1.2219 -1.0911 -0.6587
14114TIP3   OH263756   2.962   4.846   5.808  0.7578  0.1637 -0.3933
14114TIP3    H163757   2.906   4.921   5.828 -0.1083 -0.7550  0.8015
14114TIP3    H263758   2.966   4.796   5.890  1.0279 -1.2868 -1.2442
14115TIP3   OH263759   6.203   1.110   4.868 -0.1550  0.2552  0.0504
14115TIP3    H163760   6.245   1.171   4.807 -0.2016 -0.0089 -0.2456
14115TIP3    H263761   6.198   1.159   4.950 -0.0191  0.5849 -0.1341
14116TIP3   OH263762   4.322   0.564   4.514  0.8975 -0.0856  0.0805
14116TIP3    H163763   4.311   0.652   4.548  1.8731 -0.5723  1.7627
14116TIP3    H263764   4.417   0.549   4.515  0.8200 -0.8216 -1.1029
14117TIP3   OH263765   3.443   5.819  15.557 -0.1534  0.1128 -0.1750
14117TIP3    H163766   3.443   5.863  15.472  0.3927  0.2862 -0.0901
14117TIP3    H263767   3.516   5.860  15.605  2.0583 -2.5918 -0.9765
14118TIP3   OH263768   3.719   6.008  11.568 -0.2085  0.2204 -0.1830
14118TIP3    H163769   3.812   5.999  11.588 -0.7180 -1.6073  1.7690
14118TIP3    H263770   3.683   6.060  11.640 -0.6884  1.1435 -1.0595
14119TIP3   OH263771   6.399   4.700  16.375  0.0598 -0.0954 -0.1237
14119TIP3    H163772   6.366   4.614  16.400 -0.1878  0.0636  0.1141
14119TIP3    H263773   6.320   4.751  16.355  0.2684 -0.4464 -2.0358
14120TIP3   OH263774   1.376   4.247   6.019  0.6613  0.0754 -0.0346
14120TIP3    H163775   1.364   4.315   6.086  1.2492  1.1850 -1.0219
14120TIP3    H263776   1.423   4.177   6.064  1.6295  1.0855  0.5583
14121TIP3   OH263777   6.083   6.330  13.145 -0.5510 -0.1231 -0.4317
14121TIP3    H163778   6.008   6.320  13.086  0.4000  1.2455 -1.9930
14121TIP3    H263779   6.076   6.419  13.178  0.0556 -0.1867 -0.1113
14122TIP3   OH263780   2.369   1.677  16.673 -0.3174  0.0008 -0.5528
14122TIP3    H163781   2.280   1.642  16.686 -0.6097  1.0121  0.3201
14122TIP3    H263782   2.360   1.739  16.601 -0.5609  0.8544  0.1866
14123TIP3   OH263783   1.038   0.995  15.897  0.4275 -0.0764  0.1720
14123TIP3    H163784   1.006   0.987  15.808  0.9633  0.1076 -0.0417
14123TIP3    H263785   1.067   0.907  15.921  1.6600  0.1549 -0.3765
14124TIP3   OH263786   5.767   1.692   5.278  0.0004 -0.4982  0.1465
14124TIP3    H163787   5.775   1.680   5.373 -2.9797 -0.8626  0.4675
14124TIP3    H263788   5.773   1.787   5.266 -2.9213 -0.0440  1.2701
14125TIP3   OH263789   4.455   1.946   0.920 -0.0123 -0.2636 -0.2438
14125TIP3    H163790   4.491   1.980   0.838 -0.9549 -1.5036 -1.2039
14125TIP3    H263791   4.453   1.851   0.907 -0.5177 -0.4470  1.0786
14126TIP3   OH263792   1.699   0.854   3.332 -0.1725 -0.0097 -0.0609
14126TIP3    H163793   1.646   0.779   3.304  0.2159 -0.3550  0.1017
14126TIP3    H263794   1.685   0.859   3.427 -1.0287  0.7919 -0.2176
14127TIP3   OH263795   0.184   3.436   4.647 -0.0964 -0.2856  0.0942
14127TIP3    H163796   0.177   3.396   4.733 -0.6284 -2.3875 -0.8507
14127TIP3    H263797   0.270   3.410   4.615 -0.7507 -1.4130 -0.8409
14128TIP3   OH263798   0.699   0.334  11.882 -0.1324 -0.1305  0.8380
14128TIP3    H163799   0.650   0.392  11.940 -0.8212  1.8856 -1.5421
14128TIP3    H263800   0.766   0.390  11.844  0.8094 -1.5794  0.2920
14129TIP3   OH263801   0.108   0.738   2.846 -0.0332 -0.0607 -0.0503
14129TIP3    H163802   0.144   0.793   2.916 -0.6608 -0.7654  0.8563
14129TIP3    H263803   0.154   0.655   2.855  1.0371  0.3297 -1.5288
14130TIP3   OH263804   3.942   2.084  13.925 -0.6862  0.2016 -0.0886
14130TIP3    H163805   4.009   2.152  13.924 -1.0499  0.5720  0.4153
14130TIP3    H263806   3.980   2.013  13.873 -0.9991  1.4247 -2.0863
14131TIP3   OH263807   5.286   5.894   5.032 -0.3767  0.6993 -0.2143
14131TIP3    H163808   5.373   5.865   5.061 -0.6273  0.1585  0.0032
14131TIP3    H263809   5.235   5.904   5.113 -0.9913 -0.5421 -0.4296
14132TIP3   OH263810   1.296   2.282  12.730  0.4434  0.1457 -0.2899
14132TIP3    H163811   1.327   2.194  12.710 -0.3822  0.2472 -2.2434
14132TIP3    H263812   1.357   2.340  12.684 -1.9411  0.3681 -3.5068
14133TIP3   OH263813   4.572   2.417   4.123 -0.8671  0.0910  0.4150
14133TIP3    H163814   4.509   2.437   4.054 -0.1017 -1.4290 -0.7748
14133TIP3    H263815   4.552   2.480   4.192 -1.8486  1.4886 -1.0585
14134TIP3   OH263816   5.416   6.646  14.812 -0.4015 -0.0632  0.7012
14134TIP3    H163817   5.429   6.735  14.843 -2.1126  0.3720  0.2737
14134TIP3    H263818   5.323   6.641  14.792  0.1740 -0.9548 -2.2786
14135TIP3   OH263819   3.544   5.220  15.990 -0.4917  0.2210  0.3952
14135TIP3    H163820   3.484   5.225  16.065 -0.5811 -0.4453  0.3775
14135TIP3    H263821   3.613   5.282  16.011 -1.2822  1.1499  0.3300
14136TIP3   OH263822   6.812   1.412  12.430 -0.3967 -0.3431 -0.3156
14136TIP3    H163823   6.846   1.458  12.353 -0.7655 -0.3482 -0.4844
14136TIP3    H263824   6.774   1.482  12.484 -3.2633 -0.6632 -1.7491
14137TIP3   OH263825   1.233   0.982  16.140 -0.1715  0.0345  0.8938
14137TIP3    H163826   1.195   1.056  16.093 -2.6867 -1.2076  0.7664
14137TIP3    H263827   1.282   1.021  16.212 -0.4644  1.8218  0.1696
14138TIP3   OH263828   2.359   5.149   6.128 -0.5036  0.2363 -0.5084
14138TIP3    H163829   2.346   5.055   6.122 -0.6649  0.3129 -1.4867
14138TIP3    H263830   2.282   5.181   6.176 -0.3995 -0.1292 -0.0914
14139TIP3   OH263831   4.670   6.466  12.869  0.2334 -0.5086  0.0030
14139TIP3    H163832   4.749   6.430  12.829 -0.4694 -2.3114  0.1689
14139TIP3    H263833   4.598   6.420  12.827 -0.7024  0.3642  0.5849
14140TIP3   OH263834   1.886   6.511   1.814  0.3668  0.1508  0.0498
14140TIP3    H163835   1.910   6.555   1.896 -1.2739  1.0729  0.0822
14140TIP3    H263836   1.833   6.436   1.841 -0.3402  0.5650 -0.1472
14141TIP3   OH263837   5.207   3.519   2.470  0.0621 -0.1844  0.2971
14141TIP3    H163838   5.212   3.563   2.385  0.6018 -0.3577  0.2330
14141TIP3    H263839   5.117   3.489   2.476 -0.0823  0.1700 -0.0446
14142TIP3   OH263840   1.386   4.951   2.535 -0.1123  0.8145  0.6645
14142TIP3    H163841   1.307   4.920   2.491 -0.8791  1.7145  1.3940
14142TIP3    H263842   1.456   4.898   2.496 -0.8840  0.9103 -0.9442
14143TIP3   OH263843   0.073   3.764  11.912 -0.1426  0.4032 -0.2303
14143TIP3    H163844   0.145   3.701  11.916 -1.2533 -0.9473  3.3751
14143TIP3    H263845   0.000   3.716  11.873 -0.1918  0.3925 -0.1283
14144TIP3   OH263846   2.654   4.023  14.002 -0.2638 -0.0329  0.0879
14144TIP3    H163847   2.583   4.038  13.940 -0.2012 -0.8545 -0.1956
14144TIP3    H263848   2.647   4.096  14.064  0.0743  1.1558 -1.2226
14145TIP3   OH263849   4.756   0.614  13.181 -0.5224 -0.5288 -0.0996
14145TIP3    H163850   4.669   0.595  13.218 -1.7376  0.7945 -2.1273
14145TIP3    H263851   4.773   0.704  13.206  0.3462 -0.8149  0.3678
14146TIP3   OH263852   1.553   0.224   5.097 -0.2279  0.5432 -0.2916
14146TIP3    H163853   1.523   0.307   5.132 -1.1355 -0.2469  0.8931
14146TIP3    H263854   1.575   0.171   5.174  0.2613 -0.3369 -1.0083
14147TIP3   OH263855   6.278   5.517  12.913  0.2569  0.1794  0.1714
14147TIP3    H163856   6.307   5.596  12.959 -0.1063  2.2234 -2.8390
14147TIP3    H263857   6.309   5.528  12.823 -0.2242 -2.9401 -0.5101
14148TIP3   OH263858   2.567   5.415   3.334  0.2234  0.1288  0.1931
14148TIP3    H163859   2.629   5.487   3.329  0.1336  0.1949  0.0189
14148TIP3    H263860   2.613   5.346   3.381  0.6167 -0.0201 -0.4032
14149TIP3   OH263861   5.328   2.584   1.292 -0.2157  0.2625  0.1856
14149TIP3    H163862   5.395   2.517   1.277 -0.7544  0.1030 -1.7459
14149TIP3    H263863   5.283   2.592   1.208 -1.9272  1.1373  1.1303
14150TIP3   OH263864   2.681   5.123  15.729  0.0358 -0.0837  0.9047
14150TIP3    H163865   2.775   5.105  15.733  0.1072 -0.3802 -1.2497
14150TIP3    H263866   2.642   5.059  15.788  1.2165  0.6120  2.5073
14151TIP3   OH263867   0.942   1.405  11.847  0.2351 -0.3417  0.1387
14151TIP3    H163868   0.996   1.477  11.881  0.2057 -1.0056  1.6726
14151TIP3    H263869   0.866   1.448  11.808  2.1674  0.6927 -2.8771
14152TIP3   OH263870   3.212   0.404  15.213  0.3265  0.4499 -0.1770
14152TIP3    H163871   3.126   0.424  15.175 -0.4795 -0.6252  1.0148
14152TIP3    H263872   3.207   0.439  15.302 -0.1324 -2.4877  1.0367
14153TIP3   OH263873   0.041   0.680   6.710 -0.3079  0.2235  0.5094
14153TIP3    H163874   0.037   0.759   6.764  0.4493  0.4380  0.2649
14153TIP3    H263875   0.038   0.608   6.773 -2.5723  0.3660  0.6727
14154TIP3   OH263876   5.887   2.770  15.485 -0.1785  0.1036 -0.4893
14154TIP3    H163877   5.932   2.811  15.411  1.9919  0.0810  0.7290
14154TIP3    H263878   5.860   2.844  15.539  0.7900  0.0538  0.0799
14155TIP3   OH263879   0.106   1.419  14.099 -0.0534 -0.1196 -0.1325
14155TIP3    H163880   0.181   1.399  14.154  1.1244 -1.2736 -2.0620
14155TIP3    H263881   0.132   1.497  14.050  0.2028 -0.8973 -1.2821
14156TIP3   OH263882   1.935   0.971  11.171 -0.0131  0.4195 -0.1786
14156TIP3    H163883   1.879   1.048  11.182 -1.0305 -0.3382  0.2249
14156TIP3    H263884   1.908   0.912  11.242 -1.5623 -1.6198 -2.2822
14157TIP3   OH263885   0.957   2.236   1.602  0.0968 -0.2222  0.2246
14157TIP3    H163886   0.913   2.299   1.658 -1.0496 -2.4914  2.0615
14157TIP3    H263887   1.041   2.220   1.646  1.0634  1.0267 -1.0477
14158TIP3   OH263888   0.344   4.241  16.463  0.1969 -0.0283  0.1433
14158TIP3    H163889   0.274   4.297  16.429  1.1764  0.1306 -1.7157
14158TIP3    H263890   0.424   4.293  16.451  1.1244 -1.7226 -1.5451
14159TIP3   OH263891   5.647   3.944  12.112 -0.1048 -0.6551 -0.4267
14159TIP3    H163892   5.645   4.030  12.069 -1.3647 -0.1076  0.6348
14159TIP3    H263893   5.725   3.901  12.077  2.1273  1.9501  0.9119
14160TIP3   OH263894   2.202   4.690  15.816 -0.5771  0.2953 -0.1969
14160TIP3    H163895   2.250   4.763  15.779 -1.2409  1.6346  1.4061
14160TIP3    H263896   2.260   4.653  15.882 -0.0471 -0.9991 -1.3380
14161TIP3   OH263897   0.554   6.721   4.087  0.1297 -0.0218  0.5594
14161TIP3    H163898   0.513   6.807   4.097  1.5649  0.9265 -1.0151
14161TIP3    H263899   0.554   6.706   3.992 -0.3085 -1.8976  0.8266
14162TIP3   OH263900   6.749   2.627  14.135 -0.0385 -0.3995 -0.6230
14162TIP3    H163901   6.667   2.605  14.178 -0.7016  0.1626 -1.5739
14162TIP3    H263902   6.744   2.721  14.119  0.8113 -0.3495 -0.6577
14163TIP3   OH263903   6.763   6.677   0.970  0.2780 -0.1990 -0.0224
14163TIP3    H163904   6.772   6.708   1.060  0.3014  1.0101 -0.4264
14163TIP3    H263905   6.851   6.646   0.947  0.5196  0.4589  0.0181
14164TIP3   OH263906   4.325   0.435  15.819 -0.5718  0.0012  0.9182
14164TIP3    H163907   4.368   0.507  15.865 -0.4444  0.2399  0.4274
14164TIP3    H263908   4.233   0.458  15.816 -0.5474  0.0884  0.8598
14165TIP3   OH263909   3.372   1.162   0.243  0.6435  0.4052 -0.0619
14165TIP3    H163910   3.362   1.128   0.332  1.4262  1.5449  0.4848
14165TIP3    H263911   3.414   1.090   0.195  0.3817 -0.1545  0.5304
14166TIP3   OH263912   1.085   1.792   0.575  0.0289 -0.6627  0.2506
14166TIP3    H163913   1.101   1.855   0.646 -0.8997  0.8634 -0.8390
14166TIP3    H263914   0.994   1.764   0.588 -0.3679  0.1338 -0.6819
14167TIP3   OH263915   1.850   0.329   0.322 -0.5097 -0.2232  0.0464
14167TIP3    H163916   1.922   0.311   0.382 -0.2230  1.6332  0.3277
14167TIP3    H263917   1.860   0.422   0.300 -0.2867 -0.9367 -3.3119
14168TIP3   OH263918   4.655   4.433   4.228 -0.2798  0.4032  0.2725
14168TIP3    H163919   4.700   4.473   4.153  0.6098 -0.9184  0.0636
14168TIP3    H263920   4.719   4.435   4.298  0.0119 -1.1407  0.0888
14169TIP3   OH263921   4.692   6.594  16.091 -0.7668 -0.5823 -0.3065
14169TIP3    H163922   4.657   6.665  16.037  0.8327 -0.9108 -1.8653
14169TIP3    H263923   4.710   6.635  16.175 -3.8575 -0.1810  0.2824
14170TIP3   OH263924   5.050   0.026  15.770  0.0164  0.0170 -0.2302
14170TIP3    H163925   5.052  -0.040  15.701 -2.2717 -0.0067 -0.3541
14170TIP3    H263926   5.065  -0.023  15.851  3.3383  0.1303 -0.6491
14171TIP3   OH263927   6.660   4.436   0.817  0.3042  0.0172 -0.0659
14171TIP3    H163928   6.626   4.501   0.756 -0.8577 -1.7914 -1.4916
14171TIP3    H263929   6.596   4.435   0.889  2.2742  2.9712  1.9513
14172TIP3   OH263930   0.141   3.273  10.444  0.0257  0.4134 -0.0285
14172TIP3    H163931   0.198   3.226  10.505 -0.9273 -1.4236 -0.4754
14172TIP3    H263932   0.163   3.238  10.358 -2.3364 -1.0772 -0.1167
14173TIP3   OH263933   0.944   2.579   2.341  0.1095  0.1558  0.4464
14173TIP3    H163934   0.887   2.502   2.332  1.5284 -0.7421 -1.6831
14173TIP3    H263935   0.937   2.603   2.433 -0.2165 -2.6706  1.2656
14174TIP3   OH263936   3.222   0.982  11.008 -0.5044  0.3106  0.3306
14174TIP3    H163937   3.193   0.967  10.918  0.7864  1.9311 -0.4159
14174TIP3    H263938   3.179   1.064  11.033  1.7100  1.6881 -0.0864
14175TIP3   OH263939   5.176   1.749   1.331  0.0621  0.9225  0.3970
14175TIP3    H163940   5.253   1.777   1.282 -0.2996  1.6931  0.2372
14175TIP3    H263941   5.194   1.773   1.422  0.5802 -0.1701  0.5921
14176TIP3   OH263942   4.402   5.992  12.022  0.1724  0.5333 -0.3033
14176TIP3    H163943   4.449   5.915  11.990  2.5472  2.0894 -0.8325
14176TIP3    H263944   4.423   5.996  12.116  2.1048  1.7992 -0.7339
14177TIP3   OH263945   6.380   2.067  11.650  0.3408  0.1042  0.8786
14177TIP3    H163946   6.458   2.122  11.643 -0.4883  1.1018 -1.7525
14177TIP3    H263947   6.308   2.129  11.658 -0.4792 -0.6076 -0.5362
14178TIP3   OH263948   3.942   0.913   6.042  0.1294  0.0627  0.6768
14178TIP3    H163949   4.002   0.987   6.032 -0.8408  0.5520 -2.7795
14178TIP3    H263950   3.860   0.952   6.072  0.4966 -0.1341  2.0146
14179TIP3   OH263951   2.336   5.302  14.138  0.0984  0.2314  0.1606
14179TIP3    H163952   2.343   5.362  14.213  1.5163  0.0506  0.1893
14179TIP3    H263953   2.426   5.282  14.115 -0.3483 -0.8664 -0.6913
14180TIP3   OH263954   0.517   4.621   1.161 -0.0049  0.1645 -0.2519
14180TIP3    H163955   0.500   4.563   1.087 -2.1204  0.9138 -0.3995
14180TIP3    H263956   0.570   4.692   1.124  1.0277 -0.6958 -0.4724
14181TIP3   OH263957   6.310   0.427   5.669  0.0560  0.5683 -0.5036
14181TIP3    H163958   6.406   0.425   5.666  0.0580 -0.5689 -0.3244
14181TIP3    H263959   6.289   0.402   5.759 -0.4079 -2.5883 -1.3457
14182TIP3   OH263960   5.834   0.646  13.371 -0.2128 -0.2134  0.1140
14182TIP3    H163961   5.819   0.593  13.449  0.8623 -0.9734 -0.1685
14182TIP3    H263962   5.895   0.594  13.319 -2.7490 -0.8954 -2.4223
14183TIP3   OH263963   2.923   0.880   5.412  0.4227 -0.2152 -0.2982
14183TIP3    H163964   2.909   0.810   5.348  0.1953 -0.6674  0.2372
14183TIP3    H263965   2.946   0.834   5.493 -1.9591  0.1973  0.6818
14184TIP3   OH263966   5.624   0.988   4.676 -0.0295  0.3693  0.4346
14184TIP3    H163967   5.719   1.002   4.670  0.1169 -0.4425  0.6985
14184TIP3    H263968   5.602   1.006   4.767  0.2381 -1.4041  0.8956
14185TIP3   OH263969   1.948   5.183   6.589 -0.0386 -0.1594 -0.6613
14185TIP3    H163970   1.862   5.142   6.580  0.1230 -0.5985 -0.2187
14185TIP3    H263971   1.936   5.271   6.552 -0.7859 -0.0662 -0.2269
14186TIP3   OH263972   2.223   4.863   1.362 -0.4494 -0.2898 -0.4586
14186TIP3    H163973   2.263   4.941   1.400 -0.4918 -1.1911  1.6014
14186TIP3    H263974   2.131   4.866   1.391 -0.5003 -0.9747 -0.5154
14187TIP3   OH263975   0.154   3.084   4.060  0.1526 -0.4292 -0.1690
14187TIP3    H163976   0.148   3.108   4.153  0.2739 -0.5613 -0.1249
14187TIP3    H263977   0.095   3.144   4.015  2.3127  1.6782 -0.3945
14188TIP3   OH263978   3.053   4.955  15.990  0.2828 -0.0658 -0.1017
14188TIP3    H163979   3.135   5.006  15.983 -0.5048  1.2476 -0.1188
14188TIP3    H263980   3.038   4.922  15.902  1.1689 -0.9282  0.0591
14189TIP3   OH263981   0.094   0.340   3.902 -0.2344  0.3783 -0.2172
14189TIP3    H163982   0.009   0.347   3.858  0.9791  2.6025 -2.4183
14189TIP3    H263983   0.100   0.419   3.955 -0.6977 -1.2012  2.3462
14190TIP3   OH263984   6.692   3.042   1.210  0.6991 -0.4199  0.7843
14190TIP3    H163985   6.784   3.046   1.236  0.3802  0.7407  1.8360
14190TIP3    H263986   6.644   3.041   1.293 -0.2563 -0.6477  0.2430
14191TIP3   OH263987   4.649   5.068   5.772 -0.1733 -0.0127 -0.2340
14191TIP3    H163988   4.689   5.035   5.852 -1.9478 -1.8466 -0.0222
14191TIP3    H263989   4.695   5.022   5.701  0.8967  1.0664 -0.2828
14192TIP3   OH263990   2.943   1.544   2.570  0.4296 -0.4945  0.2209
14192TIP3    H163991   2.883   1.592   2.628  0.0470  0.8433 -1.2112
14192TIP3    H263992   3.021   1.530   2.624  0.0299  0.5727  1.1318
14193TIP3   OH263993   1.837   2.443  14.609  0.3290 -0.0368  0.7710
14193TIP3    H163994   1.854   2.527  14.651  0.4458  0.6840 -0.6591
14193TIP3    H263995   1.924   2.409  14.588  0.3477 -1.1291  2.4343
14194TIP3   OH263996   4.847   1.796   4.577  0.5384  0.3654 -0.6432
14194TIP3    H163997   4.902   1.867   4.542  0.8957 -0.2861 -1.4449
14194TIP3    H263998   4.844   1.812   4.671  2.3664  0.2484 -0.5272
14195TIP3   OH263999   2.218   4.246  14.625 -0.4601 -0.4471  0.5208
14195TIP3    H164000   2.171   4.186  14.567 -0.2642 -0.3976  0.3071
14195TIP3    H264001   2.150   4.289  14.676 -0.6874  0.0538 -0.2017
14196TIP3   OH264002   2.099   2.617  16.567  0.1782  1.1392 -0.1513
14196TIP3    H164003   2.117   2.687  16.504 -0.3712  1.5423  0.1287
14196TIP3    H264004   2.005   2.623  16.583 -0.3692 -1.2416 -1.9593
14197TIP3   OH264005   4.764   2.308   0.135 -0.2630 -0.7649 -0.1829
14197TIP3    H164006   4.751   2.246   0.207  0.0535  0.1404  0.6771
14197TIP3    H264007   4.857   2.333   0.141  0.0339 -1.4661 -1.5659
14198TIP3   OH264008   6.502   4.197  12.344 -0.1080  0.6660 -0.8032
14198TIP3    H164009   6.425   4.185  12.289  0.1868  1.6330 -1.4660
14198TIP3    H264010   6.479   4.269  12.404 -0.2058  0.0359 -0.0747
14199TIP3   OH264011   0.395   1.076   2.326  0.0750 -0.4919 -0.3313
14199TIP3    H164012   0.410   1.071   2.231 -0.3263  0.9115 -0.4996
14199TIP3    H264013   0.363   1.165   2.340  1.2880 -0.2679  1.3014
14200TIP3   OH264014   6.301   6.754   2.735 -0.2739  0.4735  0.4174
14200TIP3    H164015   6.215   6.723   2.765 -0.1689 -0.2072  0.0332
14200TIP3    H264016   6.296   6.849   2.742 -1.1831  0.4596  0.0730
14201TIP3   OH264017   4.995   4.094  11.693 -0.2381 -0.1178 -0.3982
14201TIP3    H164018   5.025   4.141  11.616  1.0767  1.5887  1.0826
14201TIP3    H264019   4.911   4.135  11.716  0.0011  0.2520 -0.1822
14202TIP3   OH264020   3.790   6.212  13.707 -0.3074 -0.4872 -0.0609
14202TIP3    H164021   3.770   6.297  13.668 -0.1227 -0.2132  0.4273
14202TIP3    H264022   3.876   6.189  13.673 -0.0495 -0.1456  0.3466
14203TIP3   OH264023   0.892   4.128  15.372  0.0524 -0.8213  0.1397
14203TIP3    H164024   0.893   4.041  15.412 -0.8785  0.1061  2.3383
14203TIP3    H264025   0.896   4.188  15.446 -0.8677  1.0243 -1.2409
14204TIP3   OH264026   1.758   2.479   4.951  0.4155  0.1793 -0.1829
14204TIP3    H164027   1.725   2.541   5.017  1.8530  0.5995  0.1739
14204TIP3    H264028   1.764   2.396   4.998  0.7297  0.3096  0.0112
14205TIP3   OH264029   4.492   5.001  14.922  0.2067  0.6161  0.3886
14205TIP3    H164030   4.555   5.022  14.991  0.0978  0.5334  0.5136
14205TIP3    H264031   4.498   5.075  14.861  1.3568 -0.0094 -0.2803
14206TIP3   OH264032   6.808   4.928  11.546 -0.3566  0.4182  0.0811
14206TIP3    H164033   6.848   4.912  11.631 -2.1956 -1.1752  0.7197
14206TIP3    H264034   6.878   4.910  11.483  0.4723 -0.3487  1.1827
14207TIP3   OH264035   3.762   5.913  15.296  0.7445 -0.0733  0.3646
14207TIP3    H164036   3.764   5.830  15.344  0.4645 -0.5381 -0.4163
14207TIP3    H264037   3.722   5.892  15.212  0.3343  0.9292  0.2882
14208TIP3   OH264038   5.232   2.042  16.313  0.1317 -0.1181 -0.2422
14208TIP3    H164039   5.266   1.953  16.306 -2.1054 -1.1456  0.7852
14208TIP3    H264040   5.270   2.075  16.395  0.1981 -0.5027 -0.1144
14209TIP3   OH264041   4.747   2.463   3.452  0.5470 -0.1504 -0.7026
14209TIP3    H164042   4.744   2.558   3.466 -0.8498  0.2733 -3.3213
14209TIP3    H264043   4.833   2.448   3.412  1.1612 -0.1747  0.5734
14210TIP3   OH264044   0.297   5.786   3.510 -0.1853 -0.3222 -0.1566
14210TIP3    H164045   0.244   5.709   3.492 -1.6635  0.3126  1.2739
14210TIP3    H264046   0.279   5.846   3.438 -0.0076 -0.8114 -0.6104
14211TIP3   OH264047   1.739   5.082  13.673 -0.4416  0.2326  0.2951
14211TIP3    H164048   1.666   5.060  13.731  0.0194 -1.5065  0.2591
14211TIP3    H264049   1.816   5.079  13.729 -0.0194 -1.2454 -0.3108
14212TIP3   OH264050   6.586   5.993  15.491 -0.3160  0.5053  0.0510
14212TIP3    H164051   6.521   6.034  15.433  1.4262  1.1244 -1.5499
14212TIP3    H264052   6.575   6.039  15.574 -3.1007 -0.6226  0.4422
14213TIP3   OH264053   2.199   4.720  15.174  0.1982 -0.4025 -0.8955
14213TIP3    H164054   2.269   4.757  15.120  1.0842  0.9368  1.0696
14213TIP3    H264055   2.163   4.795  15.221  0.1728 -1.6237  1.1562
14214TIP3   OH264056   1.197   6.431   1.117  0.5829  0.1693  0.4397
14214TIP3    H164057   1.117   6.397   1.078  0.4801 -0.3979  1.1265
14214TIP3    H264058   1.172   6.455   1.206  0.8496  1.2952  0.2307
14215TIP3   OH264059   1.713   6.375  11.092  0.1966  0.1575 -0.0917
14215TIP3    H164060   1.746   6.394  11.004 -0.2165  1.6231  0.0475
14215TIP3    H264061   1.656   6.299  11.081 -0.0838  0.5096 -1.1374
14216TIP3   OH264062   4.463   1.293   5.669 -0.2271  0.4900 -0.3931
14216TIP3    H164063   4.461   1.321   5.760 -1.1753 -2.5307  0.6478
14216TIP3    H264064   4.536   1.231   5.665 -0.5108  0.2051 -1.5644
14217TIP3   OH264065   2.916   6.457  13.472  0.9876  0.0158  0.0426
14217TIP3    H164066   2.946   6.405  13.397  0.5436  1.3762 -1.1364
14217TIP3    H264067   2.978   6.531  13.475  1.3474 -0.3104  1.4043
14218TIP3   OH264068   4.128   3.859   1.464 -0.2048  0.3904  0.3161
14218TIP3    H164069   4.043   3.883   1.427  0.2636 -0.5368 -1.4650
14218TIP3    H264070   4.115   3.770   1.496 -0.0280  0.4201  0.4703
14219TIP3   OH264071   1.340   1.256   3.260  0.0470  0.7436  0.1719
14219TIP3    H164072   1.328   1.271   3.167 -0.4346  0.5705  0.1992
14219TIP3    H264073   1.402   1.183   3.266 -1.2162 -0.3925 -0.0595
14220TIP3   OH264074   3.783   4.741  10.240 -0.0356  0.1097  0.7753
14220TIP3    H164075   3.728   4.663  10.250  0.3327 -0.2978 -0.2429
14220TIP3    H264076   3.852   4.730  10.304  1.2765 -1.5464 -0.8273
14221TIP3   OH264077   5.533   6.680   3.720  0.0374  0.0255  0.6817
14221TIP3    H164078   5.441   6.700   3.704  0.1084 -0.5472 -0.5758
14221TIP3    H264079   5.533   6.589   3.750  0.1290  0.2984  1.5302
14222TIP3   OH264080   5.092   0.105  11.433 -0.2634 -0.6577 -0.2766
14222TIP3    H164081   5.063   0.147  11.514 -3.7202 -2.0436 -0.6153
14222TIP3    H264082   5.088   0.175  11.367  1.1137  0.1196  0.4246
14223TIP3   OH264083   4.215   6.305  12.217  0.6373 -0.4354 -0.5613
14223TIP3    H164084   4.218   6.210  12.220  1.8621 -0.3999  0.2098
14223TIP3    H264085   4.307   6.332  12.211  0.4222  0.7151  0.7212
14224TIP3   OH264086   2.704   0.742  15.426  0.3747 -0.5145  0.3081
14224TIP3    H164087   2.747   0.801  15.365 -0.0078  0.5230  1.0248
14224TIP3    H264088   2.774   0.709  15.482  0.4318  0.1619  0.6420
14225TIP3   OH264089   4.522   0.350  13.182  0.0333 -0.5150 -0.0420
14225TIP3    H164090   4.512   0.439  13.149  2.7090 -0.0919  0.0212
14225TIP3    H264091   4.549   0.299  13.105 -0.5567 -1.0849  0.1134
14226TIP3   OH264092   4.275   5.176   3.347 -0.6771 -0.0368  0.1087
14226TIP3    H164093   4.222   5.237   3.296  0.4428  0.6945 -0.2347
14226TIP3    H264094   4.343   5.231   3.386  1.4905 -1.2488 -1.6955
14227TIP3   OH264095   3.107   6.735   5.090  0.6766  0.0744  0.2896
14227TIP3    H164096   3.070   6.818   5.061  2.0106  0.0745 -1.5329
14227TIP3    H264097   3.100   6.739   5.186 -2.0901  0.9079  0.1652
14228TIP3   OH264098   3.773   0.943  10.972 -0.4126  0.1644  0.0122
14228TIP3    H164099   3.764   0.877  10.903  1.0078  2.2478 -2.3283
14228TIP3    H264100   3.854   0.990  10.950 -0.0457  1.1498  2.9740
14229TIP3   OH264101   4.427   5.182   4.624  0.3552  0.0367 -0.4305
14229TIP3    H164102   4.354   5.180   4.563 -1.9806  3.2383  1.9252
14229TIP3    H264103   4.393   5.144   4.705  0.4874  3.2922  1.3076
14230TIP3   OH264104   5.904   0.859   2.977  0.2571 -0.3580 -0.4304
14230TIP3    H164105   5.893   0.782   2.922  0.4214  0.4979 -1.6897
14230TIP3    H264106   5.816   0.893   2.990  0.2661 -0.2724 -0.5899
14231TIP3   OH264107   2.530   3.733   4.162 -0.0582 -0.0023 -0.6663
14231TIP3    H164108   2.464   3.727   4.231  2.6077 -0.5164  2.0667
14231TIP3    H264109   2.515   3.819   4.122 -2.0513  0.0917  0.1577
14232TIP3   OH264110   2.692   3.998   0.222  0.3242 -0.0437  0.3424
14232TIP3    H164111   2.651   3.939   0.159  0.9097  1.1356 -1.2323
14232TIP3    H264112   2.762   3.946   0.261 -0.5421 -1.0392  0.6250
14233TIP3   OH264113   3.938   4.713   3.730 -0.5579  0.2872  0.0386
14233TIP3    H164114   3.886   4.640   3.765  1.4227 -1.2524 -0.0778
14233TIP3    H264115   3.881   4.753   3.664 -2.0544 -0.5241  0.7729
14234TIP3   OH264116   1.280   5.483   2.021 -0.1896  0.0777  0.2831
14234TIP3    H164117   1.251   5.573   2.038 -1.8529 -0.4567  0.4882
14234TIP3    H264118   1.199   5.431   2.025  0.8746 -1.5787  1.1874
14235TIP3   OH264119   6.680   0.579  13.716 -0.1388 -0.2656 -0.3106
14235TIP3    H164120   6.765   0.619  13.699  0.3400 -1.8230 -1.7782
14235TIP3    H264121   6.697   0.519  13.789  0.5278 -1.9589 -1.7857
14236TIP3   OH264122   0.339   5.856   5.091 -0.1475 -0.2210  0.2985
14236TIP3    H164123   0.400   5.800   5.043  0.5153  0.5666  0.2049
14236TIP3    H264124   0.255   5.842   5.048  0.0635 -0.9394  0.1091
14237TIP3   OH264125   3.364   2.701   5.875  0.3985  0.1167 -0.5047
14237TIP3    H164126   3.355   2.763   5.948 -3.2277  0.4573 -1.0272
14237TIP3    H264127   3.390   2.619   5.917  2.2231  1.1779  0.5948
14238TIP3   OH264128   4.986   1.534  12.565 -0.0608  0.1017 -0.2098
14238TIP3    H164129   4.983   1.629  12.557 -2.2569  0.0019 -1.2223
14238TIP3    H264130   4.927   1.514  12.638 -0.0552 -0.5187 -0.3693
14239TIP3   OH264131   4.235   4.006  10.904  0.1242 -0.3089  0.5000
14239TIP3    H164132   4.304   3.968  10.958  0.1001 -1.2575 -0.1241
14239TIP3    H264133   4.234   4.099  10.929  2.1912 -0.0748 -0.0989
14240TIP3   OH264134   4.817   5.993  15.991 -0.2665 -0.9485 -0.4967
14240TIP3    H164135   4.871   6.055  15.942 -0.0285 -0.7356  0.0301
14240TIP3    H264136   4.864   5.979  16.073 -0.5922 -1.4081 -0.3844
14241TIP3   OH264137   0.378   4.983  15.906 -0.4795  0.4006 -0.2974
14241TIP3    H164138   0.346   5.040  15.977 -2.6754 -1.3734  0.2762
14241TIP3    H264139   0.439   5.037  15.858  1.8798  1.4764  3.4484
14242TIP3   OH264140   5.845   6.331  11.648 -0.1037  0.0604 -0.1201
14242TIP3    H164141   5.930   6.375  11.641 -0.4135  0.4598 -1.9857
14242TIP3    H264142   5.865   6.238  11.633  0.0485  0.0938 -0.1251
14243TIP3   OH264143   0.417   5.034   0.809 -0.5316 -0.2633 -0.3430
14243TIP3    H164144   0.419   5.130   0.814 -0.4048 -0.2158 -1.2776
14243TIP3    H264145   0.455   5.013   0.724  0.2635 -1.1885  0.2176
14244TIP3   OH264146   0.079   3.346   2.053  0.5025 -0.1737  0.3051
14244TIP3    H164147   0.051   3.297   1.975  0.7976  0.2253 -0.0612
14244TIP3    H264148   0.041   3.433   2.041 -2.1762 -0.9874  2.2053
14245TIP3   OH264149   2.069   2.199   0.489 -0.3688 -0.4250 -0.2848
14245TIP3    H164150   1.986   2.246   0.475  1.5553  2.3332 -4.6578
14245TIP3    H264151   2.054   2.112   0.453 -1.2360  0.3116 -1.8247
14246TIP3   OH264152   5.013   3.627   0.923 -0.1357  0.3676  0.6897
14246TIP3    H164153   4.978   3.712   0.896  1.1165  0.6645 -0.0548
14246TIP3    H264154   5.087   3.611   0.864 -1.1000 -1.8420 -0.0330
14247TIP3   OH264155   1.287   1.094   2.665  0.4273 -0.3671  0.0459
14247TIP3    H164156   1.292   1.106   2.759  2.7934 -0.9535  0.0508
14247TIP3    H264157   1.249   1.176   2.632 -2.9782 -1.1462  1.6319
14248TIP3   OH264158   0.960   2.456   4.867  0.6833  0.6747  0.4742
14248TIP3    H164159   1.009   2.374   4.881 -2.3032 -1.2715  0.4376
14248TIP3    H264160   0.952   2.494   4.954  2.6658  1.3976  0.4092
14249TIP3   OH264161   5.017   6.517  14.159 -0.2441  0.4265  0.3047
14249TIP3    H164162   5.011   6.518  14.255 -2.5430  1.8008  0.2224
14249TIP3    H264163   4.932   6.549  14.130  0.3044 -0.2419 -2.2313
14250TIP3   OH264164   5.646   2.879  16.706  0.4050  0.9672 -0.4456
14250TIP3    H164165   5.705   2.911  16.774 -1.1529  1.0181  0.9824
14250TIP3    H264166   5.558   2.901  16.739 -0.6425 -2.2331 -0.6557
14251TIP3   OH264167   1.983   3.283   0.604  0.2702 -0.7544 -0.3527
14251TIP3    H164168   1.978   3.197   0.645  1.5732 -0.2100  1.0446
14251TIP3    H264169   2.071   3.285   0.564  0.4939  0.1284  0.1524
14252TIP3   OH264170   4.307   5.066   4.856  0.8324 -0.4368  0.0131
14252TIP3    H164171   4.256   5.139   4.893  0.3520 -0.0183 -1.3980
14252TIP3    H264172   4.362   5.037   4.928  0.1095  0.4901  0.9844
14253TIP3   OH264173   0.576   4.334  13.129 -0.1306  0.4525  0.0517
14253TIP3    H164174   0.545   4.251  13.094 -2.2433  1.3307 -0.2951
14253TIP3    H264175   0.671   4.330  13.120 -0.2107 -1.7165 -0.3742
14254TIP3   OH264176   3.863   1.071   4.924  0.2686 -0.0697  0.3801
14254TIP3    H164177   3.912   0.993   4.950 -0.0349 -0.7793 -1.0499
14254TIP3    H264178   3.833   1.109   5.006  0.6233 -1.3383  1.1264
14255TIP3   OH264179   4.366   1.489  15.067  0.2675  0.0493 -0.3418
14255TIP3    H164180   4.382   1.576  15.102  0.3925 -0.2602  0.3684
14255TIP3    H264181   4.271   1.483  15.061  0.2772  0.5966 -1.3306
14256TIP3   OH264182   0.864   5.789  16.117 -0.0823 -0.5293 -0.1474
14256TIP3    H164183   0.927   5.846  16.074 -2.3856  1.4886 -1.0654
14256TIP3    H264184   0.912   5.708  16.133  3.0642  1.2591  0.3182
14257TIP3   OH264185   6.638   6.635   4.638  0.1261  0.2004  0.0697
14257TIP3    H164186   6.653   6.543   4.617  0.2670  0.5988 -1.7248
14257TIP3    H264187   6.697   6.683   4.580 -1.4897  1.4706 -0.6238
14258TIP3   OH264188   0.722   0.896  15.037  0.5251  0.6768 -0.1035
14258TIP3    H164189   0.710   0.804  15.016 -0.2800  1.0176 -1.2232
14258TIP3    H264190   0.764   0.896  15.123  0.0962 -0.7141  0.1218
14259TIP3   OH264191   0.734   2.551   4.737 -0.2206  0.3322 -0.1416
14259TIP3    H164192   0.799   2.561   4.807  0.2757 -1.0331 -0.3774
14259TIP3    H264193   0.741   2.632   4.686 -0.4295  1.2571  1.2253
14260TIP3   OH264194   0.857   2.604  12.812  0.3033 -0.2260 -0.5793
14260TIP3    H164195   0.778   2.581  12.763 -0.2024 -1.7440  0.8511
14260TIP3    H264196   0.926   2.551  12.772  0.5203  0.6823 -1.4620
14261TIP3   OH264197   4.319   5.120   0.187 -0.4124 -0.1924 -0.1470
14261TIP3    H164198   4.398   5.120   0.134 -0.5090 -0.0166 -0.2935
14261TIP3    H264199   4.319   5.206   0.229  1.4258 -1.4797  2.7900
14262TIP3   OH264200   0.637   5.267  12.244 -0.0138 -0.2450  0.2866
14262TIP3    H164201   0.541   5.273  12.239 -0.0572 -1.9110 -2.1493
14262TIP3    H264202   0.664   5.356  12.268 -2.1625  0.0640  1.9313
14263TIP3   OH264203   1.147   3.054  14.271  0.4129  0.7748  0.0399
14263TIP3    H164204   1.183   3.027  14.356 -0.9424 -1.6822 -0.0849
14263TIP3    H264205   1.221   3.045  14.210  0.5938 -0.6006  0.4251
14264TIP3   OH264206   6.425   1.354  16.996 -0.5465  0.1707 -0.2395
14264TIP3    H164207   6.390   1.389  16.914  0.4408  1.4221 -0.1521
14264TIP3    H264208   6.349   1.315  17.040 -1.4637  1.1839 -0.8785
14265TIP3   OH264209   2.330   1.056  13.641  0.4396 -0.0256  0.1255
14265TIP3    H164210   2.405   1.070  13.583  1.0794  0.8546  1.1333
14265TIP3    H264211   2.254   1.054  13.582  1.0863  0.6479 -0.7593
14266TIP3   OH264212   4.693   6.180   5.526  0.2811 -0.4326 -0.6320
14266TIP3    H164213   4.645   6.101   5.551  0.2967  0.0089  0.8531
14266TIP3    H264214   4.744   6.154   5.449 -0.7565 -1.4771 -0.9956
14267TIP3   OH264215   0.225   1.250  16.690  0.2816 -0.1068  0.1004
14267TIP3    H164216   0.136   1.228  16.662  0.2892 -0.7275  0.5551
14267TIP3    H264217   0.276   1.253  16.609  0.4241 -2.4177  0.0419
14268TIP3   OH264218   1.545   3.098  13.921  0.4990  0.1954  0.0544
14268TIP3    H164219   1.612   3.147  13.969  0.2601  2.0191 -1.3751
14268TIP3    H264220   1.592   3.062  13.845  0.7851 -2.3311  1.3183
14269TIP3   OH264221   3.175   5.180   1.566  0.3021 -0.5357  0.5210
14269TIP3    H164222   3.151   5.272   1.565 -0.2758 -0.6827  0.4695
14269TIP3    H264223   3.263   5.178   1.604  0.6264  0.0977 -0.1815
14270TIP3   OH264224   4.028   3.635  15.576  0.2048 -0.4513 -0.3183
14270TIP3    H164225   4.108   3.612  15.529 -0.1316  0.5472 -1.4275
14270TIP3    H264226   4.038   3.594  15.662  1.6863 -0.7361 -0.6011
14271TIP3   OH264227   1.981   2.277   1.805 -0.1909 -0.3681  0.0113
14271TIP3    H164228   2.061   2.230   1.782 -0.2590  0.2369 -1.5485
14271TIP3    H264229   2.011   2.345   1.866  0.4767 -0.2112 -0.4745
14272TIP3   OH264230   2.228   2.910   2.918 -0.3739 -0.4410 -0.4603
14272TIP3    H164231   2.291   2.845   2.950  0.1430 -0.7969 -2.1001
14272TIP3    H264232   2.269   2.994   2.939  1.1882 -0.6520 -2.3222
14273TIP3   OH264233   4.598   5.238   2.679  0.4211 -0.8825 -0.1133
14273TIP3    H164234   4.605   5.178   2.754  2.3630 -1.4090 -0.6634
14273TIP3    H264235   4.687   5.271   2.666 -0.6740  2.9062  0.7255
14274TIP3   OH264236   1.400   3.211   4.058 -0.5688  0.3144 -0.5112
14274TIP3    H164237   1.359   3.255   3.984 -0.9087 -0.0540 -0.5447
14274TIP3    H264238   1.370   3.120   4.052  0.5072 -0.0418 -0.7222
14275TIP3   OH264239   1.821   4.197  13.702  0.2756  0.2440  0.2049
14275TIP3    H164240   1.886   4.168  13.638 -0.5668 -0.9316 -0.1414
14275TIP3    H264241   1.737   4.172  13.665 -0.2121 -1.2226  2.1214
14276TIP3   OH264242   1.191   3.965   2.829 -0.8778  0.2869  0.3816
14276TIP3    H164243   1.121   3.995   2.886 -1.0195 -0.4234  0.5986
14276TIP3    H264244   1.198   3.871   2.848 -0.7585  0.0893 -0.5909
14277TIP3   OH264245   6.566   5.400  12.496  0.1111  0.0149  0.5836
14277TIP3    H164246   6.620   5.331  12.457  1.9499  1.4471  0.4729
14277TIP3    H264247   6.583   5.394  12.590  1.2204  1.0519  0.4649
14278TIP3   OH264248   4.121   1.120   6.150  0.0790 -0.3616  0.4951
14278TIP3    H164249   4.197   1.169   6.182  0.1010 -0.5807  0.7748
14278TIP3    H264250   4.052   1.138   6.213 -1.1059  2.4304 -1.3655
14279TIP3   OH264251   5.387   2.005  11.399 -0.1221  0.2022 -0.5021
14279TIP3    H164252   5.433   1.992  11.481  0.2770 -1.7166 -0.9902
14279TIP3    H264253   5.339   2.087  11.411  0.3416  0.2278  1.4271
14280TIP3   OH264254   0.885   1.903  15.274  0.3260 -0.4999 -0.1298
14280TIP3    H164255   0.817   1.934  15.215  1.3644  0.9083 -0.6426
14280TIP3    H264256   0.966   1.912  15.224  0.8462 -3.2474  0.0111
14281TIP3   OH264257   2.547   4.982  11.323  0.1624 -0.2697 -0.3676
14281TIP3    H164258   2.518   4.895  11.350  2.0484 -0.7138  0.3729
14281TIP3    H264259   2.470   5.037  11.334 -0.9643 -1.7627 -0.4780
14282TIP3   OH264260   3.112   0.906  13.820  0.3368 -0.2079 -0.4037
14282TIP3    H164261   3.204   0.933  13.824  0.1510  0.3462  0.6137
14282TIP3    H264262   3.066   0.983  13.787  0.1563 -0.2585 -0.2729
14283TIP3   OH264263   1.262   6.241  14.881 -0.1717  0.1769 -0.2262
14283TIP3    H164264   1.307   6.214  14.960 -1.0682 -1.5944 -0.2750
14283TIP3    H264265   1.331   6.245  14.814  0.3378  0.2347  0.2976
14284TIP3   OH264266   4.457   6.362   5.314  0.0733  0.0048  0.2964
14284TIP3    H164267   4.397   6.433   5.333 -1.7019 -1.4893  0.5757
14284TIP3    H264268   4.432   6.292   5.375  0.7649 -1.3641 -0.9256
14285TIP3   OH264269   5.564   5.328  16.717  0.3812  0.0394 -0.4348
14285TIP3    H164270   5.571   5.415  16.758  1.0770 -0.2344  0.0330
14285TIP3    H264271   5.597   5.341  16.628  0.7792  0.1849 -0.2666
14286TIP3   OH264272   1.818   5.518  14.371  0.0620 -0.2425 -0.0030
14286TIP3    H164273   1.907   5.549  14.382  0.6878 -2.0779  0.5176
14286TIP3    H264274   1.826   5.441  14.314 -1.5651  1.2140 -2.3961
14287TIP3   OH264275   5.209   1.691  11.765  0.1132  0.1149  0.0546
14287TIP3    H164276   5.277   1.643  11.717  0.0652  0.6811 -0.5825
14287TIP3    H264277   5.257   1.752  11.820  0.1597 -0.3914  0.5908
14288TIP3   OH264278   3.618   6.546   0.039  0.2079  0.6578  0.1393
14288TIP3    H164279   3.600   6.462   0.082 -0.4610  0.8428  0.2292
14288TIP3    H264280   3.550   6.553  -0.028  0.1361  1.2227  0.2680
14289TIP3   OH264281   2.894   1.380   3.432 -0.1244 -0.3031  0.1926
14289TIP3    H164282   2.872   1.319   3.361 -0.8510  0.4150 -0.2196
14289TIP3    H264283   2.989   1.379   3.437 -0.0735 -0.4446 -0.7309
14290TIP3   OH264284   0.217   2.708  15.778 -0.4526 -0.0417  0.3151
14290TIP3    H164285   0.130   2.668  15.790 -0.9790  0.7278 -0.7142
14290TIP3    H264286   0.241   2.741  15.864 -1.0964 -0.4392  0.6538
14291TIP3   OH264287   2.474   4.535   4.123 -0.1611  0.0787 -0.0799
14291TIP3    H164288   2.526   4.460   4.092 -0.1902  0.5842 -1.4409
14291TIP3    H264289   2.423   4.500   4.195 -0.4592 -1.3453 -0.9384
14292TIP3   OH264290   5.986   0.949  11.923 -0.1854 -0.0867 -0.0883
14292TIP3    H164291   6.039   1.024  11.952  0.8285 -1.0795  0.6875
14292TIP3    H264292   6.029   0.873  11.961 -3.1072 -0.8528  2.0003
14293TIP3   OH264293   2.443   6.159   5.581  0.5300 -0.1206  0.1048
14293TIP3    H164294   2.380   6.138   5.651 -0.1636  0.9805 -0.1614
14293TIP3    H264295   2.472   6.074   5.548 -0.5380 -0.6517  0.4903
14294TIP3   OH264296   2.139   3.612  12.683 -0.6040 -0.1860  0.1875
14294TIP3    H164297   2.106   3.541  12.628 -1.6043 -0.2320  0.8248
14294TIP3    H264298   2.194   3.664  12.624 -0.4838 -1.0460 -0.4810
14295TIP3   OH264299   0.477   6.658   1.672  0.2862 -0.0729 -0.1574
14295TIP3    H164300   0.424   6.716   1.726  0.2393  1.8868 -2.1411
14295TIP3    H264301   0.415   6.597   1.632 -0.7839  2.6294 -2.9996
14296TIP3   OH264302   1.528   2.911   5.589  0.6602 -0.7486  0.3790
14296TIP3    H164303   1.512   2.820   5.615  1.8503 -1.0426  0.1060
14296TIP3    H264304   1.561   2.953   5.668  0.9898 -0.7799  0.2560
14297TIP3   OH264305   4.077   3.777   4.459 -0.1252  0.3752 -0.2583
14297TIP3    H164306   4.067   3.866   4.425  1.5082  0.1470 -1.5009
14297TIP3    H264307   4.014   3.771   4.531 -1.5269  1.9368 -1.2774
14298TIP3   OH264308   6.682   5.494  12.957  0.2069 -0.6876  0.1559
14298TIP3    H164309   6.656   5.575  12.914 -1.4358 -1.4296 -0.3235
14298TIP3    H264310   6.640   5.497  13.043  0.3560 -0.9162  0.2385
14299TIP3   OH264311   1.215   4.942  14.441 -0.0013 -0.2892  0.6646
14299TIP3    H164312   1.160   5.016  14.467  0.2861  0.1373  0.0702
14299TIP3    H264313   1.172   4.866  14.480 -0.0399  0.2348  1.7009
14300TIP3   OH264314   6.787   0.058   4.511 -0.4855 -0.2879 -0.1403
14300TIP3    H164315   6.878   0.052   4.543 -0.9007  1.8217  1.7287
14300TIP3    H264316   6.796   0.061   4.416  1.5069  0.6499  0.0117
14301TIP3   OH264317   3.405   4.099  12.835  0.0994  0.2867 -0.2080
14301TIP3    H164318   3.412   4.106  12.930 -2.4811  1.0391  0.0129
14301TIP3    H264319   3.426   4.186  12.802  1.5988 -0.1291 -0.4230
14302TIP3   OH264320   2.590   4.842   1.425  0.6260  0.0155 -0.2400
14302TIP3    H164321   2.535   4.784   1.374 -0.3577  0.5251  0.2028
14302TIP3    H264322   2.663   4.864   1.367  0.6295 -1.0715 -0.6589
14303TIP3   OH264323   2.288   5.147   1.166 -0.1422 -0.2586  0.1861
14303TIP3    H164324   2.288   5.123   1.258  1.5757 -1.0784  0.0354
14303TIP3    H264325   2.355   5.215   1.159 -0.2646 -0.1987 -0.4458
14304TIP3   OH264326   2.249   2.381  12.552 -0.3268 -0.0673  0.1153
14304TIP3    H164327   2.263   2.451  12.616 -1.0439 -0.7413  1.0438
14304TIP3    H264328   2.306   2.403  12.479 -1.2707  2.0222 -0.0354
14305TIP3   OH264329   2.883   6.170  15.856 -0.2179 -0.2246  0.0216
14305TIP3    H164330   2.873   6.134  15.768  3.7818 -4.2132  0.8212
14305TIP3    H264331   2.948   6.240  15.846  0.2078 -0.6503 -0.1787
14306TIP3   OH264332   0.628   3.581  14.753  0.2822  0.0244  0.2117
14306TIP3    H164333   0.632   3.674  14.775 -2.2307  0.5321 -1.0877
14306TIP3    H264334   0.701   3.566  14.694 -0.4684  1.7370 -1.2414
14307TIP3   OH264335   2.604   5.878   2.392 -0.0577 -0.3116 -0.2269
14307TIP3    H164336   2.678   5.897   2.334  0.8839 -1.2360  0.6353
14307TIP3    H264337   2.629   5.798   2.438 -1.6886 -0.7784 -0.0555
14308TIP3   OH264338   4.396   3.168   1.318  0.3476 -0.6811  0.2232
14308TIP3    H164339   4.403   3.255   1.357  0.7982 -0.6504  0.0675
14308TIP3    H264340   4.342   3.119   1.381  0.5968 -0.4685  0.6067
14309TIP3   OH264341   0.870   4.405   0.846 -0.3180  0.1630 -0.1511
14309TIP3    H164342   0.779   4.399   0.816  0.1162  1.9235 -2.0387
14309TIP3    H264343   0.878   4.493   0.884  0.8897  0.5481 -1.2242
14310TIP3   OH264344   2.387   6.146  16.192 -0.1441 -0.4716 -0.0896
14310TIP3    H164345   2.446   6.188  16.129 -0.5332  0.2572  0.0225
14310TIP3    H264346   2.388   6.203  16.268 -0.9192 -0.5018 -0.0501
14311TIP3   OH264347   5.265   3.096  12.127 -0.5937  0.0126  0.1313
14311TIP3    H164348   5.353   3.103  12.093 -0.7053 -0.7252 -0.3450
14311TIP3    H264349   5.209   3.093  12.049 -1.3952  3.7069  0.3756
14312TIP3   OH264350   5.529   6.191  14.071  1.1466 -0.5199  0.4024
14312TIP3    H164351   5.468   6.252  14.031  3.1759  1.4906  0.1963
14312TIP3    H264352   5.478   6.150  14.142 -1.4959 -1.7499 -1.9868
14313TIP3   OH264353   1.058   0.501  12.348 -0.1481  0.2457  0.0582
14313TIP3    H164354   1.135   0.475  12.397  0.0125  1.1534  0.3114
14313TIP3    H264355   1.089   0.572  12.291 -0.3156 -0.8112 -1.3997
14314TIP3   OH264356   2.746   6.487   3.290  0.1290 -0.2887 -0.2819
14314TIP3    H164357   2.680   6.537   3.338 -0.7548  0.0313 -1.7612
14314TIP3    H264358   2.824   6.492   3.345 -0.6056  0.7288  0.7262
14315TIP3   OH264359   2.846   0.725  12.468 -1.0776 -0.0439  0.2370
14315TIP3    H164360   2.860   0.722  12.374 -0.3205 -0.0504  0.3439
14315TIP3    H264361   2.844   0.819  12.489 -0.3420 -0.0373  0.3297
14316TIP3   OH264362   3.989   1.548   5.443  0.3057 -0.3959 -0.4260
14316TIP3    H164363   4.053   1.604   5.486  1.2341 -1.1242 -0.8318
14316TIP3    H264364   3.906   1.596   5.451  0.6818  0.0481  1.0589
14317TIP3   OH264365   4.282   0.719  15.939 -0.3136 -0.1134  0.7946
14317TIP3    H164366   4.297   0.670  16.020 -1.2376  0.2411  1.1885
14317TIP3    H264367   4.350   0.687  15.879 -0.1439 -0.9900  1.4311
14318TIP3   OH264368   4.998   4.305  16.655 -0.0241  0.2545  0.0219
14318TIP3    H164369   5.018   4.398  16.648 -0.3069  0.3419  0.3529
14318TIP3    H264370   5.063   4.262  16.599  1.0678  0.5245  1.0553
14319TIP3   OH264371   1.639   6.460  14.397  0.6217 -0.5362  0.0573
14319TIP3    H164372   1.576   6.402  14.353  2.0211 -0.5920 -2.0264
14319TIP3    H264373   1.656   6.417  14.481 -0.9320 -1.3133  0.0226
14320TIP3   OH264374   2.489   2.852  17.054  0.5111  0.2932 -0.0307
14320TIP3    H164375   2.397   2.826  17.066  0.4127  0.9940  0.8747
14320TIP3    H264376   2.539   2.780  17.094  0.3706 -0.1666 -0.6680
14321TIP3   OH264377   4.474   2.276   6.571 -0.0422 -0.1981 -0.1849
14321TIP3    H164378   4.450   2.369   6.570  1.8180  0.3258 -0.4071
14321TIP3    H264379   4.492   2.254   6.480  2.5487  0.1364  0.1636
14322TIP3   OH264380   4.371   0.051   3.129 -0.0778 -0.4760  0.0181
14322TIP3    H164381   4.297  -0.007   3.112 -0.5638  0.3455 -0.7903
14322TIP3    H264382   4.351   0.091   3.214 -0.7149 -0.0362 -0.3351
14323TIP3   OH264383   1.308   1.153  11.577 -0.4671  0.4238 -1.0055
14323TIP3    H164384   1.229   1.166  11.631  0.7146  0.9596  0.7002
14323TIP3    H264385   1.326   1.240  11.541  0.2936  0.7162  0.0332
14324TIP3   OH264386   3.991   3.180  13.935 -0.0970 -0.1979  0.0906
14324TIP3    H164387   3.936   3.109  13.901  0.9419 -0.1904 -1.7373
14324TIP3    H264388   3.932   3.231  13.991 -1.1725 -1.8033  0.4789
14325TIP3   OH264389   4.683   2.912   3.307  0.3458 -0.3015 -0.2936
14325TIP3    H164390   4.732   2.982   3.349  1.7378 -1.1629 -0.4231
14325TIP3    H264391   4.689   2.838   3.367 -1.3519 -0.2481 -0.0236
14326TIP3   OH264392   4.150   4.670  16.032  0.2092 -0.4195 -0.2500
14326TIP3    H164393   4.064   4.638  16.058  0.1607 -0.8938 -0.9896
14326TIP3    H264394   4.147   4.764  16.052  0.1364 -0.7296  1.3215
14327TIP3   OH264395   1.057   0.615  15.306  0.0537  0.0818  0.1129
14327TIP3    H164396   1.101   0.569  15.378 -1.8353  0.4753  1.6182
14327TIP3    H264397   1.109   0.694  15.294  1.0153 -0.5032  0.2994
14328TIP3   OH264398   4.893   2.997  15.969  0.0985 -0.3906  0.7354
14328TIP3    H164399   4.823   2.964  16.026 -1.2559  1.4829  0.2648
14328TIP3    H264400   4.971   2.998  16.025 -0.1461 -2.6846  1.2287
14329TIP3   OH264401   3.333   4.943  13.344 -0.0946 -0.5219  0.4370
14329TIP3    H164402   3.351   5.028  13.382  0.8896 -0.6530  0.2705
14329TIP3    H264403   3.405   4.887  13.372 -0.8221 -1.3620  0.7085
14330TIP3   OH264404   1.189   4.605   4.907  0.2436 -0.0225 -0.1882
14330TIP3    H164405   1.154   4.634   4.823 -0.9254  0.2240  0.3547
14330TIP3    H264406   1.149   4.519   4.921 -1.0905  0.7460  0.9623
14331TIP3   OH264407   5.068   1.394  16.107 -0.4333 -0.4735 -0.5337
14331TIP3    H164408   5.154   1.361  16.079 -0.6371 -0.4535 -1.2008
14331TIP3    H264409   5.021   1.316  16.137 -0.1344 -0.4639 -0.0254
14332TIP3   OH264410   3.407   3.920   1.982 -0.4526  0.1383  0.2531
14332TIP3    H164411   3.401   3.825   1.969 -2.4585  0.1817  0.5106
14332TIP3    H264412   3.390   3.932   2.076  0.7260  0.7131  0.4098
14333TIP3   OH264413   0.210   1.824  15.820  0.4572 -0.0703  0.1485
14333TIP3    H164414   0.155   1.746  15.809  0.0607  0.4452 -1.8310
14333TIP3    H264415   0.149   1.897  15.817  0.8216  0.3587  2.0614
14334TIP3   OH264416   5.716   3.246   4.437 -0.1265 -0.9797  0.0331
14334TIP3    H164417   5.771   3.260   4.514 -0.6343  0.5709  0.1582
14334TIP3    H264418   5.713   3.151   4.426 -0.5056 -1.2823  2.2842
14335TIP3   OH264419   5.322   5.709   3.668  0.0537 -0.8797  0.5805
14335TIP3    H164420   5.396   5.652   3.648 -0.1201 -0.3585 -1.9870
14335TIP3    H264421   5.250   5.672   3.617 -0.5109  0.5820  0.2692
14336TIP3   OH264422   2.359   5.529  16.635  0.0745  0.2667  0.0745
14336TIP3    H164423   2.444   5.537  16.678  0.3914  1.6925 -0.7657
14336TIP3    H264424   2.363   5.444  16.589  0.1852 -0.6927  1.7862
14337TIP3   OH264425   2.484   0.519  14.510 -0.1585 -0.3341  0.1456
14337TIP3    H164426   2.415   0.453  14.510 -0.7071  0.1936  1.5244
14337TIP3    H264427   2.462   0.577  14.583 -0.7176  2.4194 -1.9941
14338TIP3   OH264428   6.487   3.066   4.536  0.2978  0.5426 -0.3380
14338TIP3    H164429   6.412   3.088   4.480 -0.3896 -1.1130 -0.1310
14338TIP3    H264430   6.521   3.151   4.564 -1.0406  1.3599 -1.0440
14339TIP3   OH264431   4.766   2.882  14.632 -0.0115  0.6839 -0.0675
14339TIP3    H164432   4.693   2.912  14.687 -0.4715 -0.5635  0.0176
14339TIP3    H264433   4.739   2.797  14.600  0.7129  0.9324 -1.4039
14340TIP3   OH264434   4.165   5.190  16.262 -0.6909  0.3708 -0.3748
14340TIP3    H164435   4.175   5.186  16.357  2.3486  0.9878 -0.5641
14340TIP3    H264436   4.245   5.234  16.232 -0.4425 -1.8537 -3.3880
14341TIP3   OH264437   5.149   3.838  16.448  0.3285  0.5488 -0.1131
14341TIP3    H164438   5.183   3.797  16.368 -0.1729  0.0078 -0.0492
14341TIP3    H264439   5.075   3.784  16.473  0.3135  0.8832  0.5705
14342TIP3   OH264440   1.774   4.206  14.818 -0.4423  0.0266  0.2014
14342TIP3    H164441   1.792   4.113  14.834 -2.1126 -0.0859  1.7773
14342TIP3    H264442   1.859   4.249  14.829  0.1572 -1.2009  0.5540
14343TIP3   OH264443   1.690   0.474  14.002  0.2066 -0.3174 -0.2326
14343TIP3    H164444   1.694   0.559  13.958 -0.0713 -0.6995 -1.0054
14343TIP3    H264445   1.746   0.485  14.079 -0.5605  0.8557  0.1785
14344TIP3   OH264446   0.538   1.914   4.228 -0.2287 -0.1482  0.0732
14344TIP3    H164447   0.518   1.889   4.318  2.0111 -0.8773  0.4285
14344TIP3    H264448   0.495   1.847   4.175  0.1287 -0.8970  0.7071
14345TIP3   OH264449   4.029   4.203   2.588 -0.0769  0.3372 -0.4465
14345TIP3    H164450   4.085   4.128   2.567  0.8391  0.5954  0.9619
14345TIP3    H264451   3.941   4.175   2.564  0.6129 -0.0512 -2.8069
14346TIP3   OH264452   0.785   1.641   2.174 -0.2425  0.2835 -0.2875
14346TIP3    H164453   0.715   1.576   2.174  1.8989 -2.1678 -0.4522
14346TIP3    H264454   0.775   1.688   2.257 -1.3805 -0.7679  0.1962
14347TIP3   OH264455   5.718   4.791  10.134 -0.4205  0.6461  0.2026
14347TIP3    H164456   5.769   4.787  10.053 -2.6318  1.1285 -1.2804
14347TIP3    H264457   5.779   4.828  10.198  1.7493 -0.7942 -0.8843
14348TIP3   OH264458   5.533   3.152  12.068  0.1453 -0.1488 -0.0922
14348TIP3    H164459   5.521   3.246  12.063  1.6819  0.0944  0.0440
14348TIP3    H264460   5.578   3.129  11.987 -0.0048 -0.7280 -0.0202
14349TIP3   OH264461   6.813   1.120  16.635  0.0798 -0.3907  0.2245
14349TIP3    H164462   6.821   1.025  16.641 -0.7746 -0.5026 -0.3179
14349TIP3    H264463   6.721   1.138  16.652  0.1528  0.3088 -0.0923
14350TIP3   OH264464   0.015   6.565   1.613 -0.2398 -0.0197 -0.9866
14350TIP3    H164465   0.083   6.537   1.552  0.8144 -2.9828  1.2819
14350TIP3    H264466   0.060   6.619   1.677 -0.3034 -0.7194 -0.3319
14351TIP3   OH264467   2.763   0.477  14.552  0.0269  0.4414 -0.6590
14351TIP3    H164468   2.669   0.473  14.570 -0.2286 -2.0335 -2.0913
14351TIP3    H264469   2.769   0.528  14.471 -0.1025  0.4507 -0.6641
14352TIP3   OH264470   5.569   4.986  12.877  0.1790 -0.2495 -0.2174
14352TIP3    H164471   5.501   5.014  12.816 -0.4228 -2.9406 -0.9104
14352TIP3    H264472   5.619   4.920  12.829  1.5284 -0.3579  1.2482
14353TIP3   OH264473   2.892   4.048  16.012 -0.0749  0.7234  0.2386
14353TIP3    H164474   2.800   4.046  16.038 -0.0226 -0.7606  0.3940
14353TIP3    H264475   2.905   3.965  15.965  1.3807  0.5080  0.9777
14354TIP3   OH264476   3.378   3.209   3.099 -0.1001  0.1789  0.5169
14354TIP3    H164477   3.428   3.291   3.101 -1.7370  1.2767 -0.8419
14354TIP3    H264478   3.422   3.153   3.162  0.5615  2.4267  2.2010
14355TIP3   OH264479   6.622   2.602   0.197  0.2659 -0.2319  0.1557
14355TIP3    H164480   6.658   2.690   0.210  2.4926 -0.9896 -0.4456
14355TIP3    H264481   6.678   2.563   0.129 -1.2805 -1.7812 -0.2955
14356TIP3   OH264482   4.351   4.011  15.724  0.1089  0.3441 -0.2143
14356TIP3    H164483   4.435   3.988  15.764  0.2372  0.7865 -0.2237
14356TIP3    H264484   4.318   4.083  15.777  0.3072  0.9747 -0.9263
14357TIP3   OH264485   2.017   4.249   0.826  0.6960 -0.9018 -0.0263
14357TIP3    H164486   2.092   4.199   0.859 -0.2705 -1.1173  1.9752
14357TIP3    H264487   2.049   4.289   0.745  2.9345 -1.0732  0.7053
14358TIP3   OH264488   0.744   6.698  12.303  0.2522  0.9791 -0.1528
14358TIP3    H164489   0.829   6.679  12.265 -0.2215 -0.0661 -0.7298
14358TIP3    H264490   0.702   6.758  12.241 -0.2925 -0.2680 -1.0227
14359TIP3   OH264491   3.793   2.234   4.394 -0.0154 -0.1014 -0.6470
14359TIP3    H164492   3.700   2.248   4.376  0.0444 -0.0978 -0.9594
14359TIP3    H264493   3.816   2.301   4.459  0.4517  1.8094 -2.6483
14360TIP3   OH264494   4.160   4.445  16.603  0.0458 -0.1453  0.1816
14360TIP3    H164495   4.073   4.443  16.564  0.6283 -0.3621 -1.1806
14360TIP3    H264496   4.162   4.525  16.655 -1.1609 -0.4575  0.7373
14361TIP3   OH264497   4.977   2.449   2.322  0.0902 -0.7056  0.1757
14361TIP3    H164498   4.960   2.511   2.393 -0.3849  0.1133 -0.6252
14361TIP3    H264499   4.913   2.379   2.336 -0.0023 -0.5491  0.5467
14362TIP3   OH264500   1.929   0.761   4.075  0.0783  0.4836  0.5892
14362TIP3    H164501   2.021   0.779   4.053 -0.1494  2.3225  1.0385
14362TIP3    H264502   1.891   0.846   4.093 -1.7974 -0.2251  0.2334
14363TIP3   OH264503   3.865   0.573  12.053 -0.6454 -0.4542 -0.3584
14363TIP3    H164504   3.885   0.600  11.963  1.6222  2.1613  0.7853
14363TIP3    H264505   3.897   0.483  12.059 -1.7258 -1.0246 -2.3823
14364TIP3   OH264506   3.031   4.603  15.140 -0.4618  0.1324 -0.7939
14364TIP3    H164507   3.027   4.699  15.141  1.3972  0.2729  1.4402
14364TIP3    H264508   2.961   4.576  15.200 -1.1141  0.0456 -1.5738
14365TIP3   OH264509   1.887   5.442  12.961 -0.2321 -0.1667  0.4656
14365TIP3    H164510   1.881   5.459  13.055  0.4520 -1.9757  0.8682
14365TIP3    H264511   1.807   5.394  12.939 -0.3787  0.2256  0.1156
14366TIP3   OH264512   3.531   3.767   3.274 -0.5775 -0.3782 -0.3706
14366TIP3    H164513   3.590   3.839   3.249 -1.8110  0.8413  0.0718
14366TIP3    H264514   3.477   3.753   3.196  0.1693 -1.3929 -0.7246
14367TIP3   OH264515   2.605   0.899   6.398 -0.2208 -0.5414 -0.1829
14367TIP3    H164516   2.681   0.840   6.404  0.2869  0.0569 -0.5249
14367TIP3    H264517   2.591   0.909   6.303  1.0805  1.5894 -0.1999
14368TIP3   OH264518   6.585   2.525  15.960 -0.2484  0.2758 -1.0474
14368TIP3    H164519   6.588   2.576  15.879  0.9673 -0.1307 -1.2760
14368TIP3    H264520   6.510   2.467  15.948 -1.3344  1.6224 -1.0033
14369TIP3   OH264521   6.753   2.853   2.147  0.0401 -0.3539 -0.0707
14369TIP3    H164522   6.838   2.895   2.133 -0.2595  0.9275  1.6737
14369TIP3    H264523   6.775   2.765   2.178  0.7519  0.2150  1.0865
14370TIP3   OH264524   3.343   5.726  14.369 -0.3121  0.5058  0.1616
14370TIP3    H164525   3.288   5.730  14.291 -0.6792 -0.2831  0.3672
14370TIP3    H264526   3.337   5.635  14.398  0.2400  0.6670  0.8093
14371TIP3   OH264527   2.663   5.922  10.591 -0.2333 -0.0180 -0.4475
14371TIP3    H164528   2.607   6.000  10.593 -0.6633 -0.3000  2.1603
14371TIP3    H264529   2.603   5.849  10.602  0.4435 -0.4826  0.2830
14372TIP3   OH264530   4.270   3.405  13.038  0.4580  0.6327 -0.3744
14372TIP3    H164531   4.190   3.366  13.004  0.7425 -1.0225  0.7301
14372TIP3    H264532   4.303   3.459  12.966 -0.0729 -1.0096 -1.9256
14373TIP3   OH264533   1.793   6.718  17.046  0.4738 -0.2609  0.3182
14373TIP3    H164534   1.733   6.652  17.082  0.2017 -0.2624 -0.1182
14373TIP3    H264535   1.749   6.748  16.966  1.1704 -0.4373 -0.1423
14374TIP3   OH264536   3.533   3.481   1.380  0.4337 -0.5118 -0.7663
14374TIP3    H164537   3.445   3.518   1.384  0.8164  0.4005 -0.5832
14374TIP3    H264538   3.554   3.480   1.286  0.8384  0.7811 -0.7090
14375TIP3   OH264539   2.242   2.039  16.117  0.0946  0.4385  0.7813
14375TIP3    H164540   2.163   2.058  16.067  0.7564  0.3222 -0.3350
14375TIP3    H264541   2.248   1.943  16.118  1.0882  0.4646 -0.5667
14376TIP3   OH264542   3.221   3.650  11.200 -0.1564 -0.2605  0.0539
14376TIP3    H164543   3.195   3.590  11.270 -0.0870  0.8326  1.0678
14376TIP3    H264544   3.259   3.595  11.132 -0.0711 -1.3449  0.9601
14377TIP3   OH264545   3.500   4.599   5.784 -0.1376 -0.4728 -0.4271
14377TIP3    H164546   3.546   4.555   5.855  0.1309  0.5935  0.0823
14377TIP3    H264547   3.445   4.531   5.746 -0.2777 -1.0805  0.7915
14378TIP3   OH264548   3.462   5.310  14.711 -0.4696  0.3931 -0.1648
14378TIP3    H164549   3.429   5.248  14.646  1.8327 -0.2986 -0.7620
14378TIP3    H264550   3.555   5.318  14.692  0.1506  0.7751  2.5757
14379TIP3   OH264551   3.546   4.972  15.875 -0.1593 -0.4640  0.0544
14379TIP3    H164552   3.538   4.917  15.954 -0.2319 -0.8912 -0.2458
14379TIP3    H264553   3.530   5.061  15.906 -1.1550 -0.7301  0.3557
14380TIP3   OH264554   2.749   5.219   1.654 -0.0294  0.3883  0.4754
14380TIP3    H164555   2.710   5.175   1.579  0.2845  1.0735 -0.1026
14380TIP3    H264556   2.832   5.253   1.622 -0.2864  1.4532  0.8707
14381TIP3   OH264557   6.272   4.187  12.183  0.3935 -0.2142 -0.1315
14381TIP3    H164558   6.293   4.096  12.164 -2.5595 -1.0056 -0.0791
14381TIP3    H264559   6.265   4.229  12.097  0.1763 -0.4431 -0.2265
14382TIP3   OH264560   6.071   0.635  15.801 -0.1476  0.3953  0.0574
14382TIP3    H164561   6.158   0.656  15.834  0.0806 -2.7272  1.8320
14382TIP3    H264562   6.011   0.666  15.869 -0.5502  2.6349 -1.2061
14383TIP3   OH264563   6.062   6.497  11.641  0.9396  0.7542 -0.1821
14383TIP3    H164564   6.017   6.575  11.609  1.2961  1.3932  0.8268
14383TIP3    H264565   6.136   6.531  11.692  0.6640 -0.2116  0.9140
14384TIP3   OH264566   1.536   3.689  14.704  0.4918 -0.6535 -0.1256
14384TIP3    H164567   1.459   3.633  14.707  0.6156 -0.8932 -1.1827
14384TIP3    H264568   1.548   3.710  14.612 -0.1354  1.9640  0.3069
14385TIP3   OH264569   5.453   4.077  13.974  0.6080  0.2362  0.4830
14385TIP3    H164570   5.492   4.162  13.994 -1.0483  0.7116  1.9576
14385TIP3    H264571   5.387   4.096  13.907  1.9705 -0.3579 -1.0937
14386TIP3   OH264572   1.509   6.382   0.857  0.2605 -0.4279 -0.0471
14386TIP3    H164573   1.582   6.437   0.827  0.9422 -1.5942 -0.5972
14386TIP3    H264574   1.431   6.436   0.843  0.9245  0.4854 -0.3405
14387TIP3   OH264575   2.847   2.316  16.637 -0.5149 -0.1113 -0.2879
14387TIP3    H164576   2.820   2.267  16.559  0.7065 -1.2681 -0.0256
14387TIP3    H264577   2.827   2.407  16.616 -1.6206 -0.5646 -1.3354
14388TIP3   OH264578   4.008   5.678   4.794 -0.6530 -0.2743  0.2961
14388TIP3    H164579   4.018   5.588   4.826  0.5225 -0.4198 -0.4247
14388TIP3    H264580   3.962   5.668   4.711  1.0436 -0.4015 -0.6676
14389TIP3   OH264581   4.713   5.935   3.880 -0.6626 -0.0220  0.4803
14389TIP3    H164582   4.785   5.882   3.846 -1.2431  0.4065 -1.5736
14389TIP3    H264583   4.659   5.874   3.930 -0.5861 -1.0617 -0.6891
14390TIP3   OH264584   5.253   3.925  16.719 -0.2889  0.5725  0.1270
14390TIP3    H164585   5.259   3.841  16.765 -0.6996 -0.2026 -1.1904
14390TIP3    H264586   5.234   3.902  16.629  1.6272  2.0128 -0.7073
14391TIP3   OH264587   3.455   1.446   3.765  0.3321  0.2697 -0.1361
14391TIP3    H164588   3.452   1.526   3.818 -1.1252 -1.1454  2.0944
14391TIP3    H264589   3.363   1.424   3.751  0.6726 -1.7416  0.5375
14392TIP3   OH264590   1.295   2.651   5.516 -0.1171  0.2870 -0.2326
14392TIP3    H164591   1.239   2.646   5.439  1.1080  1.1615 -1.2305
14392TIP3    H264592   1.260   2.723   5.567  0.2578  1.0402 -1.0105
14393TIP3   OH264593   5.722   4.025   3.933 -0.0791 -0.1470 -0.1207
14393TIP3    H164594   5.696   4.005   4.023  1.9953  0.1358  0.6086
14393TIP3    H264595   5.645   4.004   3.881 -1.7029  0.6308  1.8079
14394TIP3   OH264596   4.192   0.475  12.664 -0.0392 -0.1317  0.3049
14394TIP3    H164597   4.247   0.407  12.626  0.9873  0.8397 -0.0023
14394TIP3    H264598   4.234   0.495  12.748 -0.3697  0.0730  0.4219
14395TIP3   OH264599   0.319   3.755  12.954 -0.0504 -0.4604 -0.0819
14395TIP3    H164600   0.302   3.709  12.871  0.2494 -0.2857 -0.2406
14395TIP3    H264601   0.260   3.831  12.951 -0.3481 -0.6875  0.0565
14396TIP3   OH264602   3.987   0.714  11.017  0.2494  0.1153  0.2077
14396TIP3    H164603   3.922   0.708  11.087  0.1263  0.6770  0.1435
14396TIP3    H264604   3.939   0.688  10.938  0.1522  0.3379  0.1916
14397TIP3   OH264605   6.345   0.680  16.217 -0.5276 -0.9388 -0.0087
14397TIP3    H164606   6.267   0.630  16.192 -0.0206 -1.2164 -1.0690
14397TIP3    H264607   6.404   0.671  16.143 -0.2919  0.9727 -0.0901
14398TIP3   OH264608   4.375   1.421   3.376 -0.0678  0.3549  0.2580
14398TIP3    H164609   4.359   1.331   3.403  2.9043 -0.6227 -0.8729
14398TIP3    H264610   4.408   1.464   3.455 -0.3199  0.1075  0.4990
14399TIP3   OH264611   3.080   1.720  11.805  0.1006  0.3033  0.5865
14399TIP3    H164612   3.089   1.773  11.884  1.0663 -1.6317  1.8557
14399TIP3    H264613   3.052   1.634  11.837  0.1575 -0.4237 -1.2193
14400TIP3   OH264614   3.570   0.786   3.647 -0.1861  0.0251  0.2008
14400TIP3    H164615   3.607   0.861   3.692  1.5582 -0.8947  0.3856
14400TIP3    H264616   3.612   0.710   3.687 -0.9220 -0.9810 -0.8494
14401TIP3   OH264617   2.729   0.085   5.595  0.1336  0.3128 -0.1546
14401TIP3    H164618   2.769   0.019   5.651 -2.4495 -1.6812 -0.4564
14401TIP3    H264619   2.711   0.040   5.512 -1.1232  1.5546 -0.6074
14402TIP3   OH264620   4.656   6.349   1.578  0.7776  0.2735  0.1543
14402TIP3    H164621   4.665   6.365   1.672  1.9778 -0.8065  0.2517
14402TIP3    H264622   4.628   6.258   1.572  0.1241  0.5064 -0.5400
14403TIP3   OH264623   0.925   0.897  12.689  0.4396 -0.9825 -0.1195
14403TIP3    H164624   0.928   0.955  12.613 -0.8327  2.1793  2.0235
14403TIP3    H264625   0.993   0.930  12.747 -1.0694 -0.8181  1.6604
14404TIP3   OH264626   1.683   1.370  11.699 -0.4724  0.5740  0.2397
14404TIP3    H164627   1.771   1.384  11.734 -0.6081  0.4519  0.6351
14404TIP3    H264628   1.673   1.437  11.631  0.1697  0.1721 -0.2606
14405TIP3   OH264629   2.355   1.901   3.257  0.2777  0.0180 -0.5039
14405TIP3    H164630   2.281   1.919   3.315  0.9108 -0.9252  0.6462
14405TIP3    H264631   2.318   1.903   3.169 -0.9202  0.4878 -0.0083
14406TIP3   OH264632   3.563   2.643   1.629  0.7128 -0.7094  0.3328
14406TIP3    H164633   3.517   2.724   1.648 -0.2785 -1.1091 -0.3162
14406TIP3    H264634   3.502   2.591   1.577  2.2538 -0.8308 -1.4711
14407TIP3   OH264635   4.269   4.793  11.606 -0.4549 -0.8013  0.3121
14407TIP3    H164636   4.338   4.810  11.671 -1.8560 -0.3822  1.7397
14407TIP3    H264637   4.290   4.852  11.533  0.6190 -0.6024  0.7681
14408TIP3   OH264638   6.299   5.968  13.452 -0.4218 -0.2169  0.3548
14408TIP3    H164639   6.229   6.005  13.398 -0.7332  0.9127  1.4809
14408TIP3    H264640   6.379   6.010  13.418 -0.6889  0.9857  1.1414
14409TIP3   OH264641   5.222   5.111  15.121 -0.1911  0.3124 -0.0614
14409TIP3    H164642   5.167   5.070  15.188 -1.7734  1.5615 -0.5280
14409TIP3    H264643   5.168   5.113  15.043  1.3024 -0.2805 -1.1646
14410TIP3   OH264644   5.813   1.381   2.750  0.0123 -0.1669 -0.0233
14410TIP3    H164645   5.781   1.462   2.709  0.1294 -0.2022 -0.1826
14410TIP3    H264646   5.889   1.408   2.801  0.3135 -0.2506 -0.4247
14411TIP3   OH264647   0.349   1.280  15.577  0.1069  0.3516 -0.3449
14411TIP3    H164648   0.429   1.332  15.569 -0.0226  0.6533  0.2745
14411TIP3    H264649   0.283   1.341  15.610 -0.6651  0.3577 -1.7998
14412TIP3   OH264650   5.503   2.644   3.608 -0.3381  0.1516  0.2678
14412TIP3    H164651   5.557   2.674   3.680 -1.5626  0.3436  1.1393
14412TIP3    H264652   5.539   2.558   3.585  2.1513  1.4818 -1.1592
14413TIP3   OH264653   0.217   1.425   3.516  0.2145  0.3739  0.2167
14413TIP3    H164654   0.127   1.395   3.501  0.8797 -0.9372 -1.4284
14413TIP3    H264655   0.212   1.520   3.504 -0.9525  0.3344  0.2075
14414TIP3   OH264656   2.854   0.556   4.491 -0.2419  0.5616  0.1881
14414TIP3    H164657   2.838   0.508   4.572  3.3201  0.9491  1.3145
14414TIP3    H264658   2.860   0.648   4.519 -4.5897  1.6142 -1.5559
14415TIP3   OH264659   6.353   5.697  13.500  0.6377 -0.7798 -0.9150
14415TIP3    H164660   6.441   5.684  13.464  1.5036  0.2336  0.7080
14415TIP3    H264661   6.336   5.791  13.489  0.7626 -0.5260  0.8770
14416TIP3   OH264662   3.475   0.625  16.230 -0.0202  0.2927  0.4547
14416TIP3    H164663   3.563   0.614  16.265  0.2995  2.2885  0.4008
14416TIP3    H264664   3.417   0.600  16.303  0.5852 -0.2483  0.7611
14417TIP3   OH264665   3.529   3.525   1.090  0.2230 -0.3451 -0.3420
14417TIP3    H164666   3.453   3.582   1.094  0.2634 -0.3487  0.5688
14417TIP3    H264667   3.505   3.458   1.026 -0.1747  0.1686 -0.7423
14418TIP3   OH264668   2.338   6.436  14.326  0.1861 -0.1174  0.2089
14418TIP3    H164669   2.268   6.394  14.277  0.9172  1.3927 -2.3147
14418TIP3    H264670   2.312   6.529  14.328  0.4911 -0.0356  2.2307
14419TIP3   OH264671   0.276   4.330   1.749  0.1542 -0.4545  0.3292
14419TIP3    H164672   0.328   4.352   1.673  0.2125 -1.6937 -0.0196
14419TIP3    H264673   0.194   4.295   1.713 -0.8562  1.2423  0.8651
14420TIP3   OH264674   3.393   3.227   3.822  0.7231 -0.3539 -0.2165
14420TIP3    H164675   3.467   3.179   3.784  0.5804 -0.4920 -0.3218
14420TIP3    H264676   3.317   3.175   3.799  0.7152 -0.9610  1.0952
14421TIP3   OH264677   2.515   5.867  14.261  0.2958 -0.2730 -0.7551
14421TIP3    H164678   2.553   5.903  14.341 -2.7223 -0.8432  1.1128
14421TIP3    H264679   2.508   5.941  14.202 -1.0137  1.1560  1.0617
14422TIP3   OH264680   1.733   3.562  15.743 -0.1344  0.0927  0.3432
14422TIP3    H164681   1.651   3.558  15.792 -0.4330 -0.5644 -0.1986
14422TIP3    H264682   1.795   3.513  15.797 -0.5274 -0.8504 -0.0544
14423TIP3   OH264683   1.195   6.779   4.242  0.8226 -0.3989 -0.6928
14423TIP3    H164684   1.161   6.690   4.235 -1.3866  0.3449 -0.0931
14423TIP3    H264685   1.165   6.823   4.163  1.2455  0.0379 -0.6152
14424TIP3   OH264686   5.519   6.606  10.627  0.4146 -0.1699  0.1236
14424TIP3    H164687   5.457   6.580  10.558 -1.1565  1.1274  0.9774
14424TIP3    H264688   5.546   6.694  10.603 -0.0417  0.2403  1.0675
14425TIP3   OH264689   1.876   0.158  11.172 -0.5919  0.0283  0.5850
14425TIP3    H164690   1.838   0.086  11.121  1.9327  0.1101 -1.6345
14425TIP3    H264691   1.896   0.119  11.257 -0.7429 -1.4634 -0.0324
14426TIP3   OH264692   5.448   5.505  17.014  0.8324 -0.3576  0.3011
14426TIP3    H164693   5.368   5.527  16.967  0.7285 -1.8989 -0.3047
14426TIP3    H264694   5.418   5.459  17.092  1.1226 -1.6888 -0.3462
14427TIP3   OH264695   3.662   5.014  12.104 -0.1883 -0.2767  0.2225
14427TIP3    H164696   3.666   5.033  12.198  2.3312 -0.2530  0.1572
14427TIP3    H264697   3.650   5.099  12.063  0.0679 -0.1255  0.4614
14428TIP3   OH264698   1.635   5.948  11.261 -1.1021 -0.5957 -0.6578
14428TIP3    H164699   1.550   5.923  11.298 -1.2867 -0.6374 -1.1134
14428TIP3    H264700   1.615   5.981  11.174 -0.7420  0.1613 -0.4655
14429TIP3   OH264701   4.709   2.691   1.572  0.2961  1.0330 -0.1719
14429TIP3    H164702   4.761   2.726   1.500  2.5322 -0.2852  0.6994
14429TIP3    H264703   4.682   2.604   1.543 -1.0258  1.5039 -0.4061
14430TIP3   OH264704   2.843   2.297   4.928  0.3070 -0.3517 -0.5813
14430TIP3    H164705   2.833   2.276   5.020  0.7448  0.6041 -0.3002
14430TIP3    H264706   2.910   2.366   4.926 -1.8045  1.8265 -1.3101
14431TIP3   OH264707   3.900   1.706  16.016 -0.0560 -0.2111 -0.2192
14431TIP3    H164708   3.963   1.746  15.956 -0.4322  0.1997 -0.3498
14431TIP3    H264709   3.941   1.712  16.102 -0.5903  1.5581 -0.0492
14432TIP3   OH264710   5.446   0.862   5.174  0.4026 -0.0675 -0.2358
14432TIP3    H164711   5.527   0.813   5.163 -0.4886 -2.0506  1.3432
14432TIP3    H264712   5.386   0.825   5.109 -0.4950 -1.6976  1.4328
14433TIP3   OH264713   1.711   2.086  13.815  0.3864 -0.0791  0.9782
14433TIP3    H164714   1.630   2.131  13.793  0.0963 -0.2808  1.6201
14433TIP3    H264715   1.702   1.999  13.776 -0.2216 -0.5128  2.0653
14434TIP3   OH264716   6.784   6.659  13.668 -0.3085  0.1951 -0.7493
14434TIP3    H164717   6.707   6.614  13.634 -2.3288  1.2818  2.0655
14434TIP3    H264718   6.750   6.729  13.723  2.7108  1.2940 -0.0564
14435TIP3   OH264719   2.634   0.735  11.451  0.0956  0.0039 -0.2579
14435TIP3    H164720   2.634   0.658  11.395  0.8779 -1.4547  1.6373
14435TIP3    H264721   2.727   0.755  11.465 -0.0941  0.7486 -0.0240
14436TIP3   OH264722   4.646   0.984   2.458  0.2567  0.2428  0.4953
14436TIP3    H164723   4.657   1.027   2.543 -1.3683  1.4275  0.1576
14436TIP3    H264724   4.642   0.890   2.479  0.3284  0.4879  1.6808
14437TIP3   OH264725   5.657   2.596   3.334  0.2547 -0.2214  0.1041
14437TIP3    H164726   5.664   2.597   3.239 -0.2648 -0.6105  0.0536
14437TIP3    H264727   5.585   2.655   3.354  1.8493  1.7246  0.4316
14438TIP3   OH264728   6.347   2.528   0.238 -0.2123 -0.2858 -0.8849
14438TIP3    H164729   6.343   2.606   0.293  0.0261  0.3748 -1.7769
14438TIP3    H264730   6.432   2.533   0.196  0.1743 -1.5044 -0.2945
14439TIP3   OH264731   0.268   2.192  11.454 -0.5511 -0.5853  0.6234
14439TIP3    H164732   0.295   2.210  11.543 -1.6328 -1.5798  1.1808
14439TIP3    H264733   0.177   2.222  11.450 -0.0940  0.7661 -0.5810
14440TIP3   OH264734   2.879   4.488   2.102 -0.6625 -0.3176 -0.5958
14440TIP3    H164735   2.857   4.471   2.010 -1.9007  1.3202 -0.6454
14440TIP3    H264736   2.975   4.480   2.105 -0.6219 -0.6011 -1.9751
14441TIP3   OH264737   3.980   3.509   1.100  0.3628  0.0672 -0.5578
14441TIP3    H164738   4.013   3.429   1.141 -0.4535  0.3769  0.7393
14441TIP3    H264739   4.057   3.566   1.095  0.7144 -0.3937 -0.4754
14442TIP3   OH264740   4.809   4.425  13.360  0.1474 -0.1218 -0.0176
14442TIP3    H164741   4.878   4.359  13.353  0.5781  0.0833  1.8354
14442TIP3    H264742   4.752   4.394  13.430 -1.1052  0.2238 -0.8472
14443TIP3   OH264743   5.406   2.655  16.759 -0.4009 -0.5022  0.3799
14443TIP3    H164744   5.341   2.585  16.764 -1.6212  0.4637 -1.3689
14443TIP3    H264745   5.490   2.609  16.756 -1.1922 -1.9432 -1.2169
14444TIP3   OH264746   2.049   5.793  16.341  0.1231  0.5405  0.9143
14444TIP3    H164747   2.129   5.745  16.317  0.1166  0.1398  1.6532
14444TIP3    H264748   1.996   5.792  16.261  1.7941  2.8277 -0.3425
14445TIP3   OH264749   4.652   1.128   5.772 -0.0971 -0.4702  0.4969
14445TIP3    H164750   4.607   1.058   5.724 -0.9011  0.1546  0.3248
14445TIP3    H264751   4.689   1.083   5.848 -1.8808 -0.8687  1.1929
14446TIP3   OH264752   2.045   6.197   1.373 -0.1306 -0.1973  0.2527
14446TIP3    H164753   2.012   6.281   1.404  1.2286 -0.5669  2.9957
14446TIP3    H264754   2.119   6.219   1.316 -0.2809  0.4834  0.3232
14447TIP3   OH264755   5.619   0.299   2.493 -0.0454 -0.1180 -0.2135
14447TIP3    H164756   5.625   0.249   2.574  1.2806 -1.1343 -0.9028
14447TIP3    H264757   5.532   0.278   2.458  0.2685 -1.5228 -0.2005
14448TIP3   OH264758   1.856   6.731  12.329  0.7844 -0.3068 -0.1121
14448TIP3    H164759   1.921   6.760  12.393  1.5206  0.5082 -1.1935
14448TIP3    H264760   1.839   6.808  12.275 -0.8810 -0.5888 -0.0392
14449TIP3   OH264761   0.578   1.394  12.465 -0.4963  0.2361 -0.3205
14449TIP3    H164762   0.577   1.409  12.370  0.4468 -0.8931 -0.5212
14449TIP3    H264763   0.619   1.473  12.501  0.6586 -0.0346 -1.0034
14450TIP3   OH264764   5.183   1.902   4.401 -0.2867  0.1396 -0.3463
14450TIP3    H164765   5.198   1.830   4.464  0.2454  2.4857  2.4410
14450TIP3    H264766   5.118   1.957   4.444  2.0429  3.2666 -0.5148
14451TIP3   OH264767   1.315   5.960  12.932 -0.2722 -0.1662 -0.2954
14451TIP3    H164768   1.269   6.023  12.988  2.0249  0.1441  1.3839
14451TIP3    H264769   1.344   5.891  12.992 -2.3620 -2.7461 -2.0125
14452TIP3   OH264770   1.429   4.724  12.524  0.1147 -0.2627  0.3002
14452TIP3    H164771   1.438   4.795  12.461 -2.2642  0.0312  0.1879
14452TIP3    H264772   1.440   4.766  12.609 -0.3864  0.0879  0.1973
14453TIP3   OH264773   3.006   0.303  16.040  0.5330 -0.2836  0.1229
14453TIP3    H164774   3.010   0.388  15.995  0.5624  1.2639  2.8356
14453TIP3    H264775   3.027   0.239  15.972  0.9453  1.8906 -1.9384
14454TIP3   OH264776   6.742   1.865  12.456  0.6173 -0.1883  0.1386
14454TIP3    H164777   6.752   1.955  12.486 -1.2507  0.8686 -2.0436
14454TIP3    H264778   6.817   1.851  12.398  0.7584  0.0760  0.2554
14455TIP3   OH264779   2.123   0.111  14.213 -0.1635  0.1816  0.5623
14455TIP3    H164780   2.152   0.110  14.305  2.4328 -0.4138 -0.1858
14455TIP3    H264781   2.197   0.148  14.165 -2.1008  2.0437 -1.1652
14456TIP3   OH264782   6.348   2.022   2.357  0.2081  0.2965  0.4899
14456TIP3    H164783   6.297   2.099   2.379 -1.0746  0.0056 -1.2502
14456TIP3    H264784   6.282   1.953   2.343  0.9820 -0.0142 -2.1335
14457TIP3   OH264785   1.116   1.164  13.506 -0.2218  0.1551 -0.3146
14457TIP3    H164786   1.180   1.190  13.440 -1.1513  2.5303 -0.3662
14457TIP3    H264787   1.068   1.091  13.466 -0.2236  1.0117 -1.9592
14458TIP3   OH264788   3.988   4.025   4.369  0.3879  0.4260 -0.0464
14458TIP3    H164789   3.939   4.065   4.441 -0.5285  0.4651 -0.6683
14458TIP3    H264790   4.035   4.098   4.328 -0.6580  0.7601 -0.6938
14459TIP3   OH264791   5.717   2.179   2.815  0.2786 -0.5192 -0.4323
14459TIP3    H164792   5.764   2.097   2.801 -0.1723 -0.8168 -0.2411
14459TIP3    H264793   5.664   2.163   2.893  1.4504  0.5246  0.6138
14460TIP3   OH264794   4.429   4.146  16.636  0.0808  0.0491 -0.4013
14460TIP3    H164795   4.350   4.100  16.664  0.0975 -0.0845 -0.5689
14460TIP3    H264796   4.419   4.235  16.671  0.2144 -0.1823  0.2235
14461TIP3   OH264797   3.096   6.501   1.728 -0.7981  0.2264 -0.0832
14461TIP3    H164798   3.083   6.465   1.816  1.5914  1.3661  0.8336
14461TIP3    H264799   3.157   6.440   1.686  1.8620  2.0002  0.8598
14462TIP3   OH264800   4.725   4.184  16.240 -0.0621  0.0576  0.2802
14462TIP3    H164801   4.631   4.170  16.224 -0.3157 -2.0561  2.9195
14462TIP3    H264802   4.728   4.232  16.322  1.1380 -0.8098  0.7719
14463TIP3   OH264803   0.732   1.515  11.730 -0.1687 -0.3089 -0.1323
14463TIP3    H164804   0.759   1.461  11.656 -1.0150  1.1649 -1.5729
14463TIP3    H264805   0.651   1.476  11.761  0.2482 -0.9969  0.1027
14464TIP3   OH264806   6.757   4.405  13.717  0.1661 -0.3879  0.3784
14464TIP3    H164807   6.827   4.422  13.654 -0.5961 -0.8306 -0.6320
14464TIP3    H264808   6.678   4.397  13.663 -0.5215 -0.7513  1.4001
14465TIP3   OH264809   5.243   6.287   0.886 -0.8681 -0.5832  0.5734
14465TIP3    H164810   5.339   6.281   0.890 -0.7627  0.7155  0.6067
14465TIP3    H264811   5.227   6.371   0.843 -1.9994 -0.7631  0.6225
14466TIP3   OH264812   1.775   5.805   2.420  0.1818 -0.1881 -0.1747
14466TIP3    H164813   1.741   5.872   2.360  0.7171 -0.5004 -0.8357
14466TIP3    H264814   1.860   5.781   2.384  0.6946 -0.1134  0.9184
14467TIP3   OH264815   6.433   5.384  11.676 -0.0283 -0.2702  0.4103
14467TIP3    H164816   6.465   5.463  11.720  0.9416 -0.3553 -0.1232
14467TIP3    H264817   6.472   5.312  11.724 -1.7376 -0.4866  1.5434
14468TIP3   OH264818   2.780   0.041  14.825  0.5753 -0.5277  0.7471
14468TIP3    H164819   2.819   0.097  14.893  2.5911 -0.5319 -0.3297
14468TIP3    H264820   2.758   0.100  14.754  0.3620 -0.7880  0.5936
14469TIP3   OH264821   2.244   1.599   2.674  0.1545  0.0662  0.2094
14469TIP3    H164822   2.164   1.551   2.697  0.6684 -0.5913  0.6860
14469TIP3    H264823   2.293   1.605   2.756  0.9503 -0.2274 -0.2310
14470TIP3   OH264824   2.139   0.333  10.756  0.4202  0.5178  0.7784
14470TIP3    H164825   2.201   0.406  10.755 -1.0177  1.7863  1.7494
14470TIP3    H264826   2.192   0.257  10.731  1.4978  2.1932 -2.6533
14471TIP3   OH264827   4.932   3.915  13.171 -0.2192  0.3122  0.2394
14471TIP3    H164828   4.992   3.865  13.116  0.5545  1.1062  0.3411
14471TIP3    H264829   4.864   3.946  13.111  1.4458  2.4816 -0.6266
14472TIP3   OH264830   5.143   6.520  14.740 -0.1379 -0.3109 -0.8387
14472TIP3    H164831   5.076   6.494  14.678  0.0447  0.0304 -1.1801
14472TIP3    H264832   5.100   6.517  14.826 -0.7607  0.5089 -1.1175
14473TIP3   OH264833   6.818   0.732   0.770  0.1514  0.0840 -0.2207
14473TIP3    H164834   6.751   0.699   0.829  0.7995 -0.8812  0.0054
14473TIP3    H264835   6.770   0.780   0.702 -0.7603 -0.5851 -0.0642
14474TIP3   OH264836   3.892   5.227   4.575  0.3894  0.0581 -0.5118
14474TIP3    H164837   3.870   5.216   4.482 -3.0050  2.5584 -0.1742
14474TIP3    H264838   3.864   5.146   4.616 -1.3992  0.2711 -1.2401
14475TIP3   OH264839   5.621   0.202   5.132  0.2847 -0.0368 -0.0456
14475TIP3    H164840   5.680   0.127   5.131 -0.4053 -0.6006  0.4680
14475TIP3    H264841   5.665   0.266   5.188  1.0997  0.1391 -0.8674
14476TIP3   OH264842   6.265   6.766  15.709 -0.1883 -0.0928  0.3542
14476TIP3    H164843   6.176   6.786  15.678  1.0423  0.6361 -3.1272
14476TIP3    H264844   6.277   6.673  15.689 -0.2028 -0.2431  1.0191
14477TIP3   OH264845   3.275   2.988   2.515  0.5748  0.5466 -0.3554
14477TIP3    H164846   3.318   2.955   2.437  0.6213 -0.8147  0.2154
14477TIP3    H264847   3.296   2.924   2.583 -2.5910 -0.4228 -0.1077
14478TIP3   OH264848   4.319   2.859   2.996  0.0394 -0.1772  0.2003
14478TIP3    H164849   4.414   2.847   3.001  0.0780 -0.0718 -0.1966
14478TIP3    H264850   4.298   2.836   2.905 -0.1254  1.0564 -0.0850
14479TIP3   OH264851   2.340   1.721  15.450 -0.4260  0.4214  0.2120
14479TIP3    H164852   2.391   1.765  15.518  0.9201  0.4938 -0.8107
14479TIP3    H264853   2.404   1.669  15.402 -1.5755 -0.6791 -0.1967
14480TIP3   OH264854   0.672   2.099   1.824 -0.7579  0.1299  0.3539
14480TIP3    H164855   0.634   2.015   1.849 -0.9354  0.3639  0.8952
14480TIP3    H264856   0.704   2.086   1.735 -0.5962 -0.5713  0.5111
14481TIP3   OH264857   4.231   4.027  12.211  0.2536 -0.0811 -0.2279
14481TIP3    H164858   4.317   4.062  12.234  0.2990 -0.1704 -0.2639
14481TIP3    H264859   4.171   4.100  12.228  0.3734  0.0822 -0.4928
14482TIP3   OH264860   0.654   5.496   2.768  0.4239  0.1735 -0.0698
14482TIP3    H164861   0.735   5.498   2.716  1.6073  1.2949  1.7325
14482TIP3    H264862   0.615   5.411   2.746  2.3872 -0.6805 -0.5420
14483TIP3   OH264863   1.980   5.972   5.538  0.1430 -0.1755 -0.1932
14483TIP3    H164864   1.944   5.896   5.492 -2.4490  1.0849 -0.3926
14483TIP3    H264865   1.938   6.047   5.497 -0.1114  1.1619  2.3411
14484TIP3   OH264866   1.434   4.833  14.291 -0.3373  0.1231  0.0849
14484TIP3    H164867   1.515   4.880  14.270  0.7213 -1.6322 -0.0385
14484TIP3    H264868   1.423   4.844  14.385 -0.1072  0.5960  0.0589
14485TIP3   OH264869   4.397   6.565   6.179 -0.1747 -0.3827 -0.2649
14485TIP3    H164870   4.420   6.473   6.164  1.7391 -0.2512  1.3686
14485TIP3    H264871   4.323   6.562   6.239  0.5222 -0.8995  0.5994
14486TIP3   OH264872   5.258   4.656  10.319 -0.2852 -0.4157 -0.3605
14486TIP3    H164873   5.264   4.599  10.243  1.0657 -0.1590 -0.4795
14486TIP3    H264874   5.311   4.733  10.295 -1.7720  0.7509 -0.0799
14487TIP3   OH264875   3.858   3.009   6.031 -0.2222 -0.7735  0.1050
14487TIP3    H164876   3.885   2.999   6.122  2.4834  2.9570 -0.0301
14487TIP3    H264877   3.936   2.988   5.980 -0.4954  0.8552 -1.0584
14488TIP3   OH264878   2.152   3.752  11.546  0.1513  0.0577  0.2020
14488TIP3    H164879   2.196   3.755  11.631  0.1487  0.3554  0.1953
14488TIP3    H264880   2.129   3.660  11.534  0.6849 -0.0887  0.2525
14489TIP3   OH264881   4.747   0.856  12.023  0.2317 -0.2995 -0.0691
14489TIP3    H164882   4.677   0.800  11.991  0.7056 -0.9416 -0.0039
14489TIP3    H264883   4.720   0.944  11.999 -1.5340 -0.3195  1.6275
14490TIP3   OH264884   5.781   4.134  10.671  0.2099 -0.2218 -0.4779
14490TIP3    H164885   5.829   4.168  10.746  1.9941 -2.2660 -0.5752
14490TIP3    H264886   5.837   4.154  10.595  1.3888 -3.1613 -0.5245
14491TIP3   OH264887   3.915   0.019   4.020  0.0015  0.8036 -0.0378
14491TIP3    H164888   3.859   0.073   3.965 -0.1344  0.9709  0.2640
14491TIP3    H264889   4.004   0.045   3.996 -0.0668  2.2842  1.2059
14492TIP3   OH264890   1.921   5.483  11.504  0.1164 -0.5756 -0.1809
14492TIP3    H164891   1.964   5.399  11.519 -0.4037 -0.4259  2.9989
14492TIP3    H264892   1.862   5.467  11.431  0.4458 -2.8280 -0.0341
14493TIP3   OH264893   4.301   0.223   1.040  0.1504 -0.5388 -0.6407
14493TIP3    H164894   4.298   0.173   0.959  0.8723 -0.6593 -0.6034
14493TIP3    H264895   4.393   0.249   1.049 -0.4071  1.8814 -1.3196
14494TIP3   OH264896   3.118   2.096  15.224  0.3725 -0.6063  0.1558
14494TIP3    H164897   3.153   2.067  15.308  1.6079  0.2229 -0.0511
14494TIP3    H264898   3.172   2.171  15.199 -0.9692  0.1358 -0.6426
14495TIP3   OH264899   0.680   1.176  14.981 -0.4215  0.0635 -0.8426
14495TIP3    H164900   0.644   1.092  15.009 -1.3166  0.3005 -1.2445
14495TIP3    H264901   0.771   1.156  14.958  0.1090 -0.3037  1.3651
14496TIP3   OH264902   5.234   0.599  14.242 -0.2496  0.8083  0.1835
14496TIP3    H164903   5.319   0.637  14.222  0.5266 -0.5950  0.7407
14496TIP3    H264904   5.241   0.568  14.332 -0.8461 -0.6434 -0.2470
14497TIP3   OH264905   0.196   2.235   2.230 -0.0826  0.7256  0.4139
14497TIP3    H164906   0.276   2.229   2.282  0.0920 -1.0030  0.0159
14497TIP3    H264907   0.162   2.146   2.228 -2.3894  1.5243  1.1013
14498TIP3   OH264908   5.262   0.685  15.355  0.6341 -0.0157  0.0410
14498TIP3    H164909   5.240   0.605  15.402  1.3985  1.1023  2.4575
14498TIP3    H264910   5.181   0.736  15.354  0.3846 -0.4157 -0.6903
14499TIP3   OH264911   5.922   3.961  12.146 -0.8142  0.1571 -0.0117
14499TIP3    H164912   5.889   4.034  12.200 -2.9453 -1.1165  0.5084
14499TIP3    H264913   5.918   3.994  12.056  2.7014  2.2839  0.3939
14500TIP3   OH264914   4.823   0.402   2.234  0.3006  0.0789 -0.4773
14500TIP3    H164915   4.857   0.380   2.321  0.2590  1.4693 -0.0835
14500TIP3    H264916   4.901   0.416   2.180  0.3883  1.8560  0.0550
14501TIP3   OH264917   3.581   4.044   1.817  0.1167 -0.0654  0.5399
14501TIP3    H164918   3.647   4.056   1.886 -0.0564 -0.9573  0.8708
14501TIP3    H264919   3.504   4.013   1.864  0.1363 -1.1216 -0.1125
14502TIP3   OH264920   1.207   6.804   3.794 -0.5461 -0.4418 -0.0004
14502TIP3    H164921   1.259   6.732   3.760  0.3279 -0.6349  1.6223
14502TIP3    H264922   1.269   6.875   3.807 -1.1079  0.0779 -0.0919
14503TIP3   OH264923   6.533   6.011  11.689  0.1459  0.8709  0.1695
14503TIP3    H164924   6.489   6.010  11.774 -1.5583 -1.4500 -0.6292
14503TIP3    H264925   6.463   6.027  11.626  0.8556 -0.2967 -0.9745
14504TIP3   OH264926   2.377   2.053  15.822 -0.1916  0.0174 -0.0732
14504TIP3    H164927   2.315   2.121  15.794 -0.0630 -0.0626 -0.5601
14504TIP3    H264928   2.358   2.040  15.915  1.8260  2.9525  0.9045
14505TIP3   OH264929   4.589   3.435   6.131  0.8235  0.1120  0.4741
14505TIP3    H164930   4.497   3.463   6.133  1.5655  2.8382  0.0025
14505TIP3    H264931   4.596   3.372   6.203 -1.5175 -0.6081  0.1547
14506TIP3   OH264932   4.672   6.409   4.048 -0.0842 -0.2733  0.1759
14506TIP3    H164933   4.751   6.359   4.029  0.0739 -0.1201  0.4417
14506TIP3    H264934   4.702   6.499   4.063 -0.2982 -0.2315  0.3629
14507TIP3   OH264935   3.312   5.505   0.032  0.2690 -0.2303 -0.9117
14507TIP3    H164936   3.328   5.585   0.082 -0.7269  0.1319 -1.1426
14507TIP3    H264937   3.398   5.463   0.026  0.4740 -0.1385  0.8191
14508TIP3   OH264938   3.102   5.523  14.252  0.2028 -0.2100  0.1590
14508TIP3    H164939   3.175   5.492  14.198  0.3295  1.1640 -0.5185
14508TIP3    H264940   3.057   5.586  14.196 -0.3042  0.4572  1.2864
14509TIP3   OH264941   0.070   2.082  12.911  0.1981  0.1261  0.0430
14509TIP3    H164942   0.164   2.077  12.927  0.2321  3.6201  2.0858
14509TIP3    H264943   0.030   2.059  12.995 -0.5283  1.9865  0.2624
14510TIP3   OH264944   3.338   1.181  11.808  0.4560  0.3029  0.4713
14510TIP3    H164945   3.303   1.106  11.759  0.6076 -0.9835  2.2488
14510TIP3    H264946   3.427   1.192  11.774  0.2990 -0.0679 -0.0755
14511TIP3   OH264947   4.777   4.644  14.989 -0.0760  0.4502  1.0621
14511TIP3    H164948   4.691   4.605  15.004 -0.3169  0.2538 -0.6598
14511TIP3    H264949   4.762   4.710  14.922  1.2543 -0.2767 -0.0047
14512TIP3   OH264950   1.308   2.405  10.974 -0.0605  0.0970  0.2091
14512TIP3    H164951   1.256   2.334  11.010  0.1662 -0.0262  0.2977
14512TIP3    H264952   1.341   2.372  10.891 -0.3289  0.2671  0.0344
14513TIP3   OH264953   2.001   3.415   3.146  0.0654  0.0253  0.0754
14513TIP3    H164954   2.089   3.398   3.112  0.9753  1.5019  1.5313
14513TIP3    H264955   2.010   3.497   3.195 -2.2502  0.4602 -0.1386
14514TIP3   OH264956   6.321   4.075   1.736 -0.1133 -0.5493 -0.0808
14514TIP3    H164957   6.332   4.169   1.721 -0.2289 -0.2956  1.3523
14514TIP3    H264958   6.403   4.036   1.707 -0.4244 -0.1512 -1.6245
14515TIP3   OH264959   1.375   3.219  12.068  0.8027 -0.0873 -0.1018
14515TIP3    H164960   1.411   3.305  12.050 -0.3088 -0.1740 -3.6321
14515TIP3    H264961   1.316   3.232  12.142 -0.3364  2.5652 -1.3416
14516TIP3   OH264962   3.065   1.756  10.885  0.3775 -0.0940  0.5524
14516TIP3    H164963   3.100   1.794  10.965  1.5730  1.0227 -0.4549
14516TIP3    H264964   3.028   1.830  10.837  0.0600 -0.6761 -0.1164
14517TIP3   OH264965   2.916   1.502   6.385 -1.1865 -0.3101 -0.6065
14517TIP3    H164966   2.822   1.500   6.372 -1.0420 -0.9101 -1.6222
14517TIP3    H264967   2.943   1.410   6.380 -0.6284 -0.2097  0.3432
14518TIP3   OH264968   2.740   2.884  16.998  0.3602 -0.0211 -0.4904
14518TIP3    H164969   2.647   2.906  17.001  0.6339  1.2189  2.3299
14518TIP3    H264970   2.775   2.917  17.081  2.9871 -2.0247 -0.6755
14519TIP3   OH264971   2.911   5.111   3.730 -0.2280 -0.3370 -0.1451
14519TIP3    H164972   2.966   5.097   3.653 -0.0007  0.1607 -0.0756
14519TIP3    H264973   2.840   5.167   3.699  0.1558  0.3088  0.1285
14520TIP3   OH264974   2.095   0.107  10.930  0.1333  0.3671  0.0022
14520TIP3    H164975   2.082   0.199  10.911  0.1192  0.3869  0.1073
14520TIP3    H264976   2.139   0.072  10.853 -0.1518  0.3934 -0.1750
14521TIP3   OH264977   2.236   0.565   2.655  0.2279 -0.1271  0.1646
14521TIP3    H164978   2.325   0.549   2.688  0.8866  1.4808 -0.7307
14521TIP3    H264979   2.207   0.479   2.624  1.3340 -0.7538  0.8020
14522TIP3   OH264980   4.415   3.275  14.649 -0.2096 -0.0091 -0.0996
14522TIP3    H164981   4.347   3.330  14.610  0.0984 -0.1654 -0.8863
14522TIP3    H264982   4.474   3.338  14.692 -1.8026  0.0025  2.1824
14523TIP3   OH264983   5.312   2.488  14.886  0.1671 -0.5116 -0.6404
14523TIP3    H164984   5.293   2.566  14.833  0.1269 -0.3617 -0.4054
14523TIP3    H264985   5.397   2.506  14.925  0.5885 -0.9864 -1.3244
14524TIP3   OH264986   3.301   4.323   0.995 -0.3194 -0.3336 -0.2421
14524TIP3    H164987   3.379   4.344   1.044 -1.0228  0.0036  0.7615
14524TIP3    H264988   3.324   4.244   0.946  0.4949 -0.4953  0.3872
14525TIP3   OH264989   4.164   0.670   2.308  0.1572 -0.1113  0.1664
14525TIP3    H164990   4.235   0.615   2.341  1.4734  1.6188  0.3786
14525TIP3    H264991   4.195   0.700   2.222 -0.5043  0.3289  0.0758
14526TIP3   OH264992   0.908   3.242   0.112 -0.3128 -0.2402 -0.5902
14526TIP3    H164993   0.973   3.187   0.156  0.0185  1.3308  1.0013
14526TIP3    H264994   0.874   3.299   0.181 -0.5094  1.6538 -2.1524
14527TIP3   OH264995   0.058   5.212   1.941 -0.2870  0.3540 -0.5540
14527TIP3    H164996   0.086   5.282   1.883 -1.9504 -0.8834 -3.0022
14527TIP3    H264997   0.107   5.227   2.022  3.3499  1.2893 -2.7073
14528TIP3   OH264998   0.841   5.012  13.448 -0.7081 -0.6491  0.3315
14528TIP3    H164999   0.835   4.992  13.541 -2.2214 -0.4032  0.3252
14528TIP3    H265000   0.933   5.033  13.433 -0.6582  0.6117  2.0584
14529TIP3   OH265001   2.390   5.847   4.153  0.1462  0.3267  0.4668
14529TIP3    H165002   2.406   5.941   4.143 -0.0130  0.5603  2.0503
14529TIP3    H265003   2.414   5.829   4.244 -0.8816 -0.9477  0.5094
14530TIP3   OH265004   5.928   6.670   2.829 -0.4405  0.3368  0.6809
14530TIP3    H165005   5.983   6.703   2.900 -1.2643  0.5045  1.2594
14530TIP3    H265006   5.838   6.690   2.857 -0.8489 -0.6272  0.1278
14531TIP3   OH265007   5.847   6.015   2.016  0.3114 -0.4575  0.4850
14531TIP3    H165008   5.916   5.961   1.977  1.5280  0.2231  1.6062
14531TIP3    H265009   5.894   6.076   2.072 -1.1441  0.8008  0.3884
14532TIP3   OH265010   2.157   1.839  12.005 -0.3802  0.3478 -0.0848
14532TIP3    H165011   2.226   1.905  12.009 -1.0605  1.1523 -0.9366
14532TIP3    H265012   2.079   1.883  12.039 -0.6458 -0.3110  0.1859
14533TIP3   OH265013   2.024   4.296  16.789 -0.1319  0.1016  0.1851
14533TIP3    H165014   1.931   4.276  16.797 -0.4649  1.8289  1.1360
14533TIP3    H265015   2.058   4.228  16.732 -1.8037 -1.0754  0.5056
14534TIP3   OH265016   6.098   3.484  12.956 -0.1126  0.0160 -0.1852
14534TIP3    H165017   6.030   3.417  12.948 -0.7603  0.7377 -1.1340
14534TIP3    H265018   6.154   3.470  12.880  0.8617 -0.6134  0.6294
14535TIP3   OH265019   5.668   1.931  13.645  0.1382 -0.4087 -0.3903
14535TIP3    H165020   5.604   1.947  13.575  0.5627 -0.6732 -0.8458
14535TIP3    H265021   5.615   1.911  13.722 -0.3245 -0.8729 -0.8228
14536TIP3   OH265022   1.322   6.290   6.058  0.3836 -0.0043 -0.6849
14536TIP3    H165023   1.241   6.322   6.098  0.3063 -0.0389 -0.8133
14536TIP3    H265024   1.351   6.362   6.001  0.2074 -0.1634 -0.9774
14537TIP3   OH265025   4.679   3.141   0.458  0.2258 -0.1529  0.2864
14537TIP3    H165026   4.658   3.048   0.447  0.7541 -0.2884  0.3995
14537TIP3    H265027   4.729   3.144   0.540  0.8708  0.1226 -0.1125
14538TIP3   OH265028   4.643   5.780   5.750  0.0191 -0.1762 -0.0801
14538TIP3    H165029   4.725   5.813   5.789 -0.7767  0.3420  1.2358
14538TIP3    H265030   4.606   5.723   5.818 -1.0955  0.2263 -0.3294
14539TIP3   OH265031   5.904   4.551   5.997  0.1439  0.0493  0.0624
14539TIP3    H165032   5.946   4.503   6.069 -0.0328  0.5335  0.4942
14539TIP3    H265033   5.887   4.638   6.033  1.4080  0.7844 -1.0290
14540TIP3   OH265034   0.507   1.155  13.106 -0.0852  0.3711 -0.2460
14540TIP3    H165035   0.566   1.085  13.133 -0.1967  0.8907  1.4223
14540TIP3    H265036   0.564   1.217  13.060  0.0784 -0.5810 -1.4095
14541TIP3   OH265037   1.004   4.376  14.969  0.4409 -0.2866  0.0235
14541TIP3    H165038   0.999   4.372  14.873  0.5115  0.4987 -0.0147
14541TIP3    H265039   1.097   4.373  14.989  0.4055 -1.0994  0.1055
14542TIP3   OH265040   6.138   4.851  11.239 -0.8674 -0.2566  0.1482
14542TIP3    H165041   6.089   4.834  11.320 -0.4378  1.2146  0.7403
14542TIP3    H265042   6.222   4.885  11.269 -0.6072  0.0664 -0.9207
14543TIP3   OH265043   6.039   3.144   3.574  0.3414 -0.5375 -0.6726
14543TIP3    H165044   5.971   3.199   3.535  0.5306 -0.4377 -0.8628
14543TIP3    H265045   6.074   3.094   3.501 -1.5520 -2.7942 -0.1436
14544TIP3   OH265046   0.569   3.947  11.493  0.1663 -0.3239  0.0276
14544TIP3    H165047   0.520   4.027  11.476  1.4306  0.2434 -1.1096
14544TIP3    H265048   0.596   3.916  11.407  0.7621 -1.2956  0.5444
14545TIP3   OH265049   0.260   3.724  14.074 -0.3504 -0.0424 -0.1151
14545TIP3    H165050   0.245   3.636  14.040 -0.0339  0.0605 -0.5283
14545TIP3    H265051   0.321   3.764  14.012 -3.1779  1.7137 -2.0116
14546TIP3   OH265052   4.073   4.473   1.998  0.0591  0.6459  0.0654
14546TIP3    H165053   4.077   4.478   2.093  0.1341  0.3714  0.0790
14546TIP3    H265054   4.156   4.431   1.973 -0.3507 -0.1267 -0.0526
14547TIP3   OH265055   2.222   0.647  15.061  0.0268  0.1230  0.6022
14547TIP3    H165056   2.234   0.737  15.094 -1.2839  0.5945 -0.1385
14547TIP3    H265057   2.270   0.593  15.124  1.9551  1.4227  0.3550
14548TIP3   OH265058   5.508   3.941  12.704  0.1434 -0.9150  0.2640
14548TIP3    H165059   5.566   3.931  12.628 -1.6116 -0.3136 -1.2344
14548TIP3    H265060   5.509   4.035  12.722 -0.9574 -0.7750 -0.3109
14549TIP3   OH265061   0.669   4.088   0.628  0.2599 -0.2056  0.6090
14549TIP3    H165062   0.630   4.080   0.541  0.3585 -2.5404  0.7173
14549TIP3    H265063   0.740   4.151   0.617 -1.3111  1.5004 -0.3756
14550TIP3   OH265064   2.056   5.843  15.767 -0.4956 -0.4526 -0.2825
14550TIP3    H165065   2.144   5.811  15.749  0.3534  1.4210  0.3003
14550TIP3    H265066   2.061   5.882  15.854 -2.1255 -1.0096  0.1044
14551TIP3   OH265067   2.772   2.537   0.437 -0.1684 -0.6330  0.6049
14551TIP3    H165068   2.832   2.494   0.377 -1.5962 -2.3181  0.3025
14551TIP3    H265069   2.791   2.497   0.522  0.2555  0.0412  0.8316
14552TIP3   OH265070   3.157   0.155   2.447  0.2202 -0.3486  0.0483
14552TIP3    H165071   3.240   0.194   2.420 -0.8649  1.4071 -0.9421
14552TIP3    H265072   3.182   0.076   2.495  2.4083 -0.4081 -1.0862
14553TIP3   OH265073   5.307   4.077  13.713 -0.0199 -0.9731 -0.0581
14553TIP3    H165074   5.371   4.009  13.692  0.2125 -0.6542 -0.3910
14553TIP3    H265075   5.229   4.029  13.741  0.0788 -1.3798 -0.4656
14554TIP3   OH265076   0.167   1.930   3.974 -0.0504 -0.0581 -0.3156
14554TIP3    H165077   0.163   1.965   3.885  0.1915  0.6196 -0.0658
14554TIP3    H265078   0.152   1.836   3.963 -0.4262  0.0753 -1.0266
14555TIP3   OH265079   4.968   6.501   2.624 -0.1585  0.1379 -0.7964
14555TIP3    H165080   4.973   6.596   2.623 -1.0369  0.2196  0.3494
14555TIP3    H265081   4.886   6.480   2.578  0.5605 -0.1369 -1.9924
14556TIP3   OH265082   5.661   4.966   4.311  0.3291  0.1287 -0.0033
14556TIP3    H165083   5.690   4.939   4.224  0.7854  0.2663  0.1061
14556TIP3    H265084   5.565   4.972   4.304  0.4510  1.3754 -0.8435
14557TIP3   OH265085   1.259   5.753   2.086 -0.5870  0.4404 -0.0874
14557TIP3    H165086   1.344   5.766   2.127 -0.8255  1.7249  0.0327
14557TIP3    H265087   1.275   5.764   1.992 -0.5995  0.6030 -0.0713
14558TIP3   OH265088   3.768   5.963   2.982  0.3175  0.1734  0.3511
14558TIP3    H165089   3.851   5.920   2.961  1.3731  2.4156 -0.4176
14558TIP3    H265090   3.781   6.000   3.070  0.2061  0.6411  0.1781
14559TIP3   OH265091   0.580   4.341   5.700  0.4285 -0.0721  0.3866
14559TIP3    H165092   0.572   4.370   5.791 -0.6237  3.8197 -0.7715
14559TIP3    H265093   0.671   4.357   5.678  0.4692 -0.1776  0.4737
14560TIP3   OH265094   6.029   5.553  14.605  0.8751 -0.2747  0.1096
14560TIP3    H165095   6.100   5.489  14.605  1.7638  0.6849  0.1945
14560TIP3    H265096   6.063   5.627  14.657 -0.1698  0.2175  0.1293
14561TIP3   OH265097   2.706   4.402   3.782  0.2211 -0.1532 -0.1311
14561TIP3    H165098   2.802   4.406   3.779  0.2208 -0.3203 -0.4502
14561TIP3    H265099   2.678   4.450   3.704  0.1116 -2.0352 -1.3256
14562TIP3   OH265100   0.257   2.512   1.985  0.4887 -0.2765  0.1604
14562TIP3    H165101   0.194   2.531   2.054  0.7268  0.1228  0.2726
14562TIP3    H265102   0.269   2.417   1.988 -0.1219 -0.3546  0.1192
14563TIP3   OH265103   0.034   3.423  11.282 -0.3082 -0.6852  0.0916
14563TIP3    H165104  -0.051   3.379  11.285 -0.0734 -1.2819 -1.1693
14563TIP3    H265105   0.077   3.398  11.363 -0.3638 -2.4538 -0.3882
14564TIP3   OH265106   5.274   6.280   1.506  0.1110  0.3615 -0.6455
14564TIP3    H165107   5.359   6.245   1.480  0.5723  0.2921  0.8274
14564TIP3    H265108   5.210   6.230   1.455  0.8352 -1.4285  0.1205
14565TIP3   OH265109   0.300   1.612  11.522 -0.2048 -0.8898 -0.1354
14565TIP3    H165110   0.291   1.701  11.489  2.7299 -0.6294 -0.5109
14565TIP3    H265111   0.242   1.559  11.467 -0.7532  0.5529 -0.9764
14566TIP3   OH265112   6.645   0.961   3.643  0.0821  0.0533  0.2216
14566TIP3    H165113   6.596   1.031   3.599  0.4356 -0.1142 -0.4506
14566TIP3    H265114   6.595   0.882   3.625  0.3759 -0.0569 -0.1211
14567TIP3   OH265115   2.853   3.890   3.289  0.5306 -0.1158 -0.0376
14567TIP3    H165116   2.891   3.815   3.334  1.1145  0.1233 -0.1236
14567TIP3    H265117   2.789   3.925   3.351  2.5182  1.2478  1.4062
14568TIP3   OH265118   2.629   6.503   4.483 -0.4533 -0.2004 -0.2836
14568TIP3    H165119   2.592   6.544   4.561 -2.4725  0.5533 -1.5642
14568TIP3    H265120   2.691   6.438   4.517 -0.1974  1.0805  1.8799
14569TIP3   OH265121   2.250   5.733   1.446  0.1157 -0.1153  0.2207
14569TIP3    H165122   2.244   5.664   1.512 -1.3971  0.2967  0.5546
14569TIP3    H265123   2.233   5.814   1.494 -0.0436  0.2848 -0.4949
14570TIP3   OH265124   6.077   1.948   2.159 -0.4589 -0.4317  0.2236
14570TIP3    H165125   6.069   1.888   2.084  0.4060  0.0187 -0.2464
14570TIP3    H265126   6.041   1.899   2.233 -2.7893 -0.3292 -0.7511
14571TIP3   OH265127   1.636   3.329   4.280  0.4469  0.6666  0.0507
14571TIP3    H165128   1.707   3.328   4.216  0.6202 -1.8288  0.2135
14571TIP3    H265129   1.558   3.309   4.228  0.1904  1.1159  0.2525
14572TIP3   OH265130   6.658   3.845   1.161 -0.2621  0.8594 -0.2148
14572TIP3    H165131   6.613   3.832   1.078 -1.1398 -2.9387  0.6567
14572TIP3    H265132   6.617   3.924   1.198 -1.6036  1.2109 -2.2772
14573TIP3   OH265133   6.311   1.124  12.483  0.0848 -0.0785  0.1593
14573TIP3    H165134   6.241   1.189  12.494  0.0812  0.5226 -2.6949
14573TIP3    H265135   6.391   1.175  12.480  0.3120 -0.4406  0.0256
14574TIP3   OH265136   4.098   2.136   0.175  0.4707  0.1361 -0.0178
14574TIP3    H165137   4.192   2.131   0.158  0.9749  0.4757  2.2954
14574TIP3    H265138   4.089   2.205   0.240 -1.0714 -1.4871  1.6105
14575TIP3   OH265139   1.490   0.088  11.831  0.9491  0.0333 -0.7087
14575TIP3    H165140   1.526   0.082  11.920  1.0316 -1.9909 -0.8271
14575TIP3    H265141   1.438   0.168  11.832 -2.2740 -1.8033  2.4296
14576TIP3   OH265142   1.396   2.979   2.321 -0.6454 -0.1575  0.3919
14576TIP3    H165143   1.331   3.018   2.379 -1.8599 -1.4703 -0.0285
14576TIP3    H265144   1.381   2.885   2.327 -0.0935 -0.3893 -1.2234
14577TIP3   OH265145   3.939   2.738  14.464 -0.2283 -0.2552 -0.2573
14577TIP3    H165146   3.920   2.662  14.520  1.1306 -2.2736 -2.3624
14577TIP3    H265147   4.029   2.761  14.486  0.3100 -1.0557 -1.5705
14578TIP3   OH265148   1.965   0.975  16.254 -0.0825 -0.1422 -0.2526
14578TIP3    H165149   1.896   0.909  16.262 -0.3946 -0.0742 -1.9277
14578TIP3    H265150   1.930   1.039  16.192  1.8362 -0.6389 -1.9561
14579TIP3   OH265151   4.898   6.718   5.073 -0.1371 -0.3028 -0.2909
14579TIP3    H165152   4.827   6.782   5.065  1.1482  1.0179 -1.7691
14579TIP3    H265153   4.874   6.666   5.149 -0.4233  2.9702  2.0730
14580TIP3   OH265154   6.462   2.973  11.828  0.3522 -0.0374  0.4498
14580TIP3    H165155   6.448   2.939  11.740  1.3569  0.5039  0.0689
14580TIP3    H265156   6.537   2.925  11.861 -0.1860 -0.4318  1.1278
14581TIP3   OH265157   5.184   3.519  14.547  0.0181  0.2288 -0.2404
14581TIP3    H165158   5.127   3.528  14.624 -0.7598 -0.8999 -0.6630
14581TIP3    H265159   5.152   3.586  14.486  0.3940  0.8743  0.2543
14582TIP3   OH265160   2.352   3.212  13.336 -0.1671 -0.1309  0.3142
14582TIP3    H165161   2.278   3.203  13.395 -0.9855  1.7697 -0.3411
14582TIP3    H265162   2.412   3.271  13.382 -0.5273  0.8535 -0.4232
14583TIP3   OH265163   1.882   0.446  15.254 -0.0421 -0.7218  0.5516
14583TIP3    H165164   1.948   0.379  15.271  0.8170  0.3727  1.7153
14583TIP3    H265165   1.919   0.526  15.290 -1.0286  0.4119 -0.8411
14584TIP3   OH265166   0.162   3.586   5.908  0.3268 -0.4681  0.0113
14584TIP3    H165167   0.081   3.633   5.928  1.0583  1.4902 -1.2733
14584TIP3    H265168   0.138   3.493   5.912 -1.6820  0.0354  0.7448
14585TIP3   OH265169   4.709   0.481  15.882 -0.1350  0.2100 -0.3663
14585TIP3    H165170   4.725   0.388  15.898 -1.6621 -0.0344 -0.0386
14585TIP3    H265171   4.732   0.524  15.965 -0.3933 -0.0239 -0.1688
14586TIP3   OH265172   5.663   2.682   3.822  0.0317 -0.2153 -0.3239
14586TIP3    H165173   5.692   2.628   3.895  0.5003  0.0965 -0.2748
14586TIP3    H265174   5.735   2.743   3.807 -0.4861  0.3952 -0.3849
14587TIP3   OH265175   3.305   4.532   1.268 -0.2277 -0.7194  0.5646
14587TIP3    H165176   3.327   4.571   1.184 -2.4227  0.0317  0.2623
14587TIP3    H265177   3.219   4.492   1.254 -2.5594  2.7551  3.3215
14588TIP3   OH265178   3.964   6.372  15.567 -0.2332 -0.2763 -0.1094
14588TIP3    H165179   4.031   6.383  15.499 -1.9729 -1.0001 -2.0640
14588TIP3    H265180   3.943   6.461  15.595  1.2152 -0.0186  0.2313
14589TIP3   OH265181   0.103   0.531  13.336 -0.3510 -0.2253 -0.1449
14589TIP3    H165182   0.127   0.488  13.418  0.3605 -0.7394 -0.6219
14589TIP3    H265183   0.143   0.618  13.343 -1.5904  0.3050  0.7121
14590TIP3   OH265184   0.898   1.411  10.990  0.6806 -0.0377  0.6815
14590TIP3    H165185   0.853   1.373  10.914 -0.6911  1.8765  0.4406
14590TIP3    H265186   0.831   1.412  11.059  1.1894  0.3980  1.1801
14591TIP3   OH265187   5.235   0.935  16.860 -0.1165 -0.3363 -0.1586
14591TIP3    H165188   5.256   0.998  16.929 -0.5847  0.3854 -0.6607
14591TIP3    H265189   5.165   0.881  16.898 -2.6662  2.0334 -1.0704
14592TIP3   OH265190   1.261   4.736   1.408 -0.0005 -0.4918  0.7663
14592TIP3    H165191   1.287   4.715   1.318 -1.7892  0.3707  0.0104
14592TIP3    H265192   1.178   4.690   1.420 -1.1341  1.5232  1.0175
14593TIP3   OH265193   4.694   3.015   0.886 -0.3314 -0.3799  0.0321
14593TIP3    H165194   4.603   3.022   0.856  0.1413  1.2634 -1.2038
14593TIP3    H265195   4.698   3.072   0.962 -0.1269  0.3869 -0.5364
14594TIP3   OH265196   2.177   2.578  14.462  0.3530  0.1630 -0.1200
14594TIP3    H165197   2.265   2.563  14.427  0.9185  1.2692  0.7352
14594TIP3    H265198   2.120   2.524  14.407  1.3804  0.5684 -1.6784
14595TIP3   OH265199   4.591   3.334  15.154  0.2309  0.2210  0.6710
14595TIP3    H165200   4.590   3.428  15.138 -1.6680 -0.0027 -0.8745
14595TIP3    H265201   4.680   3.307  15.131  0.8999  1.6635  1.4746
14596TIP3   OH265202   2.439   1.577  14.865  0.0260 -0.0266 -0.2222
14596TIP3    H165203   2.443   1.661  14.910 -1.0733 -0.4392  0.6769
14596TIP3    H265204   2.489   1.592  14.784  0.1957  1.3590  0.1028
14597TIP3   OH265205   5.168   0.147  13.631 -0.2468  0.0677 -0.1535
14597TIP3    H165206   5.121   0.122  13.552  0.7556 -0.5563 -0.5623
14597TIP3    H265207   5.112   0.117  13.703 -0.9930  0.3314 -0.6181
14598TIP3   OH265208   5.054   2.643  15.263 -0.1020  0.9470 -0.0912
14598TIP3    H165209   4.970   2.658  15.221  0.4639  0.6936 -1.3626
14598TIP3    H265210   5.071   2.724  15.313 -0.8826  1.1663 -0.1741
14599TIP3   OH265211   6.797   3.067   3.589  0.6131 -0.8991  0.0440
14599TIP3    H165212   6.849   3.129   3.640 -1.9410 -0.3124  2.1623
14599TIP3    H265213   6.735   3.030   3.652 -2.3214 -0.6551 -2.4574
14600TIP3   OH265214   3.389   2.776   5.219 -0.1645 -0.6942 -0.0692
14600TIP3    H165215   3.415   2.853   5.169  1.9461 -0.4362  1.2948
14600TIP3    H265216   3.346   2.812   5.297 -2.7967 -1.0807 -1.2014
14601TIP3   OH265217   5.203   4.936  11.209 -0.1351 -0.5894  0.3291
14601TIP3    H165218   5.259   4.921  11.285 -0.4519  0.3128  0.7550
14601TIP3    H265219   5.258   4.987  11.149 -0.7168  0.9937  1.0823
14602TIP3   OH265220   0.474   5.625  12.916  0.4512  0.6913  0.2968
14602TIP3    H165221   0.567   5.611  12.930  0.2788 -2.2503 -0.6540
14602TIP3    H265222   0.432   5.549  12.957 -0.9775 -1.1678 -3.9599
14603TIP3   OH265223   6.485   4.289   3.123 -0.6847  0.0022  0.5520
14603TIP3    H165224   6.407   4.235   3.129 -0.5821 -0.0708  1.3184
14603TIP3    H265225   6.452   4.379   3.125 -1.0094  0.0571 -2.5341
14604TIP3   OH265226   0.921   2.208  11.955  0.6925  0.1092 -0.2950
14604TIP3    H165227   0.956   2.187  12.042  0.2576  1.4270  0.2150
14604TIP3    H265228   0.829   2.185  11.960  0.7052  0.0171 -0.4733
14605TIP3   OH265229   2.336   5.589   0.503 -0.3091  0.6636 -0.3209
14605TIP3    H165230   2.321   5.574   0.409 -1.4522  0.5732 -0.1401
14605TIP3    H265231   2.408   5.652   0.506  1.4762 -1.2280 -1.1987
14606TIP3   OH265232   4.776   0.166  17.030  0.0983 -0.1644  0.4059
14606TIP3    H165233   4.704   0.224  17.056 -0.6094 -0.3132 -1.1192
14606TIP3    H265234   4.797   0.117  17.110  1.0721  2.4821  1.9058
14607TIP3   OH265235   3.406   3.559   4.377 -0.3603  0.1395  0.3385
14607TIP3    H165236   3.427   3.541   4.468 -1.3366 -0.7132  0.4142
14607TIP3    H265237   3.400   3.655   4.372 -1.1516  0.1639  1.3761
14608TIP3   OH265238   1.114   4.588   0.313  0.6451 -0.2578  0.0003
14608TIP3    H165239   1.138   4.538   0.234 -1.6067 -1.8423  0.2273
14608TIP3    H265240   1.136   4.529   0.385  0.5862  0.2723  0.4529
14609TIP3   OH265241   2.909   2.252  11.826  0.4445 -0.4024  0.2777
14609TIP3    H165242   2.839   2.316  11.819  2.2570  1.5728 -1.5032
14609TIP3    H265243   2.948   2.267  11.912  0.9134  1.0595 -0.1578
14610TIP3   OH265244   2.720   5.203  16.319  0.2429 -0.1588  0.0964
14610TIP3    H165245   2.652   5.268  16.336  1.1809  0.6396  0.8901
14610TIP3    H265246   2.763   5.191  16.404  2.3514  0.7936 -0.7788
14611TIP3   OH265247   0.813   1.523   1.367 -0.4177  0.4243  0.3973
14611TIP3    H165248   0.872   1.449   1.354  0.9353  1.3830  0.8084
14611TIP3    H265249   0.731   1.484   1.398 -0.1006 -0.9655 -0.4350
14612TIP3   OH265250   6.130   2.310  11.144  0.0567  0.1168  0.0457
14612TIP3    H165251   6.189   2.235  11.144 -0.4738 -0.3767 -2.0166
14612TIP3    H265252   6.140   2.349  11.057 -0.3692  1.8927  0.7485
14613TIP3   OH265253   4.907   1.515   0.816  0.2540 -0.8117 -0.2383
14613TIP3    H165254   4.988   1.507   0.865  0.4589  1.8265 -0.0091
14613TIP3    H265255   4.839   1.525   0.882  0.1758  0.0413 -0.4300
14614TIP3   OH265256   4.031   6.788   3.256 -0.2797  0.6022 -0.0656
14614TIP3    H165257   4.056   6.730   3.328 -0.7117  1.0826  0.4849
14614TIP3    H265258   4.033   6.875   3.294 -0.3843  0.8758 -0.6763
14615TIP3   OH265259   1.311   1.753   2.274  0.0970 -0.2555 -0.4338
14615TIP3    H165260   1.230   1.789   2.239  0.7841  0.7051 -1.1121
14615TIP3    H265261   1.376   1.822   2.259  0.9643 -0.8583  0.4131
14616TIP3   OH265262   5.904   5.605  16.233 -0.1653 -0.4812 -0.0859
14616TIP3    H165263   5.870   5.683  16.187 -0.5725  0.0989  1.1526
14616TIP3    H265264   5.945   5.640  16.312 -0.8780 -1.5785  0.7919
14617TIP3   OH265265   0.634   1.110   4.459  0.0862 -0.2464 -0.2974
14617TIP3    H165266   0.699   1.094   4.528  0.3096 -1.1093 -0.6969
14617TIP3    H265267   0.578   1.032   4.461  1.1764 -1.1674 -2.2753
14618TIP3   OH265268   2.295   3.421   0.578 -0.0240  0.6812  0.2344
14618TIP3    H165269   2.284   3.337   0.533 -1.3033  1.5929 -1.2471
14618TIP3    H265270   2.382   3.415   0.619  0.0108 -1.2498 -0.0481
14619TIP3   OH265271   3.328   4.958  15.395 -0.0985  0.3768 -0.8734
14619TIP3    H165272   3.316   4.898  15.321 -0.1265  0.8854 -1.2839
14619TIP3    H265273   3.421   4.948  15.418  0.3656  1.5354 -2.1422
14620TIP3   OH265274   6.452   3.199  13.050  0.3203  0.0745  0.9520
14620TIP3    H165275   6.449   3.136  12.978 -0.5694 -0.4194  1.4074
14620TIP3    H265276   6.545   3.214  13.065  0.6539  2.4456 -2.2473
14621TIP3   OH265277   1.061   1.931   0.315 -0.5775 -0.0946  0.0149
14621TIP3    H165278   1.089   1.869   0.382 -0.5038 -0.1615 -0.0773
14621TIP3    H265279   0.970   1.952   0.337 -0.5860 -0.1964  0.0748
14622TIP3   OH265280   5.035   3.541  12.945 -0.1258  0.0287 -0.5517
14622TIP3    H165281   4.948   3.579  12.952 -0.4673 -0.3432 -2.3010
14622TIP3    H265282   5.022   3.458  12.899  1.0916 -0.2601 -0.4179
14623TIP3   OH265283   5.946   6.245   4.176 -0.2131 -0.4644 -0.1453
14623TIP3    H165284   6.030   6.247   4.130  0.1575 -0.0096  0.5122
14623TIP3    H265285   5.880   6.257   4.108  0.2820 -0.3760 -0.6167
14624TIP3   OH265286   3.134   2.728   4.906  0.1094 -0.0480 -0.3352
14624TIP3    H165287   3.059   2.759   4.956 -0.7613 -1.6275 -0.6208
14624TIP3    H265288   3.194   2.693   4.972  0.6290  1.1999 -0.1088
14625TIP3   OH265289   0.314   4.189   4.625  0.2809 -0.4660 -0.3724
14625TIP3    H165290   0.225   4.223   4.627 -0.1770 -1.5450  1.9354
14625TIP3    H265291   0.332   4.173   4.533 -0.9490  2.1035 -1.1506
14626TIP3   OH265292   2.691   4.001  15.612  0.5090  0.5256  0.6208
14626TIP3    H165293   2.629   4.021  15.682  0.4419  2.7771 -0.0061
14626TIP3    H265294   2.648   3.934  15.560 -0.3572  0.3490  1.5431
14627TIP3   OH265295   4.637   3.196  11.606 -0.1263  0.0481  0.1788
14627TIP3    H165296   4.713   3.238  11.564  0.5729 -0.5712  0.7878
14627TIP3    H265297   4.563   3.252  11.584  0.7162  1.3824  0.6565
14628TIP3   OH265298   3.541   3.050  15.000 -0.5203  0.7469 -0.3164
14628TIP3    H165299   3.598   3.049  15.077 -2.2352 -1.2137  1.0590
14628TIP3    H265300   3.560   3.133  14.957  1.4118  1.3565  1.5385
14629TIP3   OH265301   0.827   1.839  16.548  1.1284  0.1620  0.0430
14629TIP3    H165302   0.895   1.842  16.480  1.5579  1.5508  0.4946
14629TIP3    H265303   0.754   1.889  16.511  1.7740  1.8897  0.9779
14630TIP3   OH265304   4.292   4.682  11.120  0.0582 -0.2392 -0.0306
14630TIP3    H165305   4.260   4.621  11.053 -0.3994 -0.1605  0.1083
14630TIP3    H265306   4.236   4.759  11.109  1.1238  0.4661 -0.7148
14631TIP3   OH265307   4.760   3.435  12.815 -0.0182  0.3439 -0.3565
14631TIP3    H165308   4.791   3.455  12.727  1.6283 -0.3101  0.0342
14631TIP3    H265309   4.821   3.368  12.847  0.5670  1.8585  1.9302
14632TIP3   OH265310   3.136   1.896  13.003 -0.7821 -0.7474  0.1361
14632TIP3    H165311   3.168   1.808  13.023 -1.3116 -1.0749 -0.3941
14632TIP3    H265312   3.180   1.953  13.065 -0.0985 -1.3320  0.1991
14633TIP3   OH265313   6.442   0.498   1.596  0.6080  0.1440 -0.2507
14633TIP3    H165314   6.513   0.440   1.621  0.8032 -0.3042 -1.7335
14633TIP3    H265315   6.422   0.474   1.505 -0.9280  0.7650 -0.1167
14634TIP3   OH265316   2.465   3.206  13.065  0.4569  0.3473 -0.4244
14634TIP3    H165317   2.427   3.181  13.149  0.9200 -1.1111 -0.6144
14634TIP3    H265318   2.519   3.282  13.084  0.4800  0.0904  0.5886
14635TIP3   OH265319   6.623   0.233   4.631  0.3838  0.0607  0.5575
14635TIP3    H165320   6.682   0.308   4.626  0.6031 -0.0740  1.0857
14635TIP3    H265321   6.666   0.165   4.580  0.6736 -0.0301  0.9235
14636TIP3   OH265322   3.109   5.571  15.135 -0.1229 -0.6004 -0.5055
14636TIP3    H165323   3.033   5.627  15.120 -0.5891 -0.9558  0.4093
14636TIP3    H265324   3.156   5.570  15.052 -1.3706 -0.7499 -1.2296
14637TIP3   OH265325   6.787   2.043   1.841 -0.5900  0.4688  0.3431
14637TIP3    H165326   6.784   2.008   1.752  1.0382 -1.1588  0.8734
14637TIP3    H265327   6.737   1.979   1.893 -0.5979  0.8252  0.7774
14638TIP3   OH265328   5.248   2.045  10.777  0.2440  0.4474  0.1718
14638TIP3    H165329   5.202   2.129  10.768  0.7147  0.7373  0.4224
14638TIP3    H265330   5.338   2.064  10.751  0.3481  0.0064  0.1974
14639TIP3   OH265331   3.555   5.034   0.582  0.2285  0.8045 -0.5131
14639TIP3    H165332   3.575   4.990   0.664 -2.0064 -0.1621 -0.4387
14639TIP3    H265333   3.633   5.021   0.528  0.5551 -1.1562  0.3720
14640TIP3   OH265334   0.926   1.750  14.834 -0.0455 -0.2841  0.1558
14640TIP3    H165335   0.969   1.827  14.869 -0.3501 -0.4065  0.8215
14640TIP3    H265336   0.979   1.724  14.759 -0.4643  1.1226 -0.6763
14641TIP3   OH265337   2.414   1.926  14.501 -0.3332 -0.0029  0.5811
14641TIP3    H165338   2.320   1.940  14.493 -0.4688 -0.8486  0.6444
14641TIP3    H265339   2.448   1.940  14.412 -0.4484  0.7509  0.6495
14642TIP3   OH265340   0.291   0.300  13.956  0.0300  0.6309  0.9542
14642TIP3    H165341   0.257   0.361  14.022 -1.3314  2.0138 -0.8993
14642TIP3    H265342   0.382   0.325  13.944 -0.1653  1.4677  1.1576
14643TIP3   OH265343   4.224   3.493  15.153 -0.4601 -0.5511 -0.0757
14643TIP3    H165344   4.237   3.539  15.235  2.2639 -0.7636 -0.3158
14643TIP3    H265345   4.222   3.562  15.086  1.4222 -0.5618 -0.2007
14644TIP3   OH265346   0.278   1.007  15.879 -0.7435 -0.3970 -0.2734
14644TIP3    H165347   0.218   0.969  15.943 -1.0567 -0.8685 -0.8464
14644TIP3    H265348   0.264   1.102  15.887 -1.3148 -0.4893 -0.1604
14645TIP3   OH265349   1.434   0.717   3.382  0.2331  0.4566  0.5151
14645TIP3    H165350   1.353   0.673   3.408  0.1278  0.4205  0.1246
14645TIP3    H265351   1.489   0.713   3.461 -0.4019  1.0981  1.0017
14646TIP3   OH265352   4.480   2.168  15.818  0.5045 -0.3648  0.0355
14646TIP3    H165353   4.517   2.122  15.743  1.6967 -1.9492  1.5174
14646TIP3    H265354   4.409   2.112  15.849  0.1548  0.1767  0.2366
14647TIP3   OH265355   5.381   3.424   2.164  0.0040  0.5948  0.1900
14647TIP3    H165356   5.378   3.328   2.167 -1.7942  0.6070 -0.2590
14647TIP3    H265357   5.438   3.448   2.237 -0.5098 -0.7758  1.0803
14648TIP3   OH265358   0.085   3.025   0.469  0.2084 -0.5163 -0.2543
14648TIP3    H165359   0.072   2.974   0.549  1.4654  0.8368  0.8605
14648TIP3    H265360   0.163   3.078   0.486 -0.2053  0.7222 -1.9107
14649TIP3   OH265361   2.000   4.963  16.363 -0.1277  0.5743  0.1040
14649TIP3    H165362   2.012   4.923  16.450 -3.8520  0.2397  0.6166
14649TIP3    H265363   2.059   5.038  16.363  0.1335  0.4739  2.8529
14650TIP3   OH265364   5.359   3.015   5.620  0.3000  0.8215  0.0113
14650TIP3    H165365   5.412   3.051   5.690 -1.3899  3.5361  0.0409
14650TIP3    H265366   5.386   3.063   5.541  1.2397 -1.2339 -0.9927
14651TIP3   OH265367   0.353   2.422   0.552 -0.3260 -0.2407  0.2256
14651TIP3    H165368   0.271   2.466   0.571 -0.2114  0.0968 -0.0495
14651TIP3    H265369   0.417   2.464   0.610 -0.8602 -2.4382  2.5790
14652TIP3   OH265370   2.744   4.816  15.605  0.3410 -0.3090 -0.0132
14652TIP3    H165371   2.738   4.908  15.631 -1.2119 -0.2257 -0.5210
14652TIP3    H265372   2.691   4.811  15.525  3.1155 -0.9810 -1.9384
14653TIP3   OH265373   3.836   1.586   0.106  0.3747 -0.5498 -0.2438
14653TIP3    H165374   3.804   1.647   0.172  0.3786 -0.7133 -0.0901
14653TIP3    H265375   3.760   1.530   0.086  0.6843 -1.2452  0.4692
14654TIP3   OH265376   3.247   5.799   3.867  0.0304  0.1411 -0.3857
14654TIP3    H165377   3.312   5.802   3.797  1.6477 -0.5950  1.0346
14654TIP3    H265378   3.238   5.889   3.896  1.5038  0.0617  0.3562
14655TIP3   OH265379   5.402   4.996   2.236  0.2634  0.0579  0.7478
14655TIP3    H165380   5.389   4.957   2.322 -0.1496 -0.8069  0.2989
14655TIP3    H265381   5.342   5.070   2.234  0.5585  0.3206  1.3446
14656TIP3   OH265382   1.261   1.598   4.978  0.5605 -0.1485  0.1479
14656TIP3    H165383   1.262   1.692   4.965 -0.7787 -0.0626  0.5653
14656TIP3    H265384   1.241   1.562   4.892 -1.2872  0.0860  0.4417
14657TIP3   OH265385   0.262   5.829  13.136 -0.2034 -0.1035  0.0935
14657TIP3    H165386   0.294   5.890  13.203 -0.4460 -1.3287  1.3609
14657TIP3    H265387   0.237   5.751  13.184 -0.9663 -0.8077 -1.3780
14658TIP3   OH265388   1.586   5.417   2.460 -0.1756  0.2028  0.0723
14658TIP3    H165389   1.617   5.326   2.456 -1.3963 -0.2997 -5.0759
14658TIP3    H265390   1.501   5.415   2.415 -0.2023  3.8951 -0.3033
14659TIP3   OH265391   3.323   0.182  13.509  0.1655  0.0794 -0.8799
14659TIP3    H165392   3.408   0.211  13.475  0.6704 -0.5340 -0.1711
14659TIP3    H265393   3.284   0.133  13.436  0.6743 -0.1359 -1.0145
14660TIP3   OH265394   0.606   5.051   3.715  0.0203  0.4647 -0.1376
14660TIP3    H165395   0.680   4.996   3.742  3.0701  3.6995 -1.1087
14660TIP3    H265396   0.564   5.077   3.797 -0.6424 -2.0321  0.4007
14661TIP3   OH265397   1.203   5.189  14.556 -0.4317 -0.5173  0.1926
14661TIP3    H165398   1.236   5.277  14.571  0.7774 -0.5199 -2.1374
14661TIP3    H265399   1.261   5.132  14.607  1.0841 -0.2342 -1.1763
14662TIP3   OH265400   3.943   5.786  14.906  0.2483  0.1983  0.5010
14662TIP3    H165401   3.974   5.713  14.960  2.5617  1.1864  0.6331
14662TIP3    H265402   3.852   5.764  14.886  0.7665 -2.6000  0.7224
14663TIP3   OH265403   3.859   2.614  11.237  0.6055 -0.3050 -0.6428
14663TIP3    H165404   3.872   2.528  11.277 -1.1319 -0.2916  0.0070
14663TIP3    H265405   3.844   2.673  11.312  1.7899  0.5910 -1.0740
14664TIP3   OH265406   3.322   0.885   4.038  0.4600  0.4822 -0.3327
14664TIP3    H165407   3.312   0.822   3.967  1.0659 -1.3128  1.0794
14664TIP3    H265408   3.403   0.932   4.018  0.5984  0.0337 -0.8451
14665TIP3   OH265409   0.319   1.293  16.421 -0.0636  0.1848  0.0107
14665TIP3    H165410   0.405   1.332  16.439  0.5749 -0.9015 -0.5579
14665TIP3    H265411   0.277   1.356  16.362  0.8386  0.1805 -0.6731
14666TIP3   OH265412   0.119   3.662  12.738 -0.1603 -0.5817  0.0418
14666TIP3    H165413   0.071   3.700  12.812  0.2308  2.9879 -1.3034
14666TIP3    H265414   0.058   3.670  12.665  1.2083  0.8638 -1.0068
14667TIP3   OH265415   4.141   5.651   3.332  0.2107 -0.6851 -0.0315
14667TIP3    H165416   4.081   5.716   3.369  0.5355 -1.3089  1.7106
14667TIP3    H265417   4.194   5.699   3.270 -1.1320  0.1895 -0.5428
14668TIP3   OH265418   5.916   4.344  11.860 -0.0752 -0.2521 -0.2822
14668TIP3    H165419   5.865   4.345  11.941 -0.8565  2.7775 -0.7117
14668TIP3    H265420   5.984   4.410  11.873  1.3418 -1.4473 -1.2363
14669TIP3   OH265421   1.313   0.529   5.916 -0.1084 -0.5506  0.2636
14669TIP3    H165422   1.313   0.572   6.001  0.7044 -1.4657  0.7383
14669TIP3    H265423   1.271   0.444   5.932 -1.3700 -0.1164 -0.5851
14670TIP3   OH265424   4.558   0.239   1.290 -0.6811 -0.1377  0.2339
14670TIP3    H165425   4.561   0.169   1.224 -0.6207 -0.3153  0.4254
14670TIP3    H265426   4.644   0.238   1.330 -1.1854 -1.0132  1.3354
14671TIP3   OH265427   1.741   3.267   4.029 -0.0602  0.2804 -0.5958
14671TIP3    H165428   1.751   3.174   4.051 -0.3477 -0.2000 -2.3088
14671TIP3    H265429   1.732   3.267   3.933  0.3201  2.1116 -0.6551
14672TIP3   OH265430   1.485   0.440  14.641 -0.1643 -0.0192 -0.0539
14672TIP3    H165431   1.469   0.480  14.556 -2.3822 -0.8129 -0.0722
14672TIP3    H265432   1.563   0.386  14.628 -0.2124  0.2192 -1.4503
14673TIP3   OH265433   4.788   5.843   0.417  0.0479 -0.2665  0.0240
14673TIP3    H165434   4.874   5.862   0.455  0.1232 -1.0438  0.2625
14673TIP3    H265435   4.745   5.786   0.482 -0.6108  0.0399 -0.1367
14674TIP3   OH265436   6.442   5.079  11.148  0.1880  0.1505  0.1446
14674TIP3    H165437   6.399   5.120  11.223 -1.4334  1.1322 -1.2395
14674TIP3    H265438   6.370   5.038  11.099  0.9235  1.0374 -1.7770
14675TIP3   OH265439   1.043   3.742  10.967  0.0410 -0.1252 -0.9049
14675TIP3    H165440   1.097   3.700  11.034  0.5352 -1.9386 -2.3761
14675TIP3    H265441   0.953   3.724  10.995  0.1592  1.2465  0.5194
14676TIP3   OH265442   0.641   1.678  10.986  0.1549  0.4209 -0.0029
14676TIP3    H165443   0.642   1.676  11.082 -0.0506  1.2875  0.0228
14676TIP3    H265444   0.559   1.720  10.963 -0.2043 -0.5701 -0.5907
14677TIP3   OH265445   4.331   5.447   3.449 -0.4634 -0.5600  0.1067
14677TIP3    H165446   4.277   5.522   3.423  1.4833  0.9567  0.2063
14677TIP3    H265447   4.337   5.454   3.544  1.1502  0.2086 -0.0363
14678TIP3   OH265448   1.622   6.034   4.446 -0.4118 -0.2331  0.4039
14678TIP3    H165449   1.679   5.968   4.407  1.0721  0.4732  1.2612
14678TIP3    H265450   1.616   6.009   4.538 -2.0372 -0.6275  0.2330
14679TIP3   OH265451   6.065   5.592   1.791 -0.2311  0.3511  0.2103
14679TIP3    H165452   6.115   5.591   1.873 -1.0333 -1.5380  0.7227
14679TIP3    H265453   5.993   5.653   1.807 -0.8649 -0.6307  1.2578
14680TIP3   OH265454   2.215   2.232  14.280 -0.2951 -0.0024 -0.1397
14680TIP3    H165455   2.218   2.175  14.203 -2.0251 -2.0631  1.1798
14680TIP3    H265456   2.141   2.290  14.263 -0.7292 -0.5104 -0.0500
14681TIP3   OH265457   5.655   5.269   2.792 -0.7075  0.4063  0.3983
14681TIP3    H165458   5.669   5.247   2.885  1.0800  1.4037  0.3875
14681TIP3    H265459   5.724   5.223   2.746 -0.4204  1.4513 -0.2356
14682TIP3   OH265460   2.289   4.649   4.730 -0.7563 -0.4266  0.0039
14682TIP3    H165461   2.261   4.573   4.677  0.8674 -0.8399 -0.3217
14682TIP3    H265462   2.336   4.610   4.803  1.8029  0.2413 -1.1735
14683TIP3   OH265463   2.647   2.524  13.065  0.4374  0.3172  0.6265
14683TIP3    H165464   2.715   2.522  12.998 -1.0274  3.1352 -1.1365
14683TIP3    H265465   2.694   2.528  13.148  2.3554 -0.3819 -0.3823
14684TIP3   OH265466   5.595   1.971   2.645  0.4517  0.2021  0.2736
14684TIP3    H165467   5.558   2.050   2.686  1.1574  0.6605  0.0507
14684TIP3    H265468   5.644   2.005   2.570 -1.2132 -0.6581 -1.2747
14685TIP3   OH265469   5.712   1.838   2.291  0.0604  0.5619  0.2920
14685TIP3    H165470   5.699   1.928   2.321  0.7884  1.2110 -1.2473
14685TIP3    H265471   5.781   1.844   2.225  0.3715 -1.1858  0.4214
14686TIP3   OH265472   5.594   5.895   2.495 -0.0931 -0.0696  0.1937
14686TIP3    H165473   5.658   5.892   2.567  1.6707 -0.4138 -1.3066
14686TIP3    H265474   5.563   5.985   2.494  1.0628  0.3436  0.4105
14687TIP3   OH265475   6.602   6.086  14.906 -0.8831  0.0030 -0.1570
14687TIP3    H165476   6.562   6.031  14.839  0.1854 -0.6104 -0.3166
14687TIP3    H265477   6.565   6.055  14.989 -0.7089 -0.5815 -0.2961
14688TIP3   OH265478   3.371   5.886  12.192 -0.3348  0.1584  0.4455
14688TIP3    H165479   3.334   5.810  12.237  0.5014  0.1962  1.2309
14688TIP3    H265480   3.308   5.956  12.209 -0.6184 -0.1216  0.5608
14689TIP3   OH265481   4.538   5.205  10.969 -0.3922 -0.1769 -0.2413
14689TIP3    H165482   4.487   5.239  10.896  0.2507 -0.5997 -0.9148
14689TIP3    H265483   4.595   5.138  10.929  0.5994  0.1999  0.4848
14690TIP3   OH265484   2.627   1.904   3.102  0.3314  0.3802 -0.1423
14690TIP3    H165485   2.568   1.949   3.163 -0.4131 -0.7093 -0.0201
14690TIP3    H265486   2.650   1.970   3.036 -0.2337  1.0919  0.3621
14691TIP3   OH265487   4.017   4.395  16.180 -0.1431  0.0088 -0.0963
14691TIP3    H165488   4.083   4.358  16.239  0.1520  0.2438 -0.2765
14691TIP3    H265489   4.036   4.355  16.095  1.3673  1.9207 -0.7391
14692TIP3   OH265490   0.988   6.315  17.072 -0.0323 -0.4251  0.5322
14692TIP3    H165491   0.929   6.254  17.026 -0.1072 -0.4926  0.7170
14692TIP3    H265492   0.946   6.329  17.157  0.0541 -0.2193  0.5409
14693TIP3   OH265493   5.757   5.886   6.430  0.1248  0.2383 -0.3570
14693TIP3    H165494   5.830   5.838   6.391  0.1017 -0.5481  0.5296
14693TIP3    H265495   5.710   5.923   6.355  0.0660 -1.2639 -1.1103
14694TIP3   OH265496   5.622   6.247  15.702 -0.0355  0.1505  0.0703
14694TIP3    H165497   5.560   6.228  15.773 -1.4285  0.0839 -1.1163
14694TIP3    H265498   5.627   6.342  15.701  2.8269  0.1648  2.5564
14695TIP3   OH265499   6.553   3.393   5.533  1.0232  0.6236  0.4009
14695TIP3    H165500   6.566   3.486   5.517  0.3193  0.5689 -0.5742
14695TIP3    H265501   6.623   3.350   5.485  1.0659  0.6277  0.4599
14696TIP3   OH265502   4.915   0.468  15.344  0.1004 -0.7546  0.7000
14696TIP3    H165503   4.831   0.506  15.369  0.6995 -0.3005  2.0863
14696TIP3    H265504   4.972   0.544  15.330  0.2381 -1.0505 -0.4596
14697TIP3   OH265505   3.707   0.870   2.889 -0.7030 -0.2206  0.7522
14697TIP3    H165506   3.704   0.965   2.874 -1.1025 -0.4035 -0.4366
14697TIP3    H265507   3.796   0.845   2.865 -0.2749 -0.0183  2.0385
14698TIP3   OH265508   1.190   3.762  15.783  0.1660 -0.0037  0.2324
14698TIP3    H165509   1.241   3.746  15.704 -0.3168  0.8624 -0.2570
14698TIP3    H265510   1.246   3.819  15.836 -0.6880  1.8550 -0.7758
14699TIP3   OH265511   6.166   2.328  10.871 -0.4895  0.5022  0.2806
14699TIP3    H165512   6.146   2.421  10.856  0.3490  0.3238 -2.5151
14699TIP3    H265513   6.135   2.284  10.792  0.4319 -1.4065  0.9188
14700TIP3   OH265514   6.144   5.979   5.309  0.1126 -0.1586  0.6563
14700TIP3    H165515   6.138   6.022   5.224 -0.6067  0.8730  1.2105
14700TIP3    H265516   6.113   6.044   5.371  1.3037 -0.6508  1.8076
14701TIP3   OH265517   2.018   0.603  10.851  0.4980  0.1552 -0.4144
14701TIP3    H165518   2.097   0.577  10.899 -0.3605 -0.4254  0.7302
14701TIP3    H265519   2.043   0.595  10.758  1.5620 -0.7276 -0.0799
14702TIP3   OH265520   2.442   1.538   0.703 -0.3502  0.5216  0.1048
14702TIP3    H165521   2.414   1.521   0.613  0.5055  1.2837 -0.3142
14702TIP3    H265522   2.373   1.594   0.740 -1.0812 -0.3898  0.1877
14703TIP3   OH265523   6.497   5.149   0.125  0.7434 -0.4494 -0.6520
14703TIP3    H165524   6.481   5.072   0.180  1.1424 -0.0443  0.0562
14703TIP3    H265525   6.508   5.115   0.037  2.6911 -1.4142 -0.0867
14704TIP3   OH265526   1.353   1.398  13.452 -0.3362  0.5669  0.3397
14704TIP3    H165527   1.304   1.329  13.408 -1.7373  1.1470  0.9348
14704TIP3    H265528   1.424   1.353  13.497 -0.9583 -0.4305  0.3352
14705TIP3   OH265529   6.692   6.541   2.079 -0.1188  0.1620  0.0011
14705TIP3    H165530   6.771   6.592   2.059  0.0785  0.4279  1.3302
14705TIP3    H265531   6.711   6.453   2.047 -0.5549  0.9226 -2.5600
14706TIP3   OH265532   4.308   0.016  11.666  0.0289 -0.0744 -0.3214
14706TIP3    H165533   4.399   0.034  11.642  0.1098 -3.1284 -2.8587
14706TIP3    H265534   4.258   0.037  11.587 -0.9296 -1.9454 -0.2687
14707TIP3   OH265535   2.817   6.567  13.886  0.0543 -0.2677  0.1659
14707TIP3    H165536   2.745   6.516  13.848  1.5598 -0.8834 -2.0597
14707TIP3    H265537   2.855   6.509  13.951  0.3753 -1.1526 -0.7857
14708TIP3   OH265538   3.398   6.386   2.866  0.2431  0.0891  0.0900
14708TIP3    H165539   3.461   6.372   2.936  1.2066  1.4435 -0.4543
14708TIP3    H265540   3.349   6.464   2.893  1.3677  1.3017 -1.1880
14709TIP3   OH265541   4.021   2.922   4.259 -0.5927 -0.3534  0.4356
14709TIP3    H165542   3.945   2.875   4.294  0.9864 -1.9282  1.9855
14709TIP3    H265543   4.092   2.858   4.263  1.0050  1.2982 -0.2454
14710TIP3   OH265544   2.211   3.895  17.077  0.2502  0.0001  0.1423
14710TIP3    H165545   2.300   3.862  17.086  1.0342  2.1305  1.0219
14710TIP3    H265546   2.160   3.845  17.140  0.4472 -2.2430 -1.3701
14711TIP3   OH265547   2.818   1.323  12.469 -0.2804  0.3353 -0.6513
14711TIP3    H165548   2.872   1.331  12.390  0.2040 -1.0328 -0.4797
14711TIP3    H265549   2.837   1.403  12.518 -0.3405  1.0574 -1.7593
14712TIP3   OH265550   2.296   3.084   3.895  0.0544  0.2271 -0.4165
14712TIP3    H165551   2.364   3.149   3.879 -0.8017  1.6469  1.3426
14712TIP3    H265552   2.263   3.105   3.982 -1.2103 -1.7375 -0.3620
14713TIP3   OH265553   1.388   4.518  13.908  0.2500 -0.1863 -0.7808
14713TIP3    H165554   1.309   4.569  13.890  1.0095  1.5933  0.6179
14713TIP3    H265555   1.356   4.439  13.951 -0.7834  0.6211 -0.0099
14714TIP3   OH265556   4.976   2.584  16.131 -0.0080 -0.0750  0.1768
14714TIP3    H165557   4.882   2.583  16.149 -0.2233  4.5137  0.5133
14714TIP3    H265558   5.017   2.591  16.217  0.2812  2.0011 -0.0774
14715TIP3   OH265559   2.128   0.521   3.450  0.4702 -0.5685 -0.3963
14715TIP3    H165560   2.088   0.520   3.537 -0.3360 -1.0374 -0.7635
14715TIP3    H265561   2.197   0.454   3.455 -0.3860 -1.4684 -0.4881
14716TIP3   OH265562   0.338   4.715  16.095 -0.7841  0.0380  0.0319
14716TIP3    H165563   0.385   4.798  16.099  1.8445 -1.3750  1.7783
14716TIP3    H265564   0.252   4.734  16.131 -0.1144  1.9261  0.7616
14717TIP3   OH265565   0.285   3.596   4.870  0.4007  0.0212 -0.1925
14717TIP3    H165566   0.209   3.538   4.883  0.5468 -0.1611 -0.1518
14717TIP3    H265567   0.288   3.609   4.775 -1.0398  1.8556 -0.0319
14718TIP3   OH265568   3.173   0.329  16.387 -0.5845 -0.6423 -0.3738
14718TIP3    H165569   3.121   0.409  16.387 -1.0576 -0.9379  0.0040
14718TIP3    H265570   3.168   0.298  16.478  0.7863 -0.3420 -0.1711
14719TIP3   OH265571   5.373   3.560  15.482 -0.1116 -0.1459  0.1604
14719TIP3    H165572   5.447   3.618  15.461 -0.9783  0.6571 -0.7482
14719TIP3    H265573   5.332   3.542  15.398 -1.2191 -0.2210  0.7053
14720TIP3   OH265574   4.351   5.292  10.703 -0.4720 -0.3404 -0.6828
14720TIP3    H165575   4.340   5.209  10.657 -1.6077  0.0482 -1.1509
14720TIP3    H265576   4.444   5.311  10.696 -0.5420 -0.5127 -2.4647
14721TIP3   OH265577   1.307   0.993  14.709 -0.2388 -0.3419 -0.1293
14721TIP3    H165578   1.282   1.012  14.799 -2.5086 -2.2339 -0.2722
14721TIP3    H265579   1.245   1.043  14.656 -0.5250 -1.1786 -0.5983
14722TIP3   OH265580   2.873   0.091   4.102 -0.6056 -0.0522 -0.4210
14722TIP3    H165581   2.879   0.152   4.029 -2.3429 -0.1022 -0.6434
14722TIP3    H265582   2.857   0.146   4.178 -0.1423 -0.1061 -0.2773
14723TIP3   OH265583   4.259   2.809   2.735 -0.3912 -0.3718  0.3648
14723TIP3    H165584   4.183   2.753   2.719 -1.5227  0.9518  0.8619
14723TIP3    H265585   4.236   2.893   2.694  0.2400  0.4433  1.5999
14724TIP3   OH265586   0.834   6.196  14.760 -0.3569  0.1431  0.1683
14724TIP3    H165587   0.921   6.202  14.722 -0.5144 -0.9301 -0.4093
14724TIP3    H265588   0.785   6.269  14.722 -0.9672 -1.7263 -2.9914
14725TIP3   OH265589   4.716   2.891  12.359 -0.6873 -0.3197 -0.0348
14725TIP3    H165590   4.742   2.812  12.311 -0.6279 -0.9218  0.9643
14725TIP3    H265591   4.798   2.934  12.381 -0.7344  0.2653 -0.9567
14726TIP3   OH265592   2.340   1.937   4.972  0.3024  0.0900 -0.6900
14726TIP3    H165593   2.381   2.024   4.967 -0.9620  0.9259  1.6874
14726TIP3    H265594   2.404   1.884   5.021 -0.3832  0.7628  1.0308
14727TIP3   OH265595   2.169   5.920   5.080  0.3753 -0.5623  0.2207
14727TIP3    H165596   2.197   5.919   5.171 -2.0931 -1.8674  1.0561
14727TIP3    H265597   2.192   5.833   5.047  2.6275  0.3995 -0.9309
14728TIP3   OH265598   4.595   0.855   4.643 -0.1359 -0.0526  0.4323
14728TIP3    H165599   4.651   0.860   4.719  0.1625  0.6316  0.1719
14728TIP3    H265600   4.647   0.808   4.577  0.2314  0.7727  0.1173
14729TIP3   OH265601   5.280   5.080  14.422  0.1284  0.1024 -0.0992
14729TIP3    H165602   5.196   5.041  14.397  0.5170  0.1343 -1.5512
14729TIP3    H265603   5.327   5.009  14.466 -0.5545  0.0165  0.5142
14730TIP3   OH265604   6.680   2.041   3.600  0.4674  0.6255  0.0343
14730TIP3    H165605   6.597   2.076   3.568  1.4485  1.5699 -1.6601
14730TIP3    H265606   6.690   1.957   3.554  0.4287  0.4968  0.2616
14731TIP3   OH265607   5.032   0.867  13.364  0.4082 -0.0757 -0.2644
14731TIP3    H165608   5.058   0.942  13.416  2.0707 -0.8588  0.0909
14731TIP3    H265609   5.060   0.888  13.275  0.4239 -0.0675 -0.2577
14732TIP3   OH265610   1.226   2.005   5.428 -0.0046  0.3979 -0.2360
14732TIP3    H165611   1.202   1.925   5.381 -0.5628  0.5936 -0.2846
14732TIP3    H265612   1.282   1.974   5.500 -2.7889 -0.4539  1.7057
14733TIP3   OH265613   3.399   3.274   1.688 -0.7326 -0.3631 -0.1364
14733TIP3    H165614   3.310   3.249   1.662 -0.9595  0.8632 -0.6393
14733TIP3    H265615   3.385   3.345   1.752 -0.1203  0.0483 -0.4535
14734TIP3   OH265616   4.998   0.418   2.773  0.9161 -0.2472 -0.1259
14734TIP3    H165617   4.905   0.400   2.781  0.9374 -0.2619  0.1009
14734TIP3    H265618   5.026   0.371   2.695  0.5479  0.4887 -0.7144
14735TIP3   OH265619   5.219   4.726   0.901 -0.8697  0.1719 -0.2482
14735TIP3    H165620   5.237   4.746   0.809  0.0182  2.0934  0.2879
14735TIP3    H265621   5.300   4.686   0.933 -0.5692  1.0157  0.0781
14736TIP3   OH265622   3.109   3.019   3.020  0.4007 -0.2291  0.2149
14736TIP3    H165623   3.041   2.952   3.017  0.1015  0.0828 -0.1727
14736TIP3    H265624   3.191   2.971   3.014  0.2156 -0.6068  0.6181
14737TIP3   OH265625   2.034   5.278   2.635 -0.6642  0.1986 -0.6875
14737TIP3    H165626   2.125   5.306   2.636 -1.1779  2.0346 -1.1008
14737TIP3    H265627   2.012   5.270   2.542 -0.8792 -0.4177 -0.5894
14738TIP3   OH265628   0.976   0.698   4.452 -0.1912  0.1806  0.1664
14738TIP3    H165629   1.029   0.619   4.441 -0.0236  0.2836  0.2301
14738TIP3    H265630   1.036   0.762   4.490 -0.4062  0.2449  0.4062
14739TIP3   OH265631   2.841   1.590  12.113 -0.1517  0.2156 -0.0430
14739TIP3    H165632   2.795   1.646  12.050  0.7013  2.3980  1.1535
14739TIP3    H265633   2.920   1.562  12.067 -0.1267  0.7903 -0.3634
14740TIP3   OH265634   1.335   2.158   0.919 -0.3596 -0.1889  0.4838
14740TIP3    H165635   1.327   2.177   0.826  1.3219  1.9689  0.7027
14740TIP3    H265636   1.262   2.205   0.960  1.0567  2.1180  0.5435
14741TIP3   OH265637   5.765   5.019   5.470 -0.0223 -0.5589 -0.3536
14741TIP3    H165638   5.747   5.009   5.564  1.1072  0.4012 -0.0238
14741TIP3    H265639   5.723   4.942   5.430  0.7849 -1.8079  1.0984
14742TIP3   OH265640   1.602   6.091  12.620 -0.1007 -0.1804  0.6514
14742TIP3    H165641   1.594   6.023  12.552  1.5598 -0.8205  1.0503
14742TIP3    H265642   1.669   6.151  12.586 -0.0472  0.0940  1.2365
14743TIP3   OH265643   4.475   5.696   2.661  0.1168  0.3600 -0.1889
14743TIP3    H165644   4.527   5.676   2.583 -0.5408 -1.2629 -0.2629
14743TIP3    H265645   4.472   5.613   2.709 -1.8181  0.5669  0.1364
14744TIP3   OH265646   3.975   0.003   0.120 -0.1343  0.3251  0.2470
14744TIP3    H165647   3.931  -0.075   0.155  0.7293  0.2212  1.1659
14744TIP3    H265648   3.906   0.069   0.114 -0.9265 -0.5601 -0.7525
14745TIP3   OH265649   3.746   2.083  13.546 -0.7001 -0.3364 -0.2571
14745TIP3    H165650   3.763   2.167  13.502 -0.0114  0.1824  0.9397
14745TIP3    H265651   3.651   2.073  13.541 -0.7545  0.3042 -0.7876
14746TIP3   OH265652   6.460   2.266   0.944 -0.5832 -0.6714 -0.2882
14746TIP3    H165653   6.367   2.252   0.923 -1.3554  2.9247  0.1448
14746TIP3    H265654   6.501   2.182   0.923 -3.9293 -2.5169 -0.2549
14747TIP3   OH265655   5.604   0.715  15.064  0.0384  0.1309  0.3307
14747TIP3    H165656   5.590   0.741  14.973 -0.1798  0.6980  0.5193
14747TIP3    H265657   5.518   0.687  15.095  0.0496  0.2327  0.4532
14748TIP3   OH265658   1.332   6.454   3.466 -0.2413  0.0067 -0.0111
14748TIP3    H165659   1.291   6.540   3.475  0.3950  0.1427  2.6707
14748TIP3    H265660   1.422   6.473   3.439 -0.3296  0.1281 -0.2202
14749TIP3   OH265661   5.997   5.007  15.660 -0.4170 -0.3146 -0.0219
14749TIP3    H165662   6.079   5.011  15.611 -0.2518  0.1599  0.2877
14749TIP3    H265663   6.015   5.055  15.741 -1.3920  0.9893 -0.5448
14750TIP3   OH265664   6.130   2.490  14.624 -0.5420 -0.3181 -0.3308
14750TIP3    H165665   6.142   2.454  14.712  2.0471 -2.1762 -1.3083
14750TIP3    H265666   6.081   2.422  14.577  0.2376 -0.4614 -0.9534
14751TIP3   OH265667   2.477   1.072  14.657  0.5723 -0.5064 -0.0156
14751TIP3    H165668   2.452   1.098  14.745  1.0705  1.6862 -0.4584
14751TIP3    H265669   2.478   1.154  14.607 -1.2146 -1.8249 -2.4735
14752TIP3   OH265670   4.323   2.501   3.302  0.3370 -0.0227  0.4980
14752TIP3    H165671   4.375   2.445   3.360  0.8847  0.1467  0.1766
14752TIP3    H265672   4.367   2.495   3.217 -0.0858  0.2386  0.2565
14753TIP3   OH265673   6.593   6.197   1.344 -0.2295  0.4929  0.3791
14753TIP3    H165674   6.636   6.234   1.267  0.7887  0.0244  0.7074
14753TIP3    H265675   6.594   6.102   1.328  0.2471  0.3738  1.0929
14754TIP3   OH265676   0.127   1.759   1.570 -0.1978 -0.2169 -0.2082
14754TIP3    H165677   0.142   1.760   1.664 -1.4643 -2.6878  0.0999
14754TIP3    H265678   0.204   1.715   1.534 -0.5859 -1.0251 -0.0793
14755TIP3   OH265679   3.562   6.294   4.990  0.6611  0.3721 -0.3897
14755TIP3    H165680   3.633   6.237   4.960  0.8984  0.4751 -0.0294
14755TIP3    H265681   3.483   6.259   4.948  0.4195 -1.6534  1.5911
14756TIP3   OH265682   3.983   5.482  15.462  0.4551 -0.8682  0.5753
14756TIP3    H165683   3.950   5.436  15.540  0.0170 -0.2232  0.7746
14756TIP3    H265684   3.973   5.419  15.391  1.2751 -1.6328  1.1062
14757TIP3   OH265685   0.110   0.185  13.811  0.4625 -0.3741 -0.1676
14757TIP3    H165686   0.164   0.126  13.758  0.7080 -1.1134  0.8771
14757TIP3    H265687   0.171   0.223  13.875  0.3072  1.0194 -0.8042
14758TIP3   OH265688   4.463   3.270   4.601 -0.1119  0.2897 -0.3134
14758TIP3    H165689   4.383   3.315   4.626  0.7888  0.6242  2.3719
14758TIP3    H265690   4.451   3.247   4.509 -2.8503  1.1643 -0.2564
14759TIP3   OH265691   5.942   4.391  13.922  0.0411  0.0608  0.0822
14759TIP3    H165692   6.027   4.434  13.927 -0.1069  0.3255  0.3765
14759TIP3    H265693   5.906   4.417  13.837 -0.1112  0.6493  0.3215
14760TIP3   OH265694   1.875   5.706   5.388  0.5460  0.0023 -0.1328
14760TIP3    H165695   1.932   5.646   5.435  0.7673 -0.1914 -0.6336
14760TIP3    H265696   1.791   5.659   5.380  0.8058 -0.3764 -0.7788
14761TIP3   OH265697   5.457   6.363  12.591 -0.0058  0.7252 -0.3671
14761TIP3    H165698   5.406   6.346  12.512  0.6243 -0.0926 -0.6106
14761TIP3    H265699   5.519   6.290  12.596  0.4505  1.1559  0.4805
14762TIP3   OH265700   6.305   0.503  12.420  0.0574  0.2301 -0.9757
14762TIP3    H165701   6.313   0.566  12.492 -0.5149  0.0816 -0.7750
14762TIP3    H265702   6.382   0.520  12.365  0.5584  0.2805 -0.2814
14763TIP3   OH265703   2.892   3.304  12.628  0.6675  0.0777  0.5411
14763TIP3    H165704   2.949   3.272  12.697  3.1544  1.6828 -0.6418
14763TIP3    H265705   2.882   3.397  12.646 -0.0379  0.1906 -0.3329
14764TIP3   OH265706   0.903   4.389   0.451 -0.2164 -0.3085 -0.2218
14764TIP3    H165707   0.934   4.477   0.470  1.3602 -0.5052 -1.6351
14764TIP3    H265708   0.914   4.341   0.533  2.2588 -0.0411 -0.3212
14765TIP3   OH265709   2.040   4.105   1.135  0.4335  0.0787  0.7296
14765TIP3    H165710   2.074   4.098   1.224  2.8491  2.0807  0.0595
14765TIP3    H265711   2.085   4.036   1.086 -1.0317 -1.1450  1.0134
14766TIP3   OH265712   6.132   3.152   2.632  0.0985  0.0022 -0.3763
14766TIP3    H165713   6.078   3.213   2.683 -1.3105 -0.8591 -0.7927
14766TIP3    H265714   6.214   3.200   2.618 -1.2874  2.2402 -1.5194
14767TIP3   OH265715   4.414   4.625   3.039 -0.0254 -0.1689  0.1818
14767TIP3    H165716   4.437   4.586   2.954 -1.0548 -0.0938 -0.1498
14767TIP3    H265717   4.370   4.707   3.016  1.9827  1.1584  0.8660
14768TIP3   OH265718   5.231   2.550   5.789 -0.2614 -0.1290  0.5511
14768TIP3    H165719   5.172   2.475   5.784  0.1752 -0.4398 -0.0200
14768TIP3    H265720   5.185   2.613   5.845 -0.3157 -1.1059  1.6349
14769TIP3   OH265721   1.212   3.083  10.682  0.2028  0.1533  0.2215
14769TIP3    H165722   1.301   3.050  10.694  0.3939  1.1145  1.6509
14769TIP3    H265723   1.192   3.065  10.590  1.6438 -0.6103  0.0296
14770TIP3   OH265724   0.458   1.556  13.741 -0.6395 -0.3172 -0.3475
14770TIP3    H165725   0.484   1.549  13.649  0.1049  0.2136 -0.1962
14770TIP3    H265726   0.468   1.649  13.761 -2.9117 -0.0441 -0.3136
14771TIP3   OH265727   2.643   4.786   5.364  0.0778 -0.0182  0.2925
14771TIP3    H165728   2.552   4.797   5.338 -0.1952 -0.3100  1.0745
14771TIP3    H265729   2.649   4.828   5.450  0.7337  0.1941  0.1531
14772TIP3   OH265730   1.713   1.260  14.299 -0.0861  0.7504  1.0051
14772TIP3    H165731   1.654   1.187  14.282  0.2811  0.5856  0.4268
14772TIP3    H265732   1.698   1.321  14.227  0.6750  0.5627  0.6812
14773TIP3   OH265733   6.163   2.048  13.057 -0.5935 -0.0560  0.2862
14773TIP3    H165734   6.174   2.039  12.962 -0.7390 -1.1189  0.3642
14773TIP3    H265735   6.069   2.040  13.070 -0.6125  0.4783  0.4875
14774TIP3   OH265736   2.216   0.953  15.080 -0.0217 -0.1674  0.5791
14774TIP3    H165737   2.193   1.045  15.069  1.0261 -0.0617 -0.9774
14774TIP3    H265738   2.208   0.937  15.174 -0.6731  1.3738  0.8076
14775TIP3   OH265739   6.504   1.065  12.258 -0.2399 -0.1656 -0.2171
14775TIP3    H165740   6.411   1.059  12.235 -0.3211  0.6605 -0.1558
14775TIP3    H265741   6.520   0.989  12.313 -0.8481 -0.3943 -0.3399
14776TIP3   OH265742   6.140   1.483  13.574  0.4653  0.1527 -0.1153
14776TIP3    H165743   6.082   1.559  13.567  1.4932  0.8728 -1.2387
14776TIP3    H265744   6.101   1.418  13.516  0.1567  0.2188  0.0171
14777TIP3   OH265745   5.978   6.030   1.447 -0.0347  0.0071 -0.1040
14777TIP3    H165746   6.063   6.034   1.492  0.0461  0.0173 -0.2577
14777TIP3    H265747   5.998   6.051   1.356 -0.3591  1.0426  0.0568
14778TIP3   OH265748   2.004   3.368  15.136 -0.1670  0.0043  0.0784
14778TIP3    H165749   1.961   3.452  15.150  0.6736  0.4475  0.1092
14778TIP3    H265750   1.933   3.307  15.116 -0.8326  0.6130  0.5435
14779TIP3   OH265751   2.912   3.124   3.683  0.2692  0.0100 -0.2969
14779TIP3    H165752   2.861   3.205   3.685  0.7231  0.3862 -2.4394
14779TIP3    H265753   2.880   3.076   3.607  1.2441 -1.0141 -0.1011
14780TIP3   OH265754   3.968   4.638  14.932  0.0601 -0.2698  0.4301
14780TIP3    H165755   4.047   4.676  14.895  0.6496 -1.8786 -0.0688
14780TIP3    H265756   3.964   4.673  15.021  0.7464  0.6400  0.1228
14781TIP3   OH265757   3.052   4.946   1.677  0.1409 -0.2103 -0.2593
14781TIP3    H165758   3.128   4.889   1.665  0.3325 -0.1075  0.4285
14781TIP3    H265759   3.061   5.013   1.609 -0.2415 -1.1471 -1.2782
14782TIP3   OH265760   3.938   5.958   1.946  0.1126  0.1210 -0.3547
14782TIP3    H165761   3.911   5.971   1.855 -0.5828  1.5833  0.0217
14782TIP3    H265762   3.892   5.879   1.974  2.9531 -2.3984 -2.2102
14783TIP3   OH265763   1.459   4.960   0.357  0.1664  0.4298  0.1505
14783TIP3    H165764   1.379   4.916   0.385  0.6948 -2.1187 -1.9391
14783TIP3    H265765   1.525   4.933   0.420  0.3450 -1.4231 -0.7672
14784TIP3   OH265766   3.925   2.570   5.028  0.4436 -0.5620  0.0635
14784TIP3    H165767   3.963   2.610   5.106 -1.5108 -0.6615  1.1272
14784TIP3    H265768   3.997   2.518   4.990  1.2287 -1.1694  2.2366
14785TIP3   OH265769   0.791   4.728  14.921  0.2291 -0.1354 -0.5009
14785TIP3    H165770   0.741   4.787  14.864  1.2981  1.2363 -0.0675
14785TIP3    H265771   0.817   4.783  14.995  3.0254 -0.5445 -1.0688
14786TIP3   OH265772   5.512   0.439   5.025  0.2110 -0.3331 -0.3471
14786TIP3    H165773   5.505   0.353   5.066 -0.3652  0.0562  0.4049
14786TIP3    H265774   5.519   0.500   5.099 -0.0812  0.3155 -0.8459
14787TIP3   OH265775   0.036   5.078   0.947  0.2392 -0.3211  0.2209
14787TIP3    H165776   0.025   4.986   0.926  0.3964  0.2524 -2.8268
14787TIP3    H265777   0.082   5.115   0.871 -1.7390  2.6802  0.3111
14788TIP3   OH265778   1.650   0.189   4.372 -0.6689 -0.1682 -0.7467
14788TIP3    H165779   1.635   0.265   4.428 -0.3845 -0.3429 -0.4347
14788TIP3    H265780   1.563   0.151   4.360 -0.8381  0.3007 -1.0429
14789TIP3   OH265781   0.657   2.827   4.951 -0.2037  0.4671 -0.7011
14789TIP3    H165782   0.703   2.911   4.948  1.7766 -0.5767 -0.8923
14789TIP3    H265783   0.720   2.766   4.989 -2.1786 -0.6241  0.9823
14790TIP3   OH265784   1.152   5.993   4.524  0.1879  0.2389 -0.3103
14790TIP3    H165785   1.216   6.048   4.478  0.3473  0.0053 -0.3730
14790TIP3    H265786   1.119   6.048   4.594  0.5557  0.3204 -0.1971
14791TIP3   OH265787   3.801   1.850   3.475  0.2327  0.3045 -0.6456
14791TIP3    H165788   3.860   1.905   3.423  1.4507  0.9136  1.3013
14791TIP3    H265789   3.845   1.841   3.560 -2.5174  0.8878  0.9434
14792TIP3   OH265790   4.415   6.123  13.682 -0.7526 -0.1731 -0.2686
14792TIP3    H165791   4.350   6.175  13.634 -1.0353 -0.5680 -0.3218
14792TIP3    H265792   4.438   6.053  13.620 -1.8193 -1.2461  0.4959
14793TIP3   OH265793   2.543   6.595  12.255  0.0496 -0.5315  0.4028
14793TIP3    H165794   2.566   6.504  12.275  0.0536 -0.7880 -0.6997
14793TIP3    H265795   2.623   6.631  12.215 -0.5866 -0.6586 -1.0430
14794TIP3   OH265796   5.199   2.577   0.265 -0.2129 -0.2914 -0.2187
14794TIP3    H165797   5.274   2.605   0.212 -0.3212 -1.9104 -1.3266
14794TIP3    H265798   5.132   2.644   0.250 -0.0295 -0.4056 -1.7133
14795TIP3   OH265799   3.480   1.077   4.916  0.2745  0.3841 -0.9166
14795TIP3    H165800   3.403   1.110   4.870  0.6978  0.3865 -1.6308
14795TIP3    H265801   3.446   1.008   4.973 -0.4454  1.2664 -0.2539
14796TIP3   OH265802   5.753   5.136  13.003  0.0448 -0.3369  0.7372
14796TIP3    H165803   5.809   5.069  13.042 -0.3655 -1.6214 -0.7896
14796TIP3    H265804   5.687   5.086  12.955  0.3812  1.1617 -1.3923
14797TIP3   OH265805   4.827   5.245   5.107 -0.5861 -0.6116 -0.3388
14797TIP3    H165806   4.868   5.332   5.101 -1.9071  0.3169  2.2308
14797TIP3    H265807   4.750   5.251   5.051 -2.0796  0.8904  1.6914
14798TIP3   OH265808   1.981   1.476   5.217 -0.3776  0.2588 -0.3964
14798TIP3    H165809   2.045   1.444   5.281 -0.5734  0.2968 -0.1814
14798TIP3    H265810   1.900   1.429   5.238 -1.2921  2.4333  1.3174
14799TIP3   OH265811   3.224   2.172   4.425  0.3216 -0.0065  0.1159
14799TIP3    H165812   3.309   2.130   4.411  0.5013  0.1070  0.8311
14799TIP3    H265813   3.202   2.152   4.516 -1.7765 -2.4606 -0.8138
14800TIP3   OH265814   1.598   2.190  11.448  0.3319 -0.2066  0.2377
14800TIP3    H165815   1.513   2.148  11.461  0.0521  0.4544  0.5642
14800TIP3    H265816   1.641   2.136  11.381  0.3454 -1.5359  1.2761
14801TIP3   OH265817   4.447   1.306  15.262  0.9305  0.3615  0.4330
14801TIP3    H165818   4.363   1.271  15.291  1.5077 -0.9983  0.5320
14801TIP3    H265819   4.424   1.375  15.200 -0.2610 -0.2639  0.1465
14802TIP3   OH265820   3.925   0.092   5.198 -0.0077 -0.3810  0.4398
14802TIP3    H165821   3.873   0.172   5.210  0.6798  0.0711  0.4330
14802TIP3    H265822   3.893   0.033   5.266 -0.8664 -0.2918  0.1331
14803TIP3   OH265823   3.060   5.829  14.518 -0.2335 -0.0331  0.3812
14803TIP3    H165824   3.152   5.854  14.532  0.3569 -2.5728  1.7382
14803TIP3    H265825   3.061   5.733  14.521 -2.9887 -0.1298  0.7986
14804TIP3   OH265826   6.204   4.372  14.201  0.5551  0.0029 -0.1145
14804TIP3    H165827   6.296   4.360  14.225  0.6793  0.8532 -0.1199
14804TIP3    H265828   6.168   4.429  14.269  0.2810  0.4333 -0.6044
14805TIP3   OH265829   1.607   3.681   0.249  0.0114  0.0698  0.5322
14805TIP3    H165830   1.678   3.743   0.268  1.1135 -1.2827  0.9779
14805TIP3    H265831   1.597   3.631   0.330 -0.7241 -0.4684  0.1147
14806TIP3   OH265832   0.362   4.898  11.151 -0.2090  0.3059 -0.0310
14806TIP3    H165833   0.303   4.900  11.076 -0.5869 -0.6635  0.2235
14806TIP3    H265834   0.408   4.982  11.148 -2.1938  1.4491  0.2635
14807TIP3   OH265835   6.274   1.003  12.844 -0.1189  0.3530  0.6039
14807TIP3    H165836   6.183   0.996  12.872 -0.0761  0.3625  0.7489
14807TIP3    H265837   6.314   0.920  12.869 -0.3375 -0.0755 -0.4139
14808TIP3   OH265838   5.934   3.366   0.789  0.0582 -0.3006 -0.1595
14808TIP3    H165839   5.907   3.294   0.846  0.0750 -0.5324 -0.4390
14808TIP3    H265840   6.029   3.358   0.783 -0.0124 -0.7878 -0.8736
14809TIP3   OH265841   2.935   4.890   3.890 -0.0053  0.6052 -0.7024
14809TIP3    H165842   2.844   4.858   3.888 -0.6676  2.3428 -0.5491
14809TIP3    H265843   2.935   4.963   3.829  0.7242  1.9891  0.8838
14810TIP3   OH265844   1.143   3.464   0.063  0.2508  0.0113  0.4309
14810TIP3    H165845   1.214   3.400   0.058  0.6645  0.5025 -0.1459
14810TIP3    H265846   1.081   3.426   0.126 -0.7195 -2.1562 -1.6689
14811TIP3   OH265847   5.379   5.187   2.455  0.3555 -0.1370 -0.3655
14811TIP3    H165848   5.431   5.178   2.534 -0.8161 -2.1957  0.2591
14811TIP3    H265849   5.442   5.184   2.384  1.1870 -2.1492  0.3832
14812TIP3   OH265850   1.452   2.091   1.894 -0.1528  0.6355 -0.2342
14812TIP3    H165851   1.389   2.065   1.826 -0.7124  0.0710  0.4723
14812TIP3    H265852   1.534   2.052   1.867 -0.9709 -2.0293  0.8005
14813TIP3   OH265853   2.501   2.406  15.938 -0.2159  0.1187 -0.2097
14813TIP3    H165854   2.532   2.480  15.886 -0.1073  1.2087  1.3292
14813TIP3    H265855   2.407   2.401  15.920 -0.1069  0.2201 -0.8104
14814TIP3   OH265856   1.821   0.243   5.522  0.3351 -0.0780 -0.3430
14814TIP3    H165857   1.739   0.252   5.571 -0.4901  1.1630 -1.8798
14814TIP3    H265858   1.808   0.295   5.443  2.2878 -0.5872 -1.0559
14815TIP3   OH265859   3.824   1.336   1.511  0.0964 -0.1184 -0.5179
14815TIP3    H165860   3.824   1.407   1.575  1.0211 -0.0516 -0.5837
14815TIP3    H265861   3.817   1.256   1.563 -1.5219  0.0177 -0.4710
14816TIP3   OH265862   1.767   1.134   0.954 -0.6179 -0.3646 -0.2882
14816TIP3    H165863   1.819   1.076   1.010 -2.2951 -0.9261  0.7928
14816TIP3    H265864   1.813   1.135   0.871  0.1514 -2.2593  0.0649
14817TIP3   OH265865   2.925   6.268  13.754 -0.0249 -0.4100  0.4564
14817TIP3    H165866   2.910   6.339  13.691  0.3212 -0.3482  0.4421
14817TIP3    H265867   2.849   6.211  13.745 -0.5994  0.2761  0.9003
14818TIP3   OH265868   0.605   6.034   0.672  0.3253 -0.6508  0.4904
14818TIP3    H165869   0.588   6.076   0.588 -0.4252  0.0180  0.9611
14818TIP3    H265870   0.519   6.012   0.707  0.6222 -0.9058  1.0978
14819TIP3   OH265871   2.725   1.324   1.859  0.0045 -0.2732  0.6097
14819TIP3    H165872   2.690   1.397   1.807  1.1792  1.4043  2.0648
14819TIP3    H265873   2.672   1.324   1.939  1.4235  0.4512  1.5852
14820TIP3   OH265874   6.704   6.270   2.361 -0.0092 -0.1460  0.2121
14820TIP3    H165875   6.761   6.221   2.301 -0.5900 -1.3290  0.5898
14820TIP3    H265876   6.713   6.361   2.334  1.8211 -0.3377  0.0693
14821TIP3   OH265877   2.320   2.485   4.202 -0.6006 -0.0495  0.0083
14821TIP3    H165878   2.368   2.527   4.273 -0.3474  1.3216 -0.9244
14821TIP3    H265879   2.381   2.486   4.128 -0.6444 -1.9937 -0.0926
14822TIP3   OH265880   4.721   3.015  11.802  0.3871 -0.5197  0.1669
14822TIP3    H165881   4.751   3.068  11.876 -1.6104  0.0246  0.6464
14822TIP3    H265882   4.703   3.078  11.733 -1.2236 -0.6300  0.4624
14823TIP3   OH265883   6.184   5.328  14.589  0.2492 -0.5461 -0.1593
14823TIP3    H165884   6.220   5.307  14.675  1.2011  1.2470 -0.0740
14823TIP3    H265885   6.218   5.259  14.531  0.0539 -1.4451  0.7619
14824TIP3   OH265886   1.842   2.412  14.039  0.3332  0.5206  0.5237
14824TIP3    H165887   1.771   2.395  13.977 -0.1083 -1.3813  1.4809
14824TIP3    H265888   1.821   2.498  14.076 -2.1076 -0.4227  1.5368
14825TIP3   OH265889   6.798   4.898  12.385 -0.6305  0.2602  0.3889
14825TIP3    H165890   6.702   4.896  12.379 -0.5598 -1.1389 -1.0872
14825TIP3    H265891   6.827   4.839  12.316  1.3241  0.8162  0.6793
14826TIP3   OH265892   3.560   1.047  16.616  0.2267 -0.3265  0.3894
14826TIP3    H165893   3.646   1.072  16.582 -0.7518  1.0747 -1.2256
14826TIP3    H265894   3.568   1.058  16.711  2.2207 -1.6469  0.4562
14827TIP3   OH265895   3.082   6.792   3.081  0.0760  0.0170  0.2155
14827TIP3    H165896   3.134   6.872   3.074 -2.0522  1.3660 -1.6634
14827TIP3    H265897   3.014   6.812   3.146 -0.4745 -0.2377 -0.2685
14828TIP3   OH265898   3.620   4.919   4.711 -0.2937 -0.3346 -0.0576
14828TIP3    H165899   3.630   4.824   4.723  1.2133 -0.5897 -2.5439
14828TIP3    H265900   3.702   4.956   4.746 -0.3774 -0.0712 -0.1388
14829TIP3   OH265901   6.640   3.441  13.683 -0.3681  0.7842 -0.8423
14829TIP3    H165902   6.698   3.442  13.607 -0.0886 -2.0442 -0.7720
14829TIP3    H265903   6.685   3.495  13.748  1.9015 -0.7069 -1.0525
14830TIP3   OH265904   0.814   6.185   3.107 -0.1346 -0.1011  0.0847
14830TIP3    H165905   0.764   6.180   3.189  0.0948 -0.1470  0.2213
14830TIP3    H265906   0.766   6.248   3.054 -1.3442 -1.4434 -0.4797
14831TIP3   OH265907   0.837   4.436  13.718  0.0504  0.1330  0.3221
14831TIP3    H165908   0.842   4.527  13.688 -1.9431  0.6052  1.2964
14831TIP3    H265909   0.903   4.430  13.787  0.9974  0.4920 -0.5296
14832TIP3   OH265910   6.395   2.473  15.127  0.0284 -0.6814  0.1559
14832TIP3    H165911   6.433   2.555  15.094  0.2024 -0.5571  0.6526
14832TIP3    H265912   6.462   2.407  15.110  0.0448 -0.6505  0.1004
14833TIP3   OH265913   0.906   5.288  11.505 -0.1009 -0.4018 -0.2659
14833TIP3    H165914   0.847   5.255  11.438  0.8813 -2.4687 -0.1841
14833TIP3    H265915   0.993   5.286  11.465  0.1174  1.5115 -0.0032
14834TIP3   OH265916   2.748   4.631  13.969 -0.1493 -0.7163 -0.1803
14834TIP3    H165917   2.729   4.666  14.056  0.2605  1.5247 -0.9396
14834TIP3    H265918   2.672   4.577  13.948 -0.3521 -1.1132  1.4531
14835TIP3   OH265919   0.583   5.102  13.262 -0.0223  0.4769 -0.2583
14835TIP3    H165920   0.569   5.016  13.221 -1.0829  0.8101 -0.6423
14835TIP3    H265921   0.661   5.136  13.221  0.2526 -0.1882 -0.3029
14836TIP3   OH265922   5.969   1.171   2.965 -0.4900 -0.1075 -0.1553
14836TIP3    H165923   5.885   1.196   3.002 -0.5964  1.1654 -1.2017
14836TIP3    H265924   5.959   1.078   2.944 -1.5534 -0.0216 -0.0754
14837TIP3   OH265925   4.381   0.118  13.247  0.0235 -0.3319  0.6803
14837TIP3    H165926   4.435   0.198  13.249 -1.3867  0.6635  0.7412
14837TIP3    H265927   4.404   0.071  13.326  0.5713  0.2512  0.8771
14838TIP3   OH265928   0.416   1.336   5.398 -0.3148  0.2093  0.0820
14838TIP3    H165929   0.381   1.253   5.431  0.0240  0.7608  1.8897
14838TIP3    H265930   0.504   1.314   5.366 -0.8257 -0.4204 -0.9607
14839TIP3   OH265931   4.071   3.988  16.173  0.4144  0.1388 -0.1431
14839TIP3    H165932   4.073   3.952  16.262 -0.6310  0.6862  0.1229
14839TIP3    H265933   3.978   3.992  16.151  0.6033  1.0371 -0.8321
14840TIP3   OH265934   2.871   0.940  16.040 -0.4488 -0.7137  0.1900
14840TIP3    H165935   2.775   0.947  16.038 -0.4391  0.0191  1.5511
14840TIP3    H265936   2.895   0.917  15.950 -1.7198  1.5593 -0.8107
14841TIP3   OH265937   6.287   1.680  13.906 -0.0662 -0.4619  0.1674
14841TIP3    H165938   6.193   1.693  13.895 -0.2386  1.0573  2.6734
14841TIP3    H265939   6.298   1.586  13.914 -1.2893 -0.6948 -0.7664
14842TIP3   OH265940   3.052   2.420   3.685  0.2535 -0.1510  0.0940
14842TIP3    H165941   3.103   2.361   3.740  0.9642 -0.0690 -0.4607
14842TIP3    H265942   3.095   2.505   3.696 -0.1926  0.0699  0.1581
14843TIP3   OH265943   0.688   5.111   0.995  0.1272  0.3651 -0.0317
14843TIP3    H165944   0.759   5.143   1.050 -0.3613  0.2813  0.6662
14843TIP3    H265945   0.721   5.119   0.906  1.3411 -0.4746  0.3152
14844TIP3   OH265946   5.764   6.518   2.489  0.3274  0.2971 -0.2690
14844TIP3    H165947   5.712   6.490   2.564  1.3283  0.3106  0.4628
14844TIP3    H265948   5.854   6.514   2.520  0.6844  1.5266 -1.0690
14845TIP3   OH265949   0.416   0.767   2.332 -0.0348  0.1045  0.1191
14845TIP3    H165950   0.440   0.815   2.252  1.0667 -0.4533  0.0935
14845TIP3    H265951   0.331   0.804   2.358 -0.1399  0.6816 -0.9933
14846TIP3   OH265952   2.089   6.544   1.282  0.2247  0.5313 -0.3523
14846TIP3    H165953   2.128   6.608   1.222  0.5966  0.3785 -0.2736
14846TIP3    H265954   2.154   6.474   1.289 -0.8551 -0.6860 -1.7568
14847TIP3   OH265955   2.648   3.891  12.771  0.4599 -0.3086  0.4158
14847TIP3    H165956   2.625   3.802  12.795  0.0757  0.1908  2.0551
14847TIP3    H265957   2.566   3.940  12.777  1.1095  0.6800  2.3272
14848TIP3   OH265958   4.935   2.866  13.942  0.1248 -0.1454  0.2052
14848TIP3    H165959   4.899   2.940  13.990  0.6207  0.5183 -0.4224
14848TIP3    H265960   4.892   2.870  13.856  0.1622 -0.5832  0.1621
14849TIP3   OH265961   6.818   3.392  15.871  0.3690 -0.1515  0.0237
14849TIP3    H165962   6.866   3.324  15.919 -1.2541 -1.9034 -0.7481
14849TIP3    H265963   6.878   3.418  15.801  1.4128  0.0041  0.9295
14850TIP3   OH265964   1.259   1.257  15.626  0.1255  0.6384  0.8565
14850TIP3    H165965   1.219   1.232  15.710 -1.3406  1.2189  0.3700
14850TIP3    H265966   1.220   1.343  15.606  1.9693  1.4506  0.5313
14851TIP3   OH265967   5.560   4.043   4.604  0.5157  0.0206  0.0192
14851TIP3    H165968   5.559   4.103   4.530  1.9600 -2.9973 -2.6713
14851TIP3    H265969   5.639   4.065   4.653 -0.9730  2.7075  1.4671
14852TIP3   OH265970   5.620   3.953  16.919 -0.3640 -0.0265  0.0525
14852TIP3    H165971   5.693   3.913  16.965 -0.1524 -1.2054 -1.2405
14852TIP3    H265972   5.559   3.978  16.988  1.4417  1.4448  1.2089
14853TIP3   OH265973   5.448   3.435  16.942 -0.7705  0.1509  0.2535
14853TIP3    H165974   5.539   3.462  16.952 -1.4088  1.9857  1.6949
14853TIP3    H265975   5.450   3.371  16.870  1.7352 -0.4881  0.7823
14854TIP3   OH265976   0.036   2.320  14.448 -0.1934  0.5467  0.2154
14854TIP3    H165977   0.056   2.363  14.531  0.9270 -0.2914  0.4044
14854TIP3    H265978  -0.055   2.292  14.457  0.3958 -1.0675  1.8881
14855TIP3   OH265979   4.081   1.460  11.103  0.2125 -0.5289 -0.1557
14855TIP3    H165980   4.108   1.369  11.108  2.6647  0.0745 -0.9686
14855TIP3    H265981   4.084   1.480  11.009 -2.1420 -0.0817 -0.1882
14856TIP3   OH265982   5.691   1.196   2.216 -0.2096 -0.3892  0.2489
14856TIP3    H165983   5.709   1.214   2.124 -0.5989 -2.4677 -0.2653
14856TIP3    H265984   5.616   1.252   2.237 -0.3105 -0.1261 -0.7734
14857TIP3   OH265985   2.507   5.546   1.691  0.8726  0.0978  0.0022
14857TIP3    H165986   2.462   5.498   1.621  0.0554  0.7751  0.0392
14857TIP3    H265987   2.597   5.553   1.662  0.5811  0.2161 -0.9016
14858TIP3   OH265988   2.929   6.051   0.533  0.3496 -0.0545  0.8024
14858TIP3    H165989   2.886   6.137   0.540 -1.9492 -1.2645  3.1664
14858TIP3    H265990   2.958   6.032   0.622  0.4069 -1.9476  0.4080
14859TIP3   OH265991   4.501   3.150  15.633  0.0833  1.0235  0.4135
14859TIP3    H165992   4.577   3.192  15.592  0.8172  2.0702  2.6866
14859TIP3    H265993   4.435   3.219  15.638 -0.6833  0.3983 -0.5993
14860TIP3   OH265994   1.937   1.254  11.152  0.2405  0.2392  0.0837
14860TIP3    H165995   2.032   1.262  11.162  0.1494  0.0932  1.1594
14860TIP3    H265996   1.902   1.276  11.239 -0.6562 -0.6031 -0.0494
14861TIP3   OH265997   5.552   5.555   4.660 -0.0667  0.3730  0.0158
14861TIP3    H165998   5.584   5.514   4.580  2.7802 -0.9195  1.6685
14861TIP3    H265999   5.572   5.492   4.729 -0.9994  2.0972  1.9564
14862TIP3   OH266000   1.269   1.523   2.435 -0.0739 -0.3458 -0.0477
14862TIP3    H166001   1.351   1.538   2.483 -0.5533  1.6543  0.2521
14862TIP3    H266002   1.271   1.588   2.364 -1.4584 -0.1456  0.0656
14863TIP3   OH266003   1.762   2.658  14.761 -0.4935 -0.0836 -0.4808
14863TIP3    H166004   1.780   2.608  14.841 -0.3683 -0.0653 -0.4968
14863TIP3    H266005   1.824   2.731  14.764 -2.0691  1.2616  0.5773
14864TIP3   OH266006   0.082   4.233  15.098 -0.1780  0.0914  0.4508
14864TIP3    H166007  -0.003   4.211  15.134  0.0815 -0.5810  0.6742
14864TIP3    H266008   0.130   4.273  15.171  0.9532 -2.8041  1.4831
14865TIP3   OH266009   0.759   5.841  12.071  0.6971 -0.5078  0.1238
14865TIP3    H166010   0.849   5.829  12.040  1.3739  1.1381  1.3161
14865TIP3    H266011   0.754   5.790  12.151 -0.1626 -2.4029 -1.0720
14866TIP3   OH266012   6.279   4.435  13.376  0.0092  0.4555  0.1494
14866TIP3    H166013   6.304   4.526  13.363 -1.4851  0.6052 -2.5164
14866TIP3    H266014   6.217   4.436  13.449 -1.8050  2.0070 -1.3221
14867TIP3   OH266015   3.552   6.158   5.259  1.0771  0.0141 -0.4673
14867TIP3    H166016   3.491   6.217   5.304  0.6839 -0.6157 -0.1492
14867TIP3    H266017   3.559   6.193   5.171  0.0653 -0.0250 -0.5769
14868TIP3   OH266018   5.036   4.657   4.548 -0.2606 -0.5979  0.5891
14868TIP3    H166019   5.011   4.618   4.632  1.8635 -2.1545  0.5817
14868TIP3    H266020   5.044   4.751   4.567 -0.6823 -0.8063  1.8944
14869TIP3   OH266021   3.789   4.209   1.138 -0.2633 -0.1987  0.3479
14869TIP3    H166022   3.815   4.220   1.047 -2.0141  1.1434 -0.0473
14869TIP3    H266023   3.756   4.119   1.143 -0.5808 -0.1378 -0.4813
14870TIP3   OH266024   4.129   5.732   3.894 -0.3405 -0.4765 -0.0288
14870TIP3    H166025   4.037   5.757   3.878  0.2742  1.7211 -0.4886
14870TIP3    H266026   4.146   5.664   3.830 -1.5502 -0.6667 -0.1857
14871TIP3   OH266027   6.589   4.616   0.612 -0.0716 -0.2778 -0.4286
14871TIP3    H166028   6.676   4.653   0.598 -1.1159  1.7970 -1.9442
14871TIP3    H266029   6.545   4.623   0.527 -2.3850  0.6402  0.7599
14872TIP3   OH266030   3.008   5.176  12.962  0.1704  0.3795 -0.3197
14872TIP3    H166031   3.055   5.248  13.005 -0.9910  1.0879 -0.2041
14872TIP3    H266032   2.971   5.125  13.034  1.4653 -0.7011 -0.3755
14873TIP3   OH266033   0.428   2.994  12.788 -0.6762 -0.1508 -0.2251
14873TIP3    H166034   0.406   2.928  12.722  0.7905  0.2308 -1.1344
14873TIP3    H266035   0.392   3.076  12.754 -2.9870 -0.4764  1.1628
14874TIP3   OH266036   0.524   2.318  15.648 -0.4151 -0.0430  0.0181
14874TIP3    H166037   0.543   2.274  15.565 -0.5275  0.4820 -0.2906
14874TIP3    H266038   0.488   2.250  15.704  1.0318 -0.7565  0.1414
14875TIP3   OH266039   1.819   3.833   0.674  0.7362  0.0840  0.1897
14875TIP3    H166040   1.744   3.855   0.729  0.0997  0.0969 -0.6658
14875TIP3    H266041   1.854   3.752   0.713  0.8213  0.5472  1.1108
14876TIP3   OH266042   4.390   1.865  13.555  0.1636  0.4828  0.4487
14876TIP3    H166043   4.413   1.817  13.634  0.6394 -0.9585 -0.5212
14876TIP3    H266044   4.473   1.874  13.507 -0.1286  1.2574  0.0629
14877TIP3   OH266045   3.935   3.867   0.775  0.0027 -0.3132 -0.0259
14877TIP3    H166046   4.019   3.909   0.758  0.2784 -0.8667 -0.0310
14877TIP3    H266047   3.953   3.801   0.843 -0.0020 -1.8289 -1.4384
14878TIP3   OH266048   3.121   1.222  11.561  0.3285 -0.2573 -0.1221
14878TIP3    H166049   3.078   1.307  11.557 -0.2101 -0.5504 -0.8436
14878TIP3    H266050   3.212   1.239  11.535 -0.0840 -0.0930 -1.5229
14879TIP3   OH266051   0.340   3.196  15.740 -0.1765  0.1688 -0.5329
14879TIP3    H166052   0.331   3.115  15.690 -1.3732 -0.7251  1.0411
14879TIP3    H266053   0.301   3.263  15.684  0.1546 -0.4650 -1.5463
14880TIP3   OH266054   3.847   0.133  11.740  0.8289  0.3720 -0.6501
14880TIP3    H166055   3.910   0.061  11.741 -0.2389 -0.5887 -0.3147
14880TIP3    H266056   3.786   0.112  11.811 -1.1910  0.0343 -2.3771
14881TIP3   OH266057   5.230   2.531   3.602 -0.6742 -0.3096  0.1093
14881TIP3    H166058   5.257   2.474   3.674  1.6750  2.4131  1.5968
14881TIP3    H266059   5.305   2.590   3.589 -1.1017 -0.3820 -4.3836
14882TIP3   OH266060   1.506   1.791  15.555 -0.2281  0.8520  0.1048
14882TIP3    H166061   1.533   1.874  15.515  0.4540  1.6697  2.1699
14882TIP3    H266062   1.548   1.790  15.641 -1.4494 -0.9486  0.7404
14883TIP3   OH266063   2.625   3.169  12.718  0.2534  0.3825  0.0647
14883TIP3    H166064   2.587   3.103  12.660 -0.0745  1.1726 -0.6357
14883TIP3    H266065   2.699   3.204  12.669  0.6563  0.2848  0.5882
14884TIP3   OH266066   1.470   5.409  14.950  0.4764 -0.1924 -0.0261
14884TIP3    H166067   1.502   5.407  15.040 -0.1616  2.1530  0.3283
14884TIP3    H266068   1.490   5.322  14.915  2.1598 -0.6478  1.8716
14885TIP3   OH266069   5.693   4.052   0.552  0.0962  0.0984 -0.0125
14885TIP3    H166070   5.634   4.029   0.624  0.1123 -2.2645 -0.6696
14885TIP3    H266071   5.636   4.059   0.475  0.4975 -1.2517 -0.4657
14886TIP3   OH266072   4.007   2.332  13.003  0.0547  0.5223  0.2711
14886TIP3    H166073   4.083   2.323  13.061 -0.3232  2.1423  1.0809
14886TIP3    H266074   4.036   2.395  12.936 -0.5312  1.1130  0.5592
14887TIP3   OH266075   2.651   2.705   4.802 -0.0349 -0.2898  0.1209
14887TIP3    H166076   2.661   2.708   4.707 -0.5268  1.6689  0.0844
14887TIP3    H266077   2.567   2.748   4.819  0.2631 -0.1817  1.4633
14888TIP3   OH266078   0.187   0.709  12.469 -0.3100 -0.4340  0.3426
14888TIP3    H166079   0.145   0.794  12.466  2.0962  0.8244 -1.8982
14888TIP3    H266080   0.263   0.717  12.411  0.1740 -4.0441  0.2000
14889TIP3   OH266081   5.581   2.476  16.925 -0.2016 -0.0012 -0.4551
14889TIP3    H166082   5.650   2.410  16.923  0.6046  0.8323 -0.7552
14889TIP3    H266083   5.627   2.560  16.929 -1.2043  0.5437  0.5123
14890TIP3   OH266084   2.224   6.688   3.285  0.1518  0.5305  0.2076
14890TIP3    H166085   2.265   6.673   3.370 -1.2728 -1.2505  0.6426
14890TIP3    H266086   2.295   6.677   3.221  0.6411 -1.2744  1.0001
14891TIP3   OH266087   2.771   2.991   1.807 -0.3807  0.6188 -0.0860
14891TIP3    H166088   2.854   2.983   1.760 -0.6279 -1.8423 -0.2215
14891TIP3    H266089   2.797   3.000   1.899  0.0280  0.7114 -0.2063
14892TIP3   OH266090   6.349   2.148   3.672  0.1133 -0.5442  0.5446
14892TIP3    H166091   6.283   2.214   3.650  1.2762  0.7152  0.6782
14892TIP3    H266092   6.410   2.194   3.730  0.7351 -1.8791  0.9924
14893TIP3   OH266093   2.525   3.005  12.471  0.0253 -0.3022 -0.2072
14893TIP3    H166094   2.485   2.941  12.413  0.6482  0.3748 -1.4100
14893TIP3    H266095   2.601   2.960  12.508 -1.0814 -1.1715  1.1388
14894TIP3   OH266096   3.214   6.685  14.863  1.2535  0.0087  0.5039
14894TIP3    H166097   3.263   6.641  14.932  1.1678  0.0622  0.5989
14894TIP3    H266098   3.178   6.764  14.905  0.3184 -0.4970  0.6783
14895TIP3   OH266099   0.195   4.850  13.139 -0.0400  0.1256 -0.0047
14895TIP3    H166100   0.166   4.854  13.230  0.7085  2.3141  0.2013
14895TIP3    H266101   0.115   4.840  13.088 -0.3757 -2.4179  0.8933
14896TIP3   OH266102   2.172   0.116  13.658  0.2459  0.1663  0.3274
14896TIP3    H166103   2.123   0.101  13.577  0.3796  1.9797 -0.1338
14896TIP3    H266104   2.252   0.160  13.630  1.3539 -1.1701  1.2554
14897TIP3   OH266105   0.169   4.444   5.294  0.7520 -0.3566 -0.3873
14897TIP3    H166106   0.086   4.431   5.340  0.6016 -1.5311 -0.9688
14897TIP3    H266107   0.236   4.416   5.357  0.5592 -1.7246 -0.7629
14898TIP3   OH266108   2.868   4.120   1.814 -0.2284  0.5299 -0.1781
14898TIP3    H166109   2.807   4.194   1.811  0.7007  1.4479  1.7653
14898TIP3    H266110   2.819   4.051   1.858 -0.3796  0.7444 -0.0045
14899TIP3   OH266111   6.048   5.161  16.825 -0.3674  0.1296  0.3596
14899TIP3    H166112   6.059   5.182  16.918 -0.1382  0.0608  0.3476
14899TIP3    H266113   5.959   5.126  16.819 -1.0022  1.6699  0.2798
14900TIP3   OH266114   4.648   3.788  14.352 -0.3064 -0.2017 -0.1386
14900TIP3    H166115   4.734   3.751  14.372 -1.0581 -0.0378  4.3417
14900TIP3    H266116   4.591   3.713  14.339  0.4278 -0.3315 -4.0310
14901TIP3   OH266117   3.673   1.979   2.486 -0.3266 -0.3470  0.1290
14901TIP3    H166118   3.581   1.959   2.503 -0.5559 -1.5733 -2.1454
14901TIP3    H266119   3.721   1.919   2.543 -0.9337 -0.4128  0.5864
14902TIP3   OH266120   2.822   6.038  14.956 -0.0533 -0.2599 -0.3022
14902TIP3    H166121   2.851   6.121  14.992 -0.4772 -0.1901 -0.1103
14902TIP3    H266122   2.893   6.010  14.898 -0.0589  0.4020 -0.6309
14903TIP3   OH266123   2.707   6.222   1.181  0.4085 -0.0340 -0.2280
14903TIP3    H166124   2.636   6.200   1.241  0.7141 -1.3509 -0.3101
14903TIP3    H266125   2.787   6.195   1.227  0.7034 -0.3207 -0.8899
14904TIP3   OH266126   1.608   3.352   4.782  0.3354  0.2909  0.3585
14904TIP3    H166127   1.672   3.383   4.845  0.9933  0.5633 -0.4295
14904TIP3    H266128   1.644   3.377   4.697  0.7077 -2.2831 -0.3086
14905TIP3   OH266129   0.079   3.801   0.860 -0.2157  0.3952  0.4242
14905TIP3    H166130   0.096   3.707   0.867 -0.6043  0.2414 -0.5019
14905TIP3    H266131   0.164   3.842   0.875  0.1762 -0.1615 -0.2173
14906TIP3   OH266132   2.702   6.485   2.844  0.3770 -0.2750  0.4545
14906TIP3    H166133   2.638   6.555   2.840  2.6971  1.9897  0.0748
14906TIP3    H266134   2.782   6.528   2.875  1.2673 -3.3149  2.9332
14907TIP3   OH266135   3.652   0.958  11.538 -0.4125 -0.1304 -0.5146
14907TIP3    H166136   3.646   0.868  11.505  0.0199 -0.5048  0.3883
14907TIP3    H266137   3.617   0.953  11.627 -0.0183  0.5166 -0.3152
14908TIP3   OH266138   0.218   2.707   3.548 -0.3305 -0.0402 -0.6094
14908TIP3    H166139   0.308   2.729   3.524 -0.0230  1.3544  1.4996
14908TIP3    H266140   0.165   2.774   3.504 -0.1799 -0.0150 -0.7516
14909TIP3   OH266141   2.956   0.149   2.193 -0.3876 -0.0899 -0.5911
14909TIP3    H166142   3.018   0.153   2.266  0.6408 -1.2233 -1.3649
14909TIP3    H266143   2.991   0.211   2.128 -1.2263  0.8146 -0.2109
14910TIP3   OH266144   4.566   3.620   1.531  0.1726 -0.3667  0.3944
14910TIP3    H166145   4.493   3.659   1.482 -0.4653 -2.2023 -0.1928
14910TIP3    H266146   4.644   3.644   1.481  0.3908  3.4963  2.1607
14911TIP3   OH266147   1.222   6.069  16.513 -0.3388 -0.8132  0.1755
14911TIP3    H166148   1.257   6.076  16.602 -0.4526  1.1398  0.1043
14911TIP3    H266149   1.130   6.047  16.525 -0.7097  0.8433  0.6303
14912TIP3   OH266150   2.908   5.178   0.649 -0.0106 -0.1301 -0.1923
14912TIP3    H166151   2.854   5.230   0.710 -1.4434  0.5595 -1.9508
14912TIP3    H266152   2.988   5.228   0.639 -0.1681  0.2454  0.3736
14913TIP3   OH266153   4.037   6.052  16.561  0.0045 -0.0473 -0.1275
14913TIP3    H166154   4.080   6.105  16.494 -0.6384  3.1524  1.7427
14913TIP3    H266155   4.095   6.060  16.637 -2.6917  2.7611  1.8538
14914TIP3   OH266156   0.784   0.163   6.003 -0.6662  1.1337 -0.4461
14914TIP3    H166157   0.732   0.083   5.995  0.5695  0.2602 -0.0632
14914TIP3    H266158   0.868   0.134   6.039  0.0051  2.5321 -0.7988
14915TIP3   OH266159   2.025   4.522  13.299 -0.3022 -0.0811 -0.0748
14915TIP3    H166160   1.966   4.594  13.325 -0.3431  0.7285 -2.1749
14915TIP3    H266161   1.976   4.475  13.232  0.4468 -0.9858  0.0020
14916TIP3   OH266162   4.622   4.615   1.976 -0.1426 -0.3398 -0.1399
14916TIP3    H166163   4.644   4.523   1.986 -1.4457 -0.7397 -0.7605
14916TIP3    H266164   4.649   4.638   1.887  1.4832  0.2919  0.4728
14917TIP3   OH266165   2.235   4.458  16.848 -0.1923 -0.1935 -0.9154
14917TIP3    H166166   2.176   4.384  16.835  0.7283 -0.7094 -2.3862
14917TIP3    H266167   2.227   4.478  16.941 -1.4152 -1.3096 -0.7389
14918TIP3   OH266168   5.880   4.709   4.216  0.1761  0.1383  0.0656
14918TIP3    H166169   5.883   4.619   4.247 -0.4072  0.2108  0.3428
14918TIP3    H266170   5.954   4.752   4.259 -0.3058  0.1046  0.9383
14919TIP3   OH266171   5.630   6.332  15.412  0.1282 -0.3099 -0.1032
14919TIP3    H166172   5.689   6.364  15.480  1.6041 -2.5211 -0.2332
14919TIP3    H266173   5.671   6.251  15.381 -0.8644  0.2312 -3.1401
14920TIP3   OH266174   0.412   0.129   4.127  0.0023  0.0604  0.1854
14920TIP3    H166175   0.409   0.207   4.071 -2.0491 -0.9485 -1.2309
14920TIP3    H266176   0.338   0.141   4.187 -0.5348 -0.8994 -0.2592
14921TIP3   OH266177   5.735   2.492   5.283 -0.2224 -0.5402  0.1223
14921TIP3    H166178   5.747   2.586   5.270 -1.3917 -0.1753  1.4231
14921TIP3    H266179   5.640   2.479   5.284 -0.0851 -1.6584  0.4556
14922TIP3   OH266180   4.943   4.696  15.188 -0.2785 -0.7261  0.1369
14922TIP3    H166181   4.900   4.670  15.106 -0.6154 -0.7880  0.3323
14922TIP3    H266182   4.894   4.651  15.256  0.9676 -1.9312  0.2812
14923TIP3   OH266183   2.984   0.988   2.538  0.2077  0.5205  0.2529
14923TIP3    H166184   2.970   1.082   2.526 -0.9569  0.2427 -0.7430
14923TIP3    H266185   2.941   0.967   2.620 -2.6774  0.2620 -1.2223
14924TIP3   OH266186   6.334   6.149   5.538 -0.2980 -0.5085  0.1456
14924TIP3    H166187   6.266   6.172   5.474  1.5971  1.2470 -1.4385
14924TIP3    H266188   6.340   6.054   5.534 -0.1386 -0.4646 -2.5278
14925TIP3   OH266189   2.585   1.394   1.093 -0.4934  0.1931 -0.9804
14925TIP3    H166190   2.589   1.394   0.997 -0.9495  0.5775 -0.9999
14925TIP3    H266191   2.612   1.483   1.118 -0.0711 -0.0002 -0.7374
14926TIP3   OH266192   2.839   2.791   0.598 -0.2630 -0.7745  0.1306
14926TIP3    H166193   2.757   2.803   0.644 -0.1349 -1.6890  0.6118
14926TIP3    H266194   2.818   2.733   0.525 -0.7016  1.5013 -1.6834
14927TIP3   OH266195   2.366   4.208  16.726  0.1295  0.6820  0.0099
14927TIP3    H166196   2.314   4.253  16.659 -0.9699 -1.3371 -0.5738
14927TIP3    H266197   2.429   4.275  16.756 -1.8754  2.8058 -0.2267
14928TIP3   OH266198   0.446   0.556  11.479 -0.3172 -0.0371  0.6189
14928TIP3    H166199   0.357   0.525  11.462 -0.3280  1.6398 -3.8346
14928TIP3    H266200   0.435   0.638  11.526 -1.0280 -0.4744  1.2269
14929TIP3   OH266201   0.075   0.940   0.099 -0.2130  0.1068  0.3626
14929TIP3    H166202   0.023   0.872   0.057 -0.1214 -0.5347  1.2546
14929TIP3    H266203   0.025   0.962   0.178  0.1208  0.5620  0.4510
14930TIP3   OH266204   2.391   6.374   3.658 -0.8037  0.2458 -0.4402
14930TIP3    H166205   2.394   6.396   3.751 -0.3292  1.6677 -0.7562
14930TIP3    H266206   2.298   6.368   3.638 -0.9151  0.1903  0.0697
14931TIP3   OH266207   2.242   6.597  11.604 -0.3617 -0.2108  0.9374
14931TIP3    H166208   2.185   6.603  11.680 -0.5612  0.1362  0.7636
14931TIP3    H266209   2.318   6.652  11.626 -0.2928 -0.3289  0.9962
14932TIP3   OH266210   3.519   4.574  15.195 -0.7441 -0.0901  0.4661
14932TIP3    H166211   3.473   4.498  15.160  0.3253 -0.7187  0.3789
14932TIP3    H266212   3.599   4.538  15.234  0.4228  1.1221 -0.7084
14933TIP3   OH266213   3.549   1.813  13.845  0.2936  0.5420  0.3435
14933TIP3    H166214   3.474   1.851  13.891 -1.2520 -1.2563 -0.5801
14933TIP3    H266215   3.625   1.849  13.890 -1.1148  0.4614  2.9751
14934TIP3   OH266216   3.635   3.181   3.702  0.0895 -0.1321 -0.1117
14934TIP3    H166217   3.724   3.206   3.724  0.4064 -0.8323 -0.5523
14934TIP3    H266218   3.628   3.195   3.608 -0.8177  1.5379  0.1789
14935TIP3   OH266219   2.524   5.008  15.464 -0.4090  0.4871  0.0379
14935TIP3    H166220   2.605   5.052  15.439 -1.0122  0.6914 -1.6887
14935TIP3    H266221   2.456   5.050  15.411 -1.1954 -1.6525 -0.7445
14936TIP3   OH266222   3.201   4.420   4.930  0.4801 -0.2085 -0.3867
14936TIP3    H166223   3.190   4.502   4.977  0.6914 -2.1070  3.2914
14936TIP3    H266224   3.118   4.374   4.941  1.1658 -1.4699 -0.2697
14937TIP3   OH266225   1.082   4.143   4.695  0.3652 -0.1050 -0.2172
14937TIP3    H166226   1.161   4.093   4.676 -0.5791 -1.2725 -1.2409
14937TIP3    H266227   1.010   4.086   4.667 -0.9679  0.0868  2.5059
14938TIP3   OH266228   4.959   1.761   1.009  0.3952 -0.0076  0.0438
14938TIP3    H166229   5.034   1.764   0.949  0.7613  0.2347  0.5102
14938TIP3    H266230   4.943   1.853   1.032  1.8513 -0.2484  2.2700
14939TIP3   OH266231   6.593   4.309   0.520 -0.0486 -0.5682 -0.0502
14939TIP3    H166232   6.580   4.392   0.566  1.5501  0.0807 -0.6895
14939TIP3    H266233   6.603   4.245   0.591 -1.1248 -0.2030  0.4535
14940TIP3   OH266234   0.812   4.182  15.921 -0.0499 -0.4903 -0.5835
14940TIP3    H166235   0.828   4.088  15.907  0.6104 -0.2784 -1.2556
14940TIP3    H266236   0.723   4.195  15.889 -0.9309 -1.2667  1.3431
14941TIP3   OH266237   1.265   6.410   0.062 -0.3952  0.4027  0.9781
14941TIP3    H166238   1.254   6.348  -0.010  1.8481  1.0250  0.0079
14941TIP3    H266239   1.215   6.487   0.035 -1.9344 -0.3922  1.4792
14942TIP3   OH266240   5.142   1.052   2.276 -0.1028  0.1513 -0.3391
14942TIP3    H166241   5.187   1.068   2.193 -0.8697  0.7245 -0.6585
14942TIP3    H266242   5.201   1.086   2.343 -0.0463  0.8687 -0.7497
14943TIP3   OH266243   3.808   2.019  15.503 -0.6264  0.5080 -0.6902
14943TIP3    H166244   3.715   2.037  15.507 -0.3953  1.5289  1.0959
14943TIP3    H266245   3.819   1.937  15.550 -0.4339  1.3142  0.7009
14944TIP3   OH266246   1.786   2.250  16.174 -0.4507 -0.1492 -0.0386
14944TIP3    H166247   1.844   2.217  16.242  0.7266 -1.0076 -1.4040
14944TIP3    H266248   1.699   2.248  16.214 -0.1700 -2.9841  0.6910
14945TIP3   OH266249   5.441   0.474  15.239  0.1511  0.5328  0.0173
14945TIP3    H166250   5.372   0.540  15.236 -2.1941 -1.4525  3.3770
14945TIP3    H266251   5.494   0.498  15.315 -0.1232 -0.7849  0.6665
14946TIP3   OH266252   4.320   3.657  16.210  0.1634  0.0657 -0.4979
14946TIP3    H166253   4.306   3.751  16.214 -0.0848  0.0270 -0.4461
14946TIP3    H266254   4.364   3.643  16.126  0.5849  0.2718 -0.3148
14947TIP3   OH266255   0.871   3.237   4.331 -0.7242 -0.3783  0.1569
14947TIP3    H166256   0.816   3.301   4.376 -3.0370 -0.5329 -2.1966
14947TIP3    H266257   0.945   3.288   4.298 -2.9656  1.4842 -2.4780
14948TIP3   OH266258   0.387   0.729  15.431  0.3047  0.3371  0.4577
14948TIP3    H166259   0.365   0.790  15.502 -1.0566  0.7828 -0.3034
14948TIP3    H266260   0.418   0.785  15.360 -0.4211  0.1237 -0.0475
14949TIP3   OH266261   0.540   5.432  16.167 -0.1821 -0.3317 -1.0061
14949TIP3    H166262   0.574   5.519  16.189 -2.4629  0.5917 -0.8367
14949TIP3    H266263   0.595   5.372  16.217  1.3373  1.0136 -0.9767
14950TIP3   OH266264   3.704   1.537  10.719  0.3989  0.6622 -0.0239
14950TIP3    H166265   3.791   1.567  10.695  1.0174 -0.0252  1.2495
14950TIP3    H266266   3.665   1.508  10.637  1.1413  1.5252 -0.6973
14951TIP3   OH266267   3.806   2.256   2.723  0.1184 -0.3884  0.2925
14951TIP3    H166268   3.852   2.263   2.640 -1.2710 -0.6022 -0.5228
14951TIP3    H266269   3.719   2.293   2.707 -0.9793 -2.4390  0.9629
14952TIP3   OH266270   2.473   1.837   3.814 -0.0593 -0.2507 -0.2254
14952TIP3    H166271   2.510   1.798   3.894  0.8509  0.1174 -0.4539
14952TIP3    H266272   2.446   1.925   3.841  2.1247  0.6386 -0.7670
14953TIP3   OH266273   6.513   5.323   0.747 -0.5270 -0.0313  0.2430
14953TIP3    H166274   6.502   5.382   0.672  1.9418  0.3857  0.1124
14953TIP3    H266275   6.436   5.338   0.801 -1.5275  0.9297 -1.3697
14954TIP3   OH266276   6.020   1.260   2.053  0.0031 -0.8648 -0.1360
14954TIP3    H166277   6.003   1.239   1.961  0.8543 -1.9785 -0.0616
14954TIP3    H266278   5.974   1.191   2.101 -2.4402  1.0036  0.4241
14955TIP3   OH266279   6.737   1.609  12.602  0.5986 -0.6657  0.4651
14955TIP3    H166280   6.680   1.609  12.679  0.7272 -1.6998  0.5695
14955TIP3    H266281   6.694   1.669  12.540 -0.2633 -0.9356  0.7900
14956TIP3   OH266282   3.179   0.659  14.923  0.2569 -0.4184 -0.5763
14956TIP3    H166283   3.121   0.705  14.861 -0.8342 -0.1789  0.5697
14956TIP3    H266284   3.250   0.721  14.938 -0.4277  0.3022 -0.1928
14957TIP3   OH266285   6.730   6.042   3.882 -0.1963 -0.2607  0.2622
14957TIP3    H166286   6.697   6.101   3.814 -0.3889 -0.8047 -0.1269
14957TIP3    H266287   6.663   6.044   3.950 -0.3658 -0.2911  0.0970
14958TIP3   OH266288   4.122   6.062  12.345  0.4068 -0.0728 -0.0375
14958TIP3    H166289   4.059   6.068  12.416  1.1477  0.9815  0.5530
14958TIP3    H266290   4.088   5.993  12.288 -0.2269 -0.8880  1.2963
14959TIP3   OH266291   6.621   4.275  17.037 -0.6842  0.4049 -0.1370
14959TIP3    H166292   6.709   4.296  17.005 -1.5578  0.9842 -2.2893
14959TIP3    H266293   6.605   4.185  17.008  0.3841 -1.0196  3.1420
14960TIP3   OH266294   6.556   1.654   4.454 -0.4110  0.0630 -0.3050
14960TIP3    H166295   6.498   1.630   4.382  0.3232  0.8523 -1.1905
14960TIP3    H266296   6.592   1.740   4.429  0.3628  0.0538  0.6879
14961TIP3   OH266297   2.464   4.932  16.491 -0.1070  0.4428 -0.4568
14961TIP3    H166298   2.540   4.984  16.517  2.0796 -2.6958  0.1086
14961TIP3    H266299   2.420   4.911  16.574  1.3630 -1.7550 -0.1525
14962TIP3   OH266300   2.211   5.709   1.150  0.6182  0.2083 -0.0503
14962TIP3    H166301   2.220   5.726   1.244  0.1961  0.9799 -0.1472
14962TIP3    H266302   2.209   5.613   1.144 -1.2461  0.1433  0.9271
14963TIP3   OH266303   2.780   5.841   3.878  0.3085 -0.1171 -0.3792
14963TIP3    H166304   2.701   5.877   3.838 -0.4998 -1.1096  0.2666
14963TIP3    H266305   2.768   5.857   3.972  2.6472  3.1296 -0.4948
14964TIP3   OH266306   1.465   1.338   5.111  0.3466 -0.0795  0.0839
14964TIP3    H166307   1.516   1.386   5.045 -0.7206  1.0622  0.0634
14964TIP3    H266308   1.386   1.311   5.065  0.2046 -0.4365  0.5380
14965TIP3   OH266309   5.939   5.697  12.746  0.3085  0.3521 -0.7007
14965TIP3    H166310   5.880   5.772  12.742 -0.9867 -0.6597 -1.1909
14965TIP3    H266311   5.904   5.642  12.815  1.1214  0.0842 -0.4873
14966TIP3   OH266312   2.033   5.009  13.557  0.0358 -0.0096  0.5253
14966TIP3    H166313   2.018   4.988  13.649 -1.9253 -0.5776  0.1256
14966TIP3    H266314   2.040   5.104  13.555 -0.5649  0.0543  1.1915
14967TIP3   OH266315   1.791   4.076  12.768 -0.0218 -0.1074 -0.4182
14967TIP3    H166316   1.828   4.092  12.681 -0.4463 -1.2965 -0.8328
14967TIP3    H266317   1.729   4.148  12.781  0.7901  0.6581 -0.6509
14968TIP3   OH266318   2.877   1.968  16.607 -0.0035 -0.7455  0.1548
14968TIP3    H166319   2.903   1.877  16.624 -0.8205 -1.2350 -1.0718
14968TIP3    H266320   2.879   2.010  16.693  2.7813 -1.2585  0.4420
14969TIP3   OH266321   1.360   0.782  13.396  0.3114  0.0081 -0.2943
14969TIP3    H166322   1.327   0.708  13.447  1.3927 -0.9866 -0.9858
14969TIP3    H266323   1.326   0.768  13.308 -0.1125  0.7769 -0.2650
14970TIP3   OH266324   1.532   1.952  13.382  0.2908  0.3883  0.0056
14970TIP3    H166325   1.453   1.939  13.434  0.6162 -0.1202  0.3813
14970TIP3    H266326   1.500   1.983  13.298 -0.2375  1.4518  0.5749
14971TIP3   OH266327   1.270   1.704  15.777 -0.3538 -0.2543 -0.1457
14971TIP3    H166328   1.220   1.699  15.695 -0.6515  0.5609 -0.0232
14971TIP3    H266329   1.292   1.614  15.797  1.5760 -0.3504 -2.2656
14972TIP3   OH266330   4.541   5.791   4.042  0.4047 -0.5965 -0.2093
14972TIP3    H166331   4.538   5.696   4.050 -0.2054 -0.5806 -0.1754
14972TIP3    H266332   4.499   5.823   4.122  1.1445 -0.2817  0.0671
14973TIP3   OH266333   1.827   6.063   3.487  0.0824  0.5520 -0.5924
14973TIP3    H166334   1.894   5.996   3.474  0.8664  1.0581  0.6616
14973TIP3    H266335   1.867   6.126   3.547 -1.2950  1.1806 -0.2873
14974TIP3   OH266336   4.116   5.981  11.752 -0.1420  0.2603 -0.0996
14974TIP3    H166337   4.160   5.897  11.763  0.0391  0.3375 -0.2228
14974TIP3    H266338   4.112   5.994  11.657 -2.0068 -0.5661 -0.1618
14975TIP3   OH266339   2.974   0.751   0.910  0.3236  0.2386 -0.3044
14975TIP3    H166340   3.022   0.738   0.828 -0.1586  0.5058 -0.6324
14975TIP3    H266341   3.005   0.680   0.967  1.7675  0.9224 -0.1954
14976TIP3   OH266342   2.657   3.342  13.819  0.3588  0.3423 -0.9123
14976TIP3    H166343   2.699   3.287  13.753  1.0366  0.5925 -0.6964
14976TIP3    H266344   2.579   3.376  13.775  0.6827  0.3321 -1.5129
14977TIP3   OH266345   5.916   4.304  12.733  0.1616 -0.2876 -0.2249
14977TIP3    H166346   5.945   4.267  12.816  1.9699  1.9262  0.2464
14977TIP3    H266347   5.914   4.230  12.673  0.4088 -1.6633  1.3709
14978TIP3   OH266348   2.347   3.005  15.174  0.0454  0.0736  0.3872
14978TIP3    H166349   2.328   3.065  15.102 -0.1878 -1.1950 -0.6419
14978TIP3    H266350   2.430   2.964  15.150 -1.2491 -2.2056 -0.4709
14979TIP3   OH266351   3.110   2.856  14.854 -0.4596 -0.1417 -0.5025
14979TIP3    H166352   3.178   2.794  14.881 -0.0723 -0.1732 -1.5194
14979TIP3    H266353   3.143   2.942  14.882  0.2492 -0.0970 -1.4235
14980TIP3   OH266354   4.801   1.005   0.763 -0.1348 -0.2676 -0.0248
14980TIP3    H166355   4.771   1.037   0.678 -0.7362  0.0324  0.2916
14980TIP3    H266356   4.796   0.909   0.756 -3.2436 -0.2564  0.6814
14981TIP3   OH266357   1.985   1.402   0.263  0.3990  0.6120 -0.6735
14981TIP3    H166358   2.031   1.449   0.193  1.8482 -1.1018 -0.9525
14981TIP3    H266359   2.052   1.389   0.330 -0.0008 -0.8745 -0.5383
14982TIP3   OH266360   4.775   0.146   4.945  0.2857 -0.3592 -0.0412
14982TIP3    H166361   4.763   0.241   4.937  0.2136 -0.4133 -0.6669
14982TIP3    H266362   4.858   0.129   4.899  0.4121 -0.5703  0.2671
14983TIP3   OH266363   0.908   3.403   2.773  0.2389  0.3660 -0.5319
14983TIP3    H166364   0.841   3.413   2.841  0.7835 -0.3887  0.1340
14983TIP3    H266365   0.864   3.358   2.702 -0.5471  1.8284 -1.0230
14984TIP3   OH266366   6.290   0.241   0.418 -0.3586 -0.4930  0.2237
14984TIP3    H166367   6.246   0.205   0.495  0.3612 -0.8108  0.4954
14984TIP3    H266368   6.250   0.195   0.344  0.3975 -1.7461  0.5496
14985TIP3   OH266369   2.666   2.384  11.910  0.4900  0.0224 -0.2912
14985TIP3    H166370   2.646   2.383  11.816  2.3442  0.1911 -0.7370
14985TIP3    H266371   2.595   2.433  11.950 -0.6187 -0.5311 -1.5364
14986TIP3   OH266372   4.843   2.380  12.370 -0.3377 -0.2383  0.0616
14986TIP3    H166373   4.901   2.400  12.297 -0.5224  0.5946  0.1405
14986TIP3    H266374   4.755   2.382  12.333 -0.5575  1.6543  0.5817
14987TIP3   OH266375   2.362   0.307  11.348 -0.1621 -0.4572  1.1315
14987TIP3    H166376   2.295   0.245  11.378 -1.3472 -0.1581 -0.7252
14987TIP3    H266377   2.312   0.383  11.317  0.9347 -0.5496 -1.0644
14988TIP3   OH266378   6.210   1.421   0.308 -0.4290  0.0363  0.1706
14988TIP3    H166379   6.164   1.487   0.256  0.4948 -0.7696 -1.7709
14988TIP3    H266380   6.275   1.471   0.357 -0.7432  0.7488 -0.1266
14989TIP3   OH266381   3.092   6.664  13.465 -0.5327 -0.3034  0.0043
14989TIP3    H166382   3.186   6.666  13.482 -0.3213  1.9629 -1.0164
14989TIP3    H266383   3.057   6.742  13.508 -1.5469  0.1127 -1.4643
14990TIP3   OH266384   1.894   2.287   2.931 -0.4019 -0.6265  0.6947
14990TIP3    H166385   1.899   2.229   3.006 -0.0914 -2.8663 -0.9509
14990TIP3    H266386   1.803   2.281   2.901 -0.4418 -0.0150  0.6758
14991TIP3   OH266387   5.711   4.141   3.591 -0.3820  0.5684  0.1976
14991TIP3    H166388   5.735   4.195   3.515  0.5638  0.0574  0.1228
14991TIP3    H266389   5.735   4.195   3.666 -0.0917  0.5450  0.1248
14992TIP3   OH266390   3.776   2.233  13.170  0.4868 -0.3456  0.3675
14992TIP3    H166391   3.820   2.221  13.086  0.9076 -0.6296  0.6247
14992TIP3    H266392   3.836   2.286  13.221 -0.5166  1.2855 -0.0877
14993TIP3   OH266393   3.746   1.307  11.640  0.2395  0.1953 -0.1410
14993TIP3    H166394   3.832   1.279  11.607 -0.1397 -0.3605 -0.6661
14993TIP3    H266395   3.688   1.300  11.564  0.2694  3.2088 -0.5864
14994TIP3   OH266396   3.684   3.033   2.998  0.6418 -0.1700  0.0293
14994TIP3    H166397   3.693   3.126   3.021  0.3882  0.0612 -0.7687
14994TIP3    H266398   3.690   2.987   3.082 -2.2294  0.7628  0.8633
14995TIP3   OH266399   1.819   6.249   3.244 -0.2529  0.3040  0.2870
14995TIP3    H166400   1.792   6.220   3.331 -1.4799  2.3852  0.6859
14995TIP3    H266401   1.892   6.308   3.260  0.5317 -0.4943 -0.2587
14996TIP3   OH266402   6.217   2.367   4.608 -0.0950 -0.2389  0.0694
14996TIP3    H166403   6.189   2.455   4.636  0.5766 -0.2450  0.7782
14996TIP3    H266404   6.231   2.319   4.690  0.7083 -0.6348 -0.2906
14997TIP3   OH266405   2.110   3.686   4.089  0.1456  0.6405  0.3809
14997TIP3    H166406   2.165   3.644   4.022  1.4508  2.6781  0.1038
14997TIP3    H266407   2.026   3.700   4.045  0.8499  1.5738 -0.7423
14998TIP3   OH266408   3.530   1.641   6.417 -0.0408  0.1042 -0.1970
14998TIP3    H166409   3.491   1.670   6.500  0.7607 -0.2853  0.3305
14998TIP3    H266410   3.571   1.719   6.381 -2.2982  0.8336 -1.3797
14999TIP3   OH266411   1.617   1.180  12.031 -0.2993  0.0468 -0.4967
14999TIP3    H166412   1.676   1.244  11.990  2.3864 -1.6159  0.5049
14999TIP3    H266413   1.556   1.233  12.082  1.0244  1.8584 -0.6961
15000TIP3   OH266414   1.104   0.879   2.638  0.0756 -0.2390  0.2397
15000TIP3    H166415   1.074   0.889   2.548  0.5330  0.4030  0.1564
15000TIP3    H266416   1.162   0.953   2.653  2.5620 -1.9981  0.0205
15001TIP3   OH266417   4.598   3.844  13.609 -0.2612  0.3179 -0.0087
15001TIP3    H166418   4.644   3.847  13.525 -0.6749  1.1696 -0.2205
15001TIP3    H266419   4.507   3.826  13.586 -0.3083  0.1673  0.2911
15002TIP3   OH266420   4.434   5.932  15.495  0.0688 -0.5255  0.0793
15002TIP3    H166421   4.364   5.994  15.517 -0.5602 -1.7483  1.7283
15002TIP3    H266422   4.514   5.977  15.519 -0.3907 -0.3377  1.3525
15003TIP3   OH266423   1.643   5.554   5.379 -0.0052 -0.3938 -0.0803
15003TIP3    H166424   1.557   5.590   5.398 -1.5633 -3.8407  0.0191
15003TIP3    H266425   1.644   5.545   5.283  0.7370  0.6373 -0.1877
15004TIP3   OH266426   4.185   5.290  15.041 -0.5116  0.2103  0.2791
15004TIP3    H166427   4.220   5.228  15.105  0.1349 -0.5422 -0.7653
15004TIP3    H266428   4.127   5.238  14.986 -1.3716  0.9318  0.4815
15005TIP3   OH266429   3.430   0.277  11.660  0.6213 -0.5646 -0.4445
15005TIP3    H166430   3.470   0.342  11.602  0.1450  0.5587  0.4423
15005TIP3    H266431   3.346   0.255  11.619  0.8172 -0.6873 -0.7835
15006TIP3   OH266432   1.893   3.186   0.184 -0.0966  0.0399  0.0916
15006TIP3    H166433   1.922   3.190   0.092  2.8748  0.5066  0.9294
15006TIP3    H266434   1.901   3.094   0.207  2.0706  0.3045  0.6225
15007TIP3   OH266435   5.158   3.291   1.201 -0.1449  0.0353  0.0609
15007TIP3    H166436   5.104   3.244   1.137 -1.2479  1.1046  0.1688
15007TIP3    H266437   5.112   3.374   1.215  2.2512  1.6706 -0.9541
15008TIP3   OH266438   4.928   5.642  13.728 -0.1246 -0.0339 -0.1235
15008TIP3    H166439   4.905   5.725  13.769 -0.5698 -0.0520 -0.3305
15008TIP3    H266440   4.862   5.580  13.760  0.7744 -0.5392  0.8018
15009TIP3   OH266441   3.013   2.677  16.992 -0.0874 -0.3956 -0.2801
15009TIP3    H166442   3.036   2.589  16.965 -1.6621 -0.4853 -1.4321
15009TIP3    H266443   2.937   2.700  16.939 -1.8873  0.3322  2.3963
15010TIP3   OH266444   4.930   3.385  16.783 -0.2962 -0.1263  0.1484
15010TIP3    H166445   4.969   3.393  16.697  0.5401  1.1375  0.6111
15010TIP3    H266446   4.905   3.293  16.791  0.1412 -0.3724 -1.2033
15011TIP3   OH266447   4.059   3.463   4.967  0.1159  0.5689  0.3321
15011TIP3    H166448   4.034   3.519   4.893  2.2086 -2.0700 -2.6788
15011TIP3    H266449   3.977   3.444   5.012 -1.1778  2.8160 -0.8751
15012TIP3   OH266450   4.035   4.556   4.181  0.2928  0.2342 -0.1645
15012TIP3    H166451   3.953   4.509   4.163  1.2230 -0.8835 -1.7257
15012TIP3    H266452   4.038   4.624   4.115  1.4538 -0.8703 -1.2933
15013TIP3   OH266453   2.574   2.215  12.489  0.1852 -0.2221 -0.1591
15013TIP3    H166454   2.542   2.304  12.501 -1.5502 -0.9421  1.0493
15013TIP3    H266455   2.524   2.181  12.415  0.6154 -0.2974 -0.4184
15014TIP3   OH266456   0.761   4.672  14.332  0.4248 -0.5021  0.5492
15014TIP3    H166457   0.855   4.655  14.325  0.3044 -1.2729  0.6332
15014TIP3    H266458   0.726   4.644  14.247  0.3591  0.4644  0.2508
15015TIP3   OH266459   5.644   1.837   1.013 -0.5986  0.1252 -0.5315
15015TIP3    H166460   5.687   1.752   1.024 -1.6962 -0.3516  0.2978
15015TIP3    H266461   5.665   1.864   0.924  1.3438 -0.1088 -0.1937
15016TIP3   OH266462   4.227   2.293   3.598 -0.1394 -0.1930 -0.1803
15016TIP3    H166463   4.315   2.313   3.569  0.4381 -0.9237  0.9729
15016TIP3    H266464   4.223   2.197   3.598 -0.6279 -0.1801  0.6146
15017TIP3   OH266465   6.519   6.337  11.150  0.7303 -0.3548  0.1269
15017TIP3    H166466   6.482   6.390  11.220 -1.9121 -2.5175  0.5196
15017TIP3    H266467   6.601   6.381  11.128 -0.9361  3.4772  0.7964
15018TIP3   OH266468   5.167   2.967  12.369 -0.0236  0.5606 -0.2688
15018TIP3    H166469   5.239   2.948  12.429  0.1149  2.7915  0.3930
15018TIP3    H266470   5.210   2.994  12.288 -0.0735  1.4715 -0.0121
15019TIP3   OH266471   5.633   2.062  16.694 -0.5633 -0.1087  0.5313
15019TIP3    H166472   5.667   1.998  16.756  2.7886  2.5569  1.7035
15019TIP3    H266473   5.574   2.117  16.745 -1.6133 -0.7694  0.0781
15020TIP3   OH266474   6.124   1.211   0.505  0.1631  0.4524  0.7778
15020TIP3    H166475   6.127   1.277   0.435 -0.2052  0.0555  0.3821
15020TIP3    H266476   6.187   1.242   0.569  1.0951  0.4148 -0.0992
15021TIP3   OH266477   1.636   5.221  14.092  0.1995 -0.1229  0.4605
15021TIP3    H166478   1.635   5.300  14.145  0.9425 -1.0061  1.8563
15021TIP3    H266479   1.635   5.149  14.156  2.6999 -1.2424 -0.6259
15022TIP3   OH266480   6.257   1.327  11.438  0.1769  0.5804 -0.1859
15022TIP3    H166481   6.199   1.401  11.458 -1.9300 -0.6494 -1.4605
15022TIP3    H266482   6.207   1.272  11.379  2.1641 -1.2774 -0.2612
15023TIP3   OH266483   2.951   5.934   1.443  0.2137 -0.2464  0.4515
15023TIP3    H166484   3.045   5.939   1.423  0.2256 -2.5215 -0.4065
15023TIP3    H266485   2.943   5.969   1.531  1.6536  1.2133  0.0521
15024TIP3   OH266486   4.093   0.300  13.942  0.3015 -0.3475 -0.4344
15024TIP3    H166487   4.133   0.213  13.953  2.3591  0.5723 -0.2450
15024TIP3    H266488   4.018   0.299  14.001 -0.2314 -2.2716 -1.0539
15025TIP3   OH266489   1.827   5.750   0.617 -0.2653  0.3164 -0.8092
15025TIP3    H166490   1.826   5.842   0.590  1.0431  0.0624 -1.8375
15025TIP3    H266491   1.920   5.727   0.619 -0.4676 -0.5064  1.1935
15026TIP3   OH266492   1.861   5.206  14.750 -0.2590 -0.1426 -0.6628
15026TIP3    H166493   1.937   5.149  14.739 -0.9437 -0.8446 -1.8880
15026TIP3    H266494   1.895   5.294  14.735  0.1979 -0.5045 -1.8663
15027TIP3   OH266495   2.143   6.780  14.760 -0.1462 -0.1399  0.0558
15027TIP3    H166496   2.169   6.735  14.840 -0.5620 -0.9024 -0.2238
15027TIP3    H266497   2.221   6.776  14.704 -0.5253 -1.5672 -0.4104
15028TIP3   OH266498   5.360   5.245   3.050  0.0407 -0.0285  0.1252
15028TIP3    H166499   5.366   5.278   2.960  0.7486  0.6625  0.4060
15028TIP3    H266500   5.322   5.318   3.099  0.6723  0.0132  0.5738
15029TIP3   OH266501   5.671   3.364   0.912  0.0303  0.3358  0.0148
15029TIP3    H166502   5.670   3.441   0.854  0.7698  0.0827 -0.3430
15029TIP3    H266503   5.595   3.313   0.884  1.4624 -0.7791 -2.1396
15030TIP3   OH266504   6.582   0.914  14.132 -0.2253 -0.0235  0.1432
15030TIP3    H166505   6.563   0.873  14.217  0.1851  1.6816  1.0947
15030TIP3    H266506   6.542   0.855  14.068  2.8802 -3.6293  1.1406
15031TIP3   OH266507   1.415   1.200  16.934 -0.4822  0.1902  0.8515
15031TIP3    H166508   1.482   1.136  16.957  0.8970  0.9248 -0.8480
15031TIP3    H266509   1.332   1.157  16.955  0.4841 -0.8482  2.7599
15032TIP3   OH266510   4.985   2.730   0.184 -0.4569 -0.2089  0.0197
15032TIP3    H166511   4.890   2.733   0.183 -0.5316 -1.6596 -0.1491
15032TIP3    H266512   5.013   2.807   0.134 -1.4579  1.4315  1.8641
15033TIP3   OH266513   4.668   4.208   4.925 -0.0410  0.2382 -0.3290
15033TIP3    H166514   4.706   4.135   4.976  1.1617  0.0847 -1.3838
15033TIP3    H266515   4.587   4.172   4.889  1.6024 -1.4413 -2.6797
15034TIP3   OH266516   1.845   5.932  13.622  0.0592  0.0890 -0.7941
15034TIP3    H166517   1.768   5.881  13.596 -0.9411  0.7974  0.6483
15034TIP3    H266518   1.910   5.865  13.644 -0.6115 -0.5571 -0.6993
15035TIP3   OH266519   4.110   1.411  12.245 -0.3596 -0.1420 -0.3909
15035TIP3    H166520   4.041   1.473  12.268  0.9017  0.8567  0.9329
15035TIP3    H266521   4.182   1.466  12.213  0.7688 -0.8881  0.7552
15036TIP3   OH266522   0.821   3.317   5.824  0.7592 -0.3135 -0.1730
15036TIP3    H166523   0.832   3.309   5.730 -1.6823  0.5885 -0.6302
15036TIP3    H266524   0.797   3.229   5.853 -1.2995 -0.0529 -0.9275
15037TIP3   OH266525   5.478   3.646   2.014 -0.0494 -0.2290  0.2541
15037TIP3    H166526   5.425   3.567   2.019 -0.9083  0.2889 -0.3156
15037TIP3    H266527   5.417   3.714   1.984  1.1826  0.1315 -1.6331
15038TIP3   OH266528   6.574   2.437  11.425 -0.3207 -0.0855 -0.5462
15038TIP3    H166529   6.620   2.356  11.445  2.0110  1.5015  1.0604
15038TIP3    H266530   6.485   2.409  11.403  0.8305 -3.1710 -1.9003
15039TIP3   OH266531   5.641   5.864  15.438 -0.0903 -0.2191 -0.1523
15039TIP3    H166532   5.684   5.804  15.377 -0.7925 -0.9777  0.0777
15039TIP3    H266533   5.708   5.883  15.504 -0.0666 -1.3483  0.1771
15040TIP3   OH266534   5.600   6.653   6.014 -0.3999 -0.4322 -0.8679
15040TIP3    H166535   5.612   6.736   5.968  1.2019  0.4095  0.9658
15040TIP3    H266536   5.688   6.619   6.027 -0.9761 -2.0328 -0.8330
15041TIP3   OH266537   6.169   6.350   3.347  0.0777  0.2948 -0.0539
15041TIP3    H166538   6.081   6.341   3.382 -0.4499  0.1976 -1.3672
15041TIP3    H266539   6.195   6.261   3.323  0.3371  0.3915 -0.1416
15042TIP3   OH266540   6.354   2.885  15.183  0.2300 -0.3192  0.0695
15042TIP3    H166541   6.296   2.875  15.258  0.0260  0.1324 -0.0288
15042TIP3    H266542   6.333   2.811  15.126 -1.0096  0.4170 -0.4727
15043TIP3   OH266543   4.898   5.057  11.805  0.1422 -0.2572 -0.6055
15043TIP3    H166544   4.875   4.965  11.816 -1.4275  0.2823  0.9121
15043TIP3    H266545   4.821   5.097  11.766 -0.2162  0.8907  1.1636
15044TIP3   OH266546   1.160   4.852   5.735 -0.0263 -0.5344  0.0161
15044TIP3    H166547   1.180   4.759   5.720 -0.5587 -0.7747  0.7316
15044TIP3    H266548   1.070   4.862   5.704  0.2001 -0.1396 -0.5150
15045TIP3   OH266549   2.687   6.097  15.464 -0.4409  0.9723 -0.2571
15045TIP3    H166550   2.776   6.129  15.474 -0.6614  1.1686  1.4758
15045TIP3    H266551   2.633   6.176  15.466 -0.7924  0.7337  1.2297
15046TIP3   OH266552   3.160   0.807   6.565 -0.1638 -0.0311 -0.5827
15046TIP3    H166553   3.222   0.739   6.539  0.7641  0.6290 -0.1882
15046TIP3    H266554   3.208   0.860   6.629 -1.7015 -0.4468  0.9879
15047TIP3   OH266555   3.784   2.937   1.108  0.2408 -0.3168  0.2146
15047TIP3    H166556   3.776   3.029   1.084  1.3365 -0.2266  0.1541
15047TIP3    H266557   3.753   2.933   1.198 -1.9594 -0.3064 -0.4833
15048TIP3   OH266558   2.888   2.151  11.172 -0.8463  0.4296 -0.4851
15048TIP3    H166559   2.844   2.067  11.185 -0.1306  0.1357  0.1320
15048TIP3    H266560   2.897   2.159  11.077  1.5953 -1.5605 -0.5049
15049TIP3   OH266561   2.446   3.868   3.662 -0.0629 -0.2466  0.7761
15049TIP3    H166562   2.402   3.939   3.709  2.8302  2.0217  0.4127
15049TIP3    H266563   2.490   3.818   3.730  0.8832  0.6194  0.8293
15050TIP3   OH266564   1.390   0.783   3.727  0.0063  0.2626 -0.0659
15050TIP3    H166565   1.300   0.805   3.705 -0.4108 -2.0079 -0.8570
15050TIP3    H266566   1.390   0.772   3.822 -1.2908 -2.4092 -0.2855
15051TIP3   OH266567   3.383   3.493   3.943  0.2265 -0.4587 -0.0167
15051TIP3    H166568   3.433   3.535   3.873 -0.6168  0.7624  0.0923
15051TIP3    H266569   3.386   3.400   3.922  2.3415 -0.4132 -0.1383
15052TIP3   OH266570   3.283   3.831   4.188  0.0498  0.3436 -0.0721
15052TIP3    H166571   3.260   3.781   4.110 -1.9830  0.8164  0.1757
15052TIP3    H266572   3.252   3.920   4.169 -0.4838  0.4632  1.2548
15053TIP3   OH266573   5.800   3.031   0.391 -0.7183 -0.8276 -0.2729
15053TIP3    H166574   5.869   2.985   0.344  0.0749 -0.7158  0.7466
15053TIP3    H266575   5.742   2.962   0.423 -0.7196 -0.9644 -0.5708
15054TIP3   OH266576   2.880   4.143  11.603 -0.9105  0.1759 -0.3452
15054TIP3    H166577   2.915   4.178  11.685  1.1271  0.1100 -1.1199
15054TIP3    H266578   2.873   4.218  11.544 -0.6691 -0.0350 -0.6516
15055TIP3   OH266579   1.945   1.329  15.098  0.0681  0.4174  0.7561
15055TIP3    H166580   1.962   1.396  15.032 -1.1974 -0.1503 -0.1934
15055TIP3    H266581   1.852   1.338  15.117  0.5389  1.0841  3.0899
15056TIP3   OH266582   2.938   4.412   1.235 -0.2249 -0.2232 -0.1503
15056TIP3    H166583   2.906   4.328   1.201 -1.6074  0.6471 -1.1111
15056TIP3    H266584   2.991   4.448   1.164 -1.6466  0.7870 -0.7564
15057TIP3   OH266585   3.811   1.770   1.835  0.3061  0.4482 -0.3600
15057TIP3    H166586   3.776   1.683   1.819 -0.3518  0.5985  0.2107
15057TIP3    H266587   3.809   1.779   1.931 -1.4166  1.7928 -0.4733
15058TIP3   OH266588   6.343   2.962   0.944 -0.5617 -0.0753 -0.2657
15058TIP3    H166589   6.313   2.894   1.004 -0.2588  0.5398  0.5944
15058TIP3    H266590   6.438   2.955   0.945 -0.4994  0.7188  0.2695
15059TIP3   OH266591   4.237   6.077  16.342  0.1418 -0.1840  0.1237
15059TIP3    H166592   4.321   6.065  16.388  1.0926  2.7066 -0.6907
15059TIP3    H266593   4.257   6.057  16.251 -0.1983 -0.0080  0.0124
15060TIP3   OH266594   3.997   1.378  12.973 -0.1268 -0.1511  0.0933
15060TIP3    H166595   3.929   1.424  13.021  0.0082 -0.5066  0.6303
15060TIP3    H266596   3.962   1.369  12.884 -0.3925  0.4697  0.1311
15061TIP3   OH266597   3.263   2.439   0.903  0.2722  0.0485  0.1870
15061TIP3    H166598   3.333   2.500   0.881 -1.3673  1.5992 -1.0271
15061TIP3    H266599   3.244   2.393   0.821  0.4448 -1.0289  0.7270
15062TIP3   OH266600   1.489   3.637  13.479  0.5850 -0.5132  0.2193
15062TIP3    H166601   1.400   3.656  13.509  0.6375 -1.1744  0.8404
15062TIP3    H266602   1.526   3.581  13.548  1.3811 -0.4891 -0.1714
15063TIP3   OH266603   0.061   2.122  15.455 -0.2484  0.4161 -0.6754
15063TIP3    H166604   0.080   2.029  15.443  0.1861  0.6784 -2.2664
15063TIP3    H266605  -0.021   2.136  15.408  0.5695  1.1496 -1.9532
15064TIP3   OH266606   2.491   4.676   1.223 -0.0877  0.1241 -0.0438
15064TIP3    H166607   2.474   4.638   1.137 -0.6256  0.6683 -0.1863
15064TIP3    H266608   2.472   4.769   1.212  2.5702  0.7544 -0.0968
15065TIP3   OH266609   3.808   0.411  11.640  0.4154  0.0735 -0.2457
15065TIP3    H166610   3.900   0.423  11.665  0.4932  0.1395 -0.5708
15065TIP3    H266611   3.787   0.323  11.671  0.8841 -0.3419 -1.0867
15066TIP3   OH266612   4.226   4.889   4.654 -0.0188  0.1642 -0.0347
15066TIP3    H166613   4.241   4.956   4.721 -1.7807  2.4148 -1.7181
15066TIP3    H266614   4.153   4.837   4.689 -1.1490  1.5242 -0.2497
15067TIP3   OH266615   4.078   1.797  15.804  0.6680  0.6615 -0.2893
15067TIP3    H166616   4.054   1.804  15.712  0.7853 -0.2693 -0.3956
15067TIP3    H266617   4.105   1.706  15.815 -0.8703  0.3334  1.0405
15068TIP3   OH266618   3.705   5.020  10.222 -0.4598 -0.5317 -0.6579
15068TIP3    H166619   3.732   4.928  10.222  0.2687 -0.3317  0.2436
15068TIP3    H266620   3.788   5.069  10.216 -0.7421  0.0820  0.2918
15069TIP3   OH266621   1.758   4.155   0.734 -0.3813 -0.4926 -0.9201
15069TIP3    H166622   1.734   4.080   0.788 -1.7214 -0.0953 -0.9248
15069TIP3    H266623   1.851   4.168   0.751 -0.7268 -0.4725  1.1883
15070TIP3   OH266624   4.550   3.799   1.899  0.0036  0.0455  0.1611
15070TIP3    H166625   4.466   3.846   1.903 -0.4736 -0.0784 -4.0553
15070TIP3    H266626   4.610   3.863   1.861  1.2176 -0.6503  0.8777
15071TIP3   OH266627   3.604   0.049   6.439 -0.2316 -0.5290 -0.1977
15071TIP3    H166628   3.670  -0.005   6.483  0.1254  0.0996  0.0389
15071TIP3    H266629   3.577   0.113   6.505 -0.7481 -0.4961 -0.4378
15072TIP3   OH266630   6.817   6.817   1.998  0.4280 -0.3195  0.3638
15072TIP3    H166631   6.841   6.902   2.034  0.8196 -0.6916  1.0060
15072TIP3    H266632   6.724   6.824   1.980  0.2667 -0.0371  1.2468
15073TIP3   OH266633   6.772   6.681  12.606  0.8778  0.5928 -0.0645
15073TIP3    H166634   6.781   6.657  12.514 -0.0201 -1.7868  0.3854
15073TIP3    H266635   6.685   6.721  12.613  0.5221 -0.1528 -0.1083
15074TIP3   OH266636   0.288   1.045  13.234 -0.6580 -0.0068  0.4296
15074TIP3    H166637   0.228   1.108  13.195 -1.0570  0.7478  2.1702
15074TIP3    H266638   0.375   1.083  13.220 -0.7308 -0.0724 -0.2530
15075TIP3   OH266639   1.198   3.586  13.014  0.1238  0.4444 -0.0365
15075TIP3    H166640   1.250   3.539  13.079 -0.7567  0.6895  0.8812
15075TIP3    H266641   1.136   3.520  12.981 -1.4352  1.0140  1.6041
15076TIP3   OH266642   6.254   1.801  11.779 -0.0372 -0.6799  0.2972
15076TIP3    H166643   6.266   1.715  11.740  2.9383 -0.1226 -0.2518
15076TIP3    H266644   6.242   1.860  11.704 -0.5999 -0.4081  0.5919
15077TIP3   OH266645   4.797   2.878  15.527  0.0721 -0.0352  0.0218
15077TIP3    H166646   4.736   2.837  15.466  1.9536 -0.1099 -1.8961
15077TIP3    H266647   4.827   2.805  15.582  0.9701 -0.6773 -1.2701
15078TIP3   OH266648   3.849   3.053   0.062  0.6092 -0.2784 -0.4054
15078TIP3    H166649   3.803   2.979   0.023 -0.8543 -0.5069  1.6225
15078TIP3    H266650   3.780   3.118   0.078  1.2615  0.0904  1.0595
15079TIP3   OH266651   1.228   6.713   5.704 -0.4723  0.6035  0.1168
15079TIP3    H166652   1.237   6.804   5.678 -0.5072 -0.0096 -2.3472
15079TIP3    H266653   1.182   6.716   5.788 -1.6160  2.8108 -0.5023
15080TIP3   OH266654   5.472   3.569   3.397  0.6440 -0.2196 -0.0518
15080TIP3    H166655   5.527   3.599   3.470  1.4986  0.4190 -0.9241
15080TIP3    H266656   5.397   3.628   3.398  2.2755  2.0849 -1.7062
15081TIP3   OH266657   1.263   3.021  16.140  0.1319  0.6421 -0.0842
15081TIP3    H166658   1.249   3.006  16.047 -1.3048 -0.0050  0.2099
15081TIP3    H266659   1.358   3.011  16.152  0.3000  0.4887 -1.4295
15082TIP3   OH266660   0.953   0.474   2.386 -0.2054  0.1872 -0.0677
15082TIP3    H166661   0.996   0.557   2.403 -0.5959  0.1510  1.1800
15082TIP3    H266662   1.009   0.431   2.321  0.1044  1.3209 -0.5806
15083TIP3   OH266663   3.658   4.554  13.762  0.3124  0.5878  0.1852
15083TIP3    H166664   3.669   4.459  13.762  0.6310  0.5866  2.1642
15083TIP3    H266665   3.586   4.569  13.701 -0.8339 -1.0905  1.0189
15084TIP3   OH266666   0.765   0.233   4.594 -0.2657  0.3282 -0.3066
15084TIP3    H166667   0.768   0.154   4.540 -2.4425  0.8519 -1.2838
15084TIP3    H266668   0.765   0.305   4.532  0.7615  1.1171  0.5507
15085TIP3   OH266669   2.841   5.142   4.565 -0.3884  0.1783 -0.2489
15085TIP3    H166670   2.878   5.080   4.628 -0.6151  0.2303 -0.0615
15085TIP3    H266671   2.895   5.221   4.575 -0.1229  0.0251 -0.4615
15086TIP3   OH266672   3.459   1.986  15.149  0.5981 -0.4907  0.5278
15086TIP3    H166673   3.438   2.079  15.139 -0.3583 -0.8121 -0.8152
15086TIP3    H266674   3.545   1.976  15.108 -0.7595 -0.7354 -2.5569
15087TIP3   OH266675   6.487   6.036  12.775 -0.0839 -0.2888 -0.0954
15087TIP3    H166676   6.519   5.970  12.835  2.6369 -0.7348 -1.8869
15087TIP3    H266677   6.520   6.119  12.809 -1.8368 -0.0155  1.0669
15088TIP3   OH266678   3.152   6.493   6.739  0.6412 -0.3130  0.1937
15088TIP3    H166679   3.224   6.430   6.739  1.7364  0.8622  2.1501
15088TIP3    H266680   3.190   6.573   6.704 -0.1638 -0.1278 -0.2691
15089TIP3   OH266681   2.635   2.082   3.377 -0.0079  0.3525 -0.4363
15089TIP3    H166682   2.566   2.112   3.435  0.2444 -0.5687  0.3656
15089TIP3    H266683   2.633   1.986   3.384 -0.1039  0.1948 -2.1075
15090TIP3   OH266684   6.305   3.732  13.781  0.5457 -0.1146  0.2917
15090TIP3    H166685   6.231   3.755  13.836  0.3996 -2.0016  0.9629
15090TIP3    H266686   6.352   3.814  13.768  0.1380  0.5492  2.5865
15091TIP3   OH266687   4.420   4.356  12.245  0.1967 -0.4117  0.0334
15091TIP3    H166688   4.464   4.287  12.195  1.2345 -0.8257  1.4396
15091TIP3    H266689   4.332   4.359  12.209  0.5337 -1.5449 -0.9677
15092TIP3   OH266690   0.698   3.683   1.274 -0.3374  0.4005  0.0270
15092TIP3    H166691   0.766   3.725   1.221  0.0464  1.4945  1.3511
15092TIP3    H266692   0.744   3.653   1.352 -0.7235 -1.9624 -0.5662
15093TIP3   OH266693   3.656   3.252   5.145  0.5042 -0.0954  0.2144
15093TIP3    H166694   3.624   3.162   5.153  1.0720 -0.3148  0.0037
15093TIP3    H266695   3.733   3.256   5.201 -0.3295  0.6586  1.3499
15094TIP3   OH266696   2.920   6.024   0.994  0.4189 -0.3325 -0.0098
15094TIP3    H166697   2.891   6.115   1.002 -0.0072 -0.3960 -0.7893
15094TIP3    H266698   2.909   5.988   1.082 -0.0533  0.1789  0.1468
15095TIP3   OH266699   2.930   0.935   2.198  0.2341 -0.0816 -0.1987
15095TIP3    H166700   2.875   0.925   2.275 -0.1919 -0.7376 -0.5822
15095TIP3    H266701   2.950   1.029   2.194 -0.7280  0.1354  0.0251
15096TIP3   OH266702   2.172   5.394   1.371 -0.4312  0.0359  0.5631
15096TIP3    H166703   2.169   5.380   1.276  2.0808  1.3761  0.2107
15096TIP3    H266704   2.132   5.481   1.384 -1.0786 -0.2894  0.7930
15097TIP3   OH266705   5.034   6.306  12.090 -0.0381 -0.3736 -0.0763
15097TIP3    H166706   5.018   6.316  11.996 -0.5188  1.3203  0.1591
15097TIP3    H266707   4.948   6.316  12.131  0.4164  0.6880  0.6528
15098TIP3   OH266708   6.045   5.609  11.101  0.3103 -0.0894 -0.7236
15098TIP3    H166709   6.101   5.542  11.139 -1.2065 -2.5101 -2.4079
15098TIP3    H266710   5.983   5.631  11.171 -1.4166 -3.2409 -1.0369
15099TIP3   OH266711   2.689   6.800   5.345 -0.5193  0.1594 -0.6418
15099TIP3    H166712   2.738   6.718   5.339 -0.6916 -0.0587  0.7182
15099TIP3    H266713   2.602   6.773   5.373 -0.5157  0.8154  0.0161
15100TIP3   OH266714   2.817   0.523  13.517  0.6975  0.4639  0.1414
15100TIP3    H166715   2.787   0.611  13.495  0.8535 -0.0243 -2.2561
15100TIP3    H266716   2.892   0.508  13.460  1.3984 -0.8197  1.3319
15101TIP3   OH266717   3.369   2.485   1.489  0.5459 -0.6158  0.0234
15101TIP3    H166718   3.317   2.535   1.552  0.7262 -1.2691  0.7010
15101TIP3    H266719   3.305   2.432   1.442  0.4194 -0.1874 -0.2887
15102TIP3   OH266720   4.353   2.567  10.648 -0.2656  0.2255  0.7505
15102TIP3    H166721   4.348   2.492  10.706  1.7042 -0.1296  0.5010
15102TIP3    H266722   4.418   2.625  10.688 -0.7232  1.1631  0.1943
15103TIP3   OH266723   2.203   3.650  11.003 -0.6335  0.1155 -0.7201
15103TIP3    H166724   2.228   3.571  10.955 -3.1945 -1.8977  0.9856
15103TIP3    H266725   2.264   3.654  11.077  0.6239  0.8422 -1.7385
15104TIP3   OH266726   1.329   4.025   2.119 -0.1307 -0.4971  0.4932
15104TIP3    H166727   1.267   3.957   2.094 -0.2161  0.1123 -1.1095
15104TIP3    H266728   1.408   4.007   2.067 -0.2618  0.7585 -0.1972
15105TIP3   OH266729   3.179   1.338   3.423 -0.1834 -0.1360  0.5528
15105TIP3    H166730   3.271   1.362   3.431 -0.2826 -0.1941  2.1120
15105TIP3    H266731   3.162   1.342   3.329  0.9759  1.5070  0.3583
15106TIP3   OH266732   2.072   4.741  12.857 -0.1883  0.2011 -0.4649
15106TIP3    H166733   2.027   4.690  12.791 -1.0823 -0.5403  0.6750
15106TIP3    H266734   2.125   4.677  12.905  0.3409  0.6959 -0.3803
15107TIP3   OH266735   5.151   3.177   1.540  0.1753 -0.2116 -0.1736
15107TIP3    H166736   5.075   3.173   1.483  0.2643 -1.3090 -0.2253
15107TIP3    H266737   5.220   3.131   1.493  0.9496  0.9612 -0.2221
15108TIP3   OH266738   1.368   5.653  15.317 -0.0909 -0.3297  0.4970
15108TIP3    H166739   1.462   5.639  15.305 -0.3892 -1.1921 -1.1001
15108TIP3    H266740   1.352   5.740  15.282  0.1819  0.0381  1.2651
15109TIP3   OH266741   3.244   4.294   1.797 -0.0973  0.0331  0.3697
15109TIP3    H166742   3.273   4.265   1.710 -0.2330 -0.9222  0.6364
15109TIP3    H266743   3.211   4.215   1.840 -1.0037  0.6788  0.9170
15110TIP3   OH266744   0.661   3.676   2.725 -0.2584  0.1032  0.1414
15110TIP3    H166745   0.748   3.647   2.699  0.5012  3.0725 -0.9896
15110TIP3    H266746   0.619   3.704   2.644 -2.5365 -1.7328  0.5888
15111TIP3   OH266747   6.755   1.620  11.741  0.4319  0.2024 -0.2175
15111TIP3    H166748   6.782   1.556  11.807  1.7035  0.8535 -0.0859
15111TIP3    H266749   6.685   1.670  11.783 -1.3203 -1.7323 -0.6892
15112TIP3   OH266750   4.208   4.255  11.421 -0.5802  0.1235 -0.6047
15112TIP3    H166751   4.267   4.229  11.491 -2.5771  0.8852  1.4919
15112TIP3    H266752   4.161   4.330  11.456 -2.1907  0.0696 -2.4776
15113TIP3   OH266753   4.734   3.883  13.376  0.1703  0.3068  0.2800
15113TIP3    H166754   4.683   3.826  13.319  1.8822 -0.5900 -0.4375
15113TIP3    H266755   4.817   3.896  13.329  1.2717  0.3030  2.1098
15114TIP3   OH266756   3.949   4.431  11.709  0.0696  0.0680  0.1395
15114TIP3    H166757   4.025   4.373  11.717  2.2458  2.6155 -0.4253
15114TIP3    H266758   3.918   4.415  11.620 -0.5518 -1.4719  0.5910
15115TIP3   OH266759   2.083   6.088   6.263 -0.0924  0.0157  0.2099
15115TIP3    H166760   2.091   6.067   6.356 -2.4089 -0.5863  0.3185
15115TIP3    H266761   2.073   6.004   6.220 -1.9414  0.4209 -0.2203
15116TIP3   OH266762   4.802   5.788   5.073 -0.2266  0.5278 -0.3187
15116TIP3    H166763   4.739   5.781   5.144 -0.1141  0.0082 -0.2660
15116TIP3    H266764   4.769   5.728   5.006 -0.0226  0.5817 -0.4674
15117TIP3   OH266765   1.877   6.237  14.481 -0.3462  0.7434  0.1577
15117TIP3    H166766   1.884   6.241  14.576 -0.8198  0.2012  0.2203
15117TIP3    H266767   1.850   6.147  14.462  2.4602 -0.0147 -0.6821
15118TIP3   OH266768   5.167   2.971  16.068  0.8129  0.6683 -0.4820
15118TIP3    H166769   5.166   2.886  16.023 -1.2639  0.2398  0.2499
15118TIP3    H266770   5.212   2.953  16.151 -0.7570 -0.1283  0.2606
15119TIP3   OH266771   2.830   6.634  15.141  0.4161  0.3778 -0.3924
15119TIP3    H166772   2.849   6.655  15.050  0.6340  0.8975 -0.2321
15119TIP3    H266773   2.915   6.613  15.179  0.4349  0.9858 -0.1007
15120TIP3   OH266774   1.348   1.903  13.724  0.1427  0.1192  0.8282
15120TIP3    H166775   1.338   1.933  13.634  0.6060 -0.7440  0.4863
15120TIP3    H266776   1.266   1.928  13.767 -1.2546 -1.8868 -0.5207
15121TIP3   OH266777   4.076   4.518   6.314 -0.2093 -0.2728 -0.0944
15121TIP3    H166778   4.089   4.603   6.272  0.8139 -0.5999 -0.4534
15121TIP3    H266779   4.048   4.540   6.403  0.8145  0.4454  0.0618
15122TIP3   OH266780   1.168   3.817   3.104 -0.0927  0.6384  0.5771
15122TIP3    H166781   1.076   3.817   3.077 -0.1846 -0.1035  0.8592
15122TIP3    H266782   1.173   3.749   3.171  1.0844 -0.8061 -0.8940
15123TIP3   OH266783   6.010   1.377   4.469 -0.6718  0.0604  0.0375
15123TIP3    H166784   6.021   1.307   4.406 -0.7511 -0.2702  0.3858
15123TIP3    H266785   5.953   1.340   4.537 -2.4135  1.1139 -0.7807
15124TIP3   OH266786   5.862   1.362  14.221  0.0191 -0.0179 -0.3225
15124TIP3    H166787   5.883   1.456  14.224  0.0467  0.0040 -1.0980
15124TIP3    H266788   5.832   1.342  14.310 -1.2818  1.0459 -0.4768
15125TIP3   OH266789   6.219   0.371   2.575 -0.4546  0.3328  0.1573
15125TIP3    H166790   6.123   0.376   2.583 -0.4762  2.0514 -0.7664
15125TIP3    H266791   6.243   0.449   2.525  1.4425 -0.0947  0.3374
15126TIP3   OH266792   0.608   4.167  15.725  0.3280 -0.4770  0.3008
15126TIP3    H166793   0.544   4.204  15.786  0.9656 -0.2915  0.8658
15126TIP3    H266794   0.576   4.193  15.639 -0.3531 -0.3764  0.5750
15127TIP3   OH266795   6.132   0.534  15.536  0.7024 -0.1467  0.0019
15127TIP3    H166796   6.204   0.589  15.504  1.0033 -0.2773  0.4447
15127TIP3    H266797   6.128   0.551  15.630 -0.3108  0.3841 -0.1230
15128TIP3   OH266798   4.696   4.839  14.805  0.6652 -0.1373 -0.2438
15128TIP3    H166799   4.622   4.890  14.839  1.0677 -0.8985  1.9070
15128TIP3    H266800   4.661   4.797  14.726 -0.6496  0.9238 -0.2629
15129TIP3   OH266801   0.823   2.967  17.015 -0.1013 -0.0284 -0.1674
15129TIP3    H166802   0.749   2.954  16.956 -0.1549  1.2540 -0.4070
15129TIP3    H266803   0.820   2.892  17.074 -2.4271  0.6735  0.6941
15130TIP3   OH266804   0.727   2.514  14.297 -0.4303 -0.0390  0.0720
15130TIP3    H166805   0.689   2.568  14.227 -0.6048 -0.7460 -0.3929
15130TIP3    H266806   0.652   2.489  14.350 -0.7320 -1.8398 -1.1268
15131TIP3   OH266807   5.004   1.320   5.829 -0.3156 -0.0690  0.2650
15131TIP3    H166808   4.946   1.278   5.893 -0.3104  0.1897  0.4413
15131TIP3    H266809   5.051   1.386   5.879 -2.2504  2.0148 -0.5006
15132TIP3   OH266810   3.796   6.531  16.081  0.0918 -0.4074  0.6540
15132TIP3    H166811   3.708   6.557  16.107  0.6052  0.8731  1.1804
15132TIP3    H266812   3.796   6.436  16.090 -0.2943 -0.2419  3.8467
15133TIP3   OH266813   1.998   1.549   2.285 -0.1513 -0.5882 -0.3192
15133TIP3    H166814   2.080   1.514   2.318 -1.3824 -0.6769  2.9596
15133TIP3    H266815   1.941   1.473   2.274 -1.2917 -0.2068  2.2245
15134TIP3   OH266816   6.347   4.431  14.603 -0.1093  0.4076 -0.2266
15134TIP3    H166817   6.411   4.364  14.579 -0.4082  0.1909 -0.4253
15134TIP3    H266818   6.287   4.387  14.663  0.7992  1.0249  1.1713
15135TIP3   OH266819   6.610   3.842  14.529  0.0634  0.3258  0.0944
15135TIP3    H166820   6.596   3.768  14.470 -2.5567 -0.0072  1.0115
15135TIP3    H266821   6.654   3.805  14.605  0.8279  0.2008 -0.3939
15136TIP3   OH266822   0.513   2.849   0.136  0.1307  0.5405  0.2715
15136TIP3    H166823   0.506   2.943   0.119  0.7213  0.4720 -0.4085
15136TIP3    H266824   0.437   2.829   0.190  0.4316  1.5528  1.0985
15137TIP3   OH266825   4.256   4.896   4.218 -0.2111 -0.7886 -0.5443
15137TIP3    H166826   4.234   4.931   4.131  1.4717 -1.1128 -1.1463
15137TIP3    H266827   4.255   4.801   4.206  1.3599 -0.8254 -0.6126
15138TIP3   OH266828   0.684   2.080  12.926  0.0319  0.2480  0.3140
15138TIP3    H166829   0.617   2.122  12.872  0.0454 -0.1163  0.0011
15138TIP3    H266830   0.639   2.057  13.007 -0.0046  0.7547  0.4357
15139TIP3   OH266831   0.887   6.368  11.452  0.0866 -0.2300 -0.1286
15139TIP3    H166832   0.844   6.449  11.427  1.3759  0.7248  0.6073
15139TIP3    H266833   0.928   6.387  11.537  2.4680 -0.8408 -1.0397
15140TIP3   OH266834   0.410   0.247   2.179 -0.5743  0.3305  0.2719
15140TIP3    H166835   0.339   0.258   2.117 -0.1530  1.9505  0.0206
15140TIP3    H266836   0.384   0.301   2.254 -0.0057  0.2706  0.5156
15141TIP3   OH266837   0.181   4.437   3.012 -0.1968  0.4625  0.0193
15141TIP3    H166838   0.095   4.394   3.004 -0.5691  1.4022 -1.3069
15141TIP3    H266839   0.160   4.531   3.016  0.6194  0.5980  2.5100
15142TIP3   OH266840   6.183   2.073   5.689 -0.0639  0.5261 -0.0754
15142TIP3    H166841   6.217   2.157   5.719  2.7872  0.1245 -1.7581
15142TIP3    H266842   6.122   2.094   5.619 -0.7131  1.1922  0.6677
15143TIP3   OH266843   5.976   0.530  16.512 -0.3844  0.3991  0.5986
15143TIP3    H166844   5.976   0.588  16.588 -0.8303  0.5671  0.4711
15143TIP3    H266845   5.997   0.586  16.438 -1.8683  0.6250  0.3134
15144TIP3   OH266846   2.960   6.200   1.326 -0.5696 -0.2066  0.1412
15144TIP3    H166847   3.049   6.224   1.299 -0.3542 -0.1552  0.8793
15144TIP3    H266848   2.966   6.106   1.346 -1.4213 -1.0195 -2.8099
15145TIP3   OH266849   1.377   2.296  13.006  0.3183  0.1543  0.0703
15145TIP3    H166850   1.312   2.288  12.936 -0.7619  0.3008  1.0097
15145TIP3    H266851   1.447   2.349  12.968 -0.0898 -0.0411 -0.9928
15146TIP3   OH266852   2.147   4.092   6.206  0.5017  0.0520  0.2331
15146TIP3    H166853   2.121   4.159   6.269  0.0207 -0.3668  0.4793
15146TIP3    H266854   2.094   4.111   6.128 -0.5593 -0.7812  0.7230
15147TIP3   OH266855   5.715   2.773   5.181  0.1987  0.1141 -0.2929
15147TIP3    H166856   5.745   2.849   5.232  1.3598 -1.5216  1.6522
15147TIP3    H266857   5.623   2.790   5.166  0.5804  2.2616 -0.6189
15148TIP3   OH266858   3.064   1.461   2.104  0.3406 -0.2291  0.0772
15148TIP3    H166859   2.985   1.510   2.127  0.5699 -0.4219  1.3537
15148TIP3    H266860   3.078   1.481   2.011 -1.1442 -0.1226 -0.1502
15149TIP3   OH266861   2.917   4.528  17.079  0.4796 -0.0908 -0.3240
15149TIP3    H166862   3.000   4.564  17.111 -0.5650  0.2253  2.2537
15149TIP3    H266863   2.917   4.438  17.111 -0.5485  0.1939  0.5253
15150TIP3   OH266864   0.941   2.443  15.322  0.6201  0.1274  0.3540
15150TIP3    H166865   1.023   2.446  15.371  1.3949  1.3787 -0.9608
15150TIP3    H266866   0.968   2.424  15.232 -0.3839  1.8691 -0.3566
15151TIP3   OH266867   0.467   5.399  15.567  0.0326 -0.5109 -0.4193
15151TIP3    H166868   0.373   5.416  15.572 -0.4750 -3.1140  1.1179
15151TIP3    H266869   0.504   5.443  15.643 -0.6765 -2.7091  1.3414
15152TIP3   OH266870   1.333   1.062  13.940  0.3772 -0.2284  0.2053
15152TIP3    H166871   1.301   0.974  13.960  0.2856  0.0390  1.3237
15152TIP3    H266872   1.263   1.102  13.889  0.1654 -0.6036  0.1976
15153TIP3   OH266873   4.222   3.337  13.835  0.1472 -0.0111 -0.2197
15153TIP3    H166874   4.148   3.279  13.854  0.6507 -0.5682  0.0711
15153TIP3    H266875   4.221   3.347  13.739 -0.6881  0.5131 -0.1632
15154TIP3   OH266876   5.030   0.782  15.519  0.6456  0.1533 -0.1499
15154TIP3    H166877   5.093   0.763  15.588 -0.2466  1.3546  1.0410
15154TIP3    H266878   4.965   0.711  15.526  0.8613 -0.0447 -0.1453
15155TIP3   OH266879   5.531   3.195  11.408  0.1894 -0.2731 -0.5715
15155TIP3    H166880   5.465   3.227  11.346  1.0512  2.2060 -0.3388
15155TIP3    H266881   5.492   3.209  11.494  1.0227  1.4991 -0.4166
15156TIP3   OH266882   1.580   0.215   2.165  0.4590 -0.1049  0.1488
15156TIP3    H166883   1.621   0.274   2.102  1.3798 -1.6063 -0.7427
15156TIP3    H266884   1.503   0.262   2.197  1.6888  1.9600  0.2688
15157TIP3   OH266885   2.785   3.650  11.472 -0.0987  0.0210 -0.7328
15157TIP3    H166886   2.860   3.706  11.490  0.3052 -0.3055 -1.3763
15157TIP3    H266887   2.784   3.588  11.545  1.0149 -0.7516 -1.3372
15158TIP3   OH266888   3.812   4.502  15.759 -1.0640 -0.7014  0.4657
15158TIP3    H166889   3.865   4.456  15.823 -0.2183  0.1000  0.3597
15158TIP3    H266890   3.762   4.566  15.810  0.5312  0.7992  0.2433
15159TIP3   OH266891   4.679   4.871  12.814  0.6840 -0.2076 -0.1189
15159TIP3    H166892   4.757   4.866  12.869  0.7008  0.2847 -0.0874
15159TIP3    H266893   4.629   4.793  12.836  1.2299 -0.5952 -0.2341
15160TIP3   OH266894   2.705   4.893   3.013 -0.3046 -0.4039 -0.6039
15160TIP3    H166895   2.719   4.894   3.108  2.0523  1.1293 -0.8704
15160TIP3    H266896   2.630   4.950   2.998 -0.2076 -0.0222  0.3107
15161TIP3   OH266897   3.283   4.793  15.762  0.2323 -0.0230 -0.0330
15161TIP3    H166898   3.319   4.833  15.841 -0.3298 -0.8718  0.6736
15161TIP3    H266899   3.349   4.729  15.735  0.0056 -0.4145  0.3186
15162TIP3   OH266900   2.106   0.760   5.585  0.4222  0.0800  0.1048
15162TIP3    H166901   2.201   0.766   5.577  0.5284 -1.1148  0.3212
15162TIP3    H266902   2.076   0.728   5.500  0.0027  2.2569 -0.6138
15163TIP3   OH266903   2.608   0.781  17.072 -0.6545  0.1649 -0.0013
15163TIP3    H166904   2.532   0.826  17.034 -0.8656 -0.0694  0.1362
15163TIP3    H266905   2.570   0.720  17.135 -0.3212  0.3480  0.3783
15164TIP3   OH266906   3.846   2.557   5.562 -0.1327  0.0562  0.1375
15164TIP3    H166907   3.939   2.543   5.583  0.1931  1.4046 -0.2898
15164TIP3    H266908   3.806   2.579   5.646 -0.0415 -0.3612  0.2955
15165TIP3   OH266909   0.029   5.153  10.836  0.6130 -0.1825  0.1462
15165TIP3    H166910  -0.063   5.130  10.851  0.8851 -1.0682  0.5432
15165TIP3    H266911   0.026   5.233  10.784 -0.3959 -1.0223 -1.1524
15166TIP3   OH266912   2.904   3.105  11.864  0.5508 -0.5787 -0.1325
15166TIP3    H166913   2.916   3.104  11.959 -0.6082  3.1557  0.2409
15166TIP3    H266914   2.809   3.106  11.852  0.6903 -1.1261 -1.3636
15167TIP3   OH266915   3.303   6.278   1.618  0.0154  0.3761 -0.0169
15167TIP3    H166916   3.370   6.343   1.638 -0.2186  0.0192  2.2341
15167TIP3    H266917   3.302   6.272   1.523  1.1106  2.5234 -0.2148
15168TIP3   OH266918   4.348   1.010  16.364 -0.7913  0.1144 -0.0051
15168TIP3    H166919   4.429   1.039  16.324 -1.0992  0.5171 -0.3452
15168TIP3    H266920   4.365   1.012  16.458 -0.6218  0.8513 -0.0464
15169TIP3   OH266921   6.561   5.711  16.504 -0.3751  0.3101 -0.0257
15169TIP3    H166922   6.562   5.775  16.434 -0.0016 -0.5281 -0.8138
15169TIP3    H266923   6.619   5.747  16.571  2.2230 -0.5129 -1.6946
15170TIP3   OH266924   4.646   6.113   1.128  0.0340 -0.3595  1.0296
15170TIP3    H166925   4.620   6.031   1.169  0.4922 -0.3537  1.3375
15170TIP3    H266926   4.740   6.121   1.147  0.1793 -0.1995  0.2487
15171TIP3   OH266927   5.088   1.028  12.498 -0.2009  0.2319 -0.0768
15171TIP3    H166928   5.123   0.978  12.425 -3.2167 -0.3130 -1.2944
15171TIP3    H266929   5.083   0.965  12.570  0.2262  0.0246 -0.2250
15172TIP3   OH266930   6.435   5.593   3.210 -0.2462 -0.7518  0.5066
15172TIP3    H166931   6.461   5.629   3.295  1.9319  2.5078 -1.3292
15172TIP3    H266932   6.400   5.668   3.162  1.6745 -1.6621 -2.5862
15173TIP3   OH266933   0.453   5.862  13.461 -0.3299  0.1059 -0.4231
15173TIP3    H166934   0.530   5.822  13.422 -0.1542  0.8536 -0.8580
15173TIP3    H266935   0.426   5.928  13.398 -1.0095  0.2146 -0.0240
15174TIP3   OH266936   0.137   1.272  13.209  0.1543 -0.0054  0.7556
15174TIP3    H166937   0.117   1.306  13.122 -2.4880  2.0491  2.0442
15174TIP3    H266938   0.067   1.209  13.227 -0.5488  1.1083  2.1359
15175TIP3   OH266939   5.571   1.196   5.991  0.9012 -0.6204  0.4105
15175TIP3    H166940   5.662   1.176   5.969  1.0136 -0.7718  0.9926
15175TIP3    H266941   5.575   1.228   6.081  0.4147 -0.3179  0.3263
15176TIP3   OH266942   0.607   5.238  14.886  0.0581 -0.3204  0.4430
15176TIP3    H166943   0.635   5.270  14.971  0.4286 -0.4806  0.3811
15176TIP3    H266944   0.644   5.300  14.823  1.2001 -1.1332  0.2893
15177TIP3   OH266945   4.459   3.293  15.990  0.1754  0.1180  0.6723
15177TIP3    H166946   4.434   3.290  16.083  0.4421 -1.7201  0.7331
15177TIP3    H266947   4.503   3.209  15.975 -1.3334 -0.3619 -1.5146
15178TIP3   OH266948   6.231   1.944  13.464 -0.1066 -0.1162  0.2351
15178TIP3    H166949   6.215   2.037  13.445 -4.1980 -0.1878  2.2240
15178TIP3    H266950   6.258   1.943  13.556  2.6550 -0.8744 -0.4717
15179TIP3   OH266951   4.763   3.303   4.737  0.1467 -0.0574 -0.2821
15179TIP3    H166952   4.792   3.391   4.763  1.2811 -0.6485  0.5311
15179TIP3    H266953   4.679   3.318   4.694  1.2053  1.6400 -1.9299
15180TIP3   OH266954   1.718   3.666   1.981 -0.0514  0.1922 -0.6261
15180TIP3    H166955   1.776   3.743   1.971 -0.9137  1.2046  1.5500
15180TIP3    H266956   1.647   3.682   1.919  0.4392  0.4929 -1.1220
15181TIP3   OH266957   2.642   3.489  12.307  0.6559  0.2020  0.2074
15181TIP3    H166958   2.682   3.405  12.329  1.1134  0.7986  1.7919
15181TIP3    H266959   2.716   3.545  12.281  0.7022  0.8085  1.5297
15182TIP3   OH266960   2.180   6.095   4.675 -0.0010  0.0046 -0.3710
15182TIP3    H166961   2.244   6.032   4.710 -0.4265  0.0060  0.4468
15182TIP3    H266962   2.104   6.087   4.733 -0.5088  0.4480 -0.9576
15183TIP3   OH266963   0.803   3.955   0.371  0.0181 -0.0466 -0.3993
15183TIP3    H166964   0.849   3.911   0.300 -0.0648  2.9023 -2.4839
15183TIP3    H266965   0.716   3.974   0.336 -0.2308  0.9937  0.6696
15184TIP3   OH266966   4.194   4.481   0.540 -0.7927 -0.2389 -0.8165
15184TIP3    H166967   4.261   4.506   0.476 -0.7910 -1.1611 -1.1849
15184TIP3    H266968   4.144   4.561   0.554  1.1081  0.8352  0.3901
15185TIP3   OH266969   4.219   0.455   5.938  0.4544 -0.2145  0.1807
15185TIP3    H166970   4.157   0.468   6.010  0.6382 -0.5484  0.4033
15185TIP3    H266971   4.196   0.370   5.902  1.5798 -0.9440  1.0811
15186TIP3   OH266972   6.414   3.198   2.397 -0.1537 -0.6335  0.1427
15186TIP3    H166973   6.447   3.256   2.465  0.0656  0.0481 -0.5276
15186TIP3    H266974   6.468   3.119   2.403  1.0386  0.1064 -0.3552
15187TIP3   OH266975   2.320   4.835   0.617  0.8366  0.3638 -0.3138
15187TIP3    H166976   2.413   4.831   0.642  0.4093 -0.8804  1.2061
15187TIP3    H266977   2.315   4.785   0.535  1.9703  3.0559 -2.1881
15188TIP3   OH266978   3.861   1.287   4.369  0.6015  0.2443  0.0887
15188TIP3    H166979   3.770   1.299   4.393  0.3746  1.8027 -1.3627
15188TIP3    H266980   3.910   1.336   4.435  0.4515 -0.9933  1.1491
15189TIP3   OH266981   5.034   4.200  11.418  0.1316  0.1615  0.4074
15189TIP3    H166982   5.108   4.141  11.400 -0.5222  0.0193 -2.1708
15189TIP3    H266983   4.966   4.173  11.355 -1.3429  1.6478  1.2975
15190TIP3   OH266984   1.578   2.420  14.546  0.1210 -0.2493 -0.0670
15190TIP3    H166985   1.674   2.416  14.555  0.0566 -0.3715  0.5688
15190TIP3    H266986   1.562   2.393  14.455  0.6603 -0.6587 -0.0463
15191TIP3   OH266987   5.726   0.224   3.973 -0.2806  0.3232  0.1671
15191TIP3    H166988   5.723   0.310   3.931 -1.8379 -0.4249 -1.4163
15191TIP3    H266989   5.747   0.242   4.064 -0.1121  2.3334 -0.2185
15192TIP3   OH266990   6.206   6.633   1.030 -0.0382  0.0514 -0.1590
15192TIP3    H166991   6.194   6.707   1.090 -1.4622 -1.4465  1.5090
15192TIP3    H266992   6.297   6.640   1.002  0.4114  1.3474  1.4625
15193TIP3   OH266993   5.961   1.624   4.941 -0.3128  1.0129 -0.4108
15193TIP3    H166994   6.056   1.610   4.936 -0.5286 -0.8980  0.0617
15193TIP3    H266995   5.932   1.621   4.850 -0.1515 -0.3790 -0.4266
15194TIP3   OH266996   5.859   5.363   1.258  0.1755  0.2898 -0.2498
15194TIP3    H166997   5.832   5.272   1.270  0.8999  0.2633  1.4142
15194TIP3    H266998   5.789   5.402   1.204 -1.6263 -0.5270  1.3938
15195TIP3   OH266999   0.296   2.472   5.321  0.2005 -0.4399 -0.2039
15195TIP3    H167000   0.334   2.433   5.243  1.0382 -1.1995  0.5512
15195TIP3    H267001   0.356   2.447   5.392 -0.9268 -0.3994  0.8017
15196TIP3   OH267002   5.326   0.774   2.355 -0.3027  0.3926  0.3394
15196TIP3    H167003   5.396   0.833   2.327  0.2148 -0.1468  0.4605
15196TIP3    H267004   5.371   0.691   2.371 -1.0972 -0.1866 -0.3511
15197TIP3   OH267005   4.615   1.807   4.435  0.6262 -0.1953 -0.0189
15197TIP3    H167006   4.547   1.777   4.495 -0.7466  0.6245 -1.1218
15197TIP3    H267007   4.697   1.788   4.481 -0.3577 -0.2421  1.7998
15198TIP3   OH267008   4.980   0.654  14.374  0.5122  0.2531 -0.0363
15198TIP3    H167009   4.918   0.630  14.444  0.3409 -0.0887 -0.3048
15198TIP3    H267010   5.062   0.669  14.420 -0.1883  2.6050  0.5931
15199TIP3   OH267011   6.422   3.439   0.631  0.5821  0.6255 -0.4486
15199TIP3    H167012   6.398   3.379   0.561  0.4573 -0.5177  0.5370
15199TIP3    H267013   6.508   3.408   0.661 -0.0119  0.1517  0.8626
15200TIP3   OH267014   4.371   0.215   4.825  0.2062 -0.9140  0.0349
15200TIP3    H167015   4.335   0.128   4.841  1.5375 -1.5745 -0.3996
15200TIP3    H267016   4.332   0.241   4.741 -1.4519 -0.3661  0.9355
15201TIP3   OH267017   4.727   2.423   4.680  0.2232 -0.1361 -0.3201
15201TIP3    H167018   4.657   2.376   4.636 -0.7082  0.6444  0.2909
15201TIP3    H267019   4.708   2.516   4.664  0.3489  0.1345  0.9695
15202TIP3   OH267020   1.443   6.746  14.967  0.2776  0.0371  0.0360
15202TIP3    H167021   1.354   6.723  14.993  0.2028  1.1432  0.8277
15202TIP3    H267022   1.450   6.840  14.984  1.9160 -0.1978  0.9866
15203TIP3   OH267023   5.575   0.630   0.367  0.4157  0.1133 -0.1017
15203TIP3    H167024   5.497   0.627   0.422  0.4607  0.5086 -0.0177
15203TIP3    H267025   5.625   0.705   0.399  0.6881  0.0420 -0.3509
15204TIP3   OH267026   5.593   4.989   5.901 -0.2625  0.0663  0.6512
15204TIP3    H167027   5.638   5.020   5.979 -0.2128  0.4036  0.4902
15204TIP3    H267028   5.633   5.038   5.829  0.6695 -1.2270  0.2407
15205TIP3   OH267029   4.588   0.279  12.196 -0.0373  0.1956 -0.1453
15205TIP3    H167030   4.632   0.271  12.112  0.9942 -0.1490  0.4140
15205TIP3    H267031   4.623   0.359  12.234  1.2893 -0.8526  0.9523
15206TIP3   OH267032   6.616   1.185   6.030 -0.0834  0.1484  0.4424
15206TIP3    H167033   6.693   1.163   6.083  0.4853  1.0510  0.0203
15206TIP3    H267034   6.543   1.143   6.076  0.6225 -0.5507  0.9707
15207TIP3   OH267035   5.802   1.875   1.271 -1.0490 -0.8775 -0.0467
15207TIP3    H167036   5.831   1.787   1.248 -1.6172 -1.5778  1.7486
15207TIP3    H267037   5.721   1.862   1.321 -1.2985  0.6739  0.0111
15208TIP3   OH267038   4.390   0.038   5.725 -0.0853  0.3543 -0.3840
15208TIP3    H167039   4.464   0.005   5.676  0.6991  0.3284  0.7760
15208TIP3    H267040   4.388  -0.015   5.805 -0.9804  0.7513 -0.1270
15209TIP3   OH267041   4.604   1.387  11.341  0.4747  0.3859 -0.7264
15209TIP3    H167042   4.512   1.364  11.327  0.0805  1.6412 -0.3449
15209TIP3    H267043   4.651   1.303  11.340 -1.0085 -0.5775  1.7778
15210TIP3   OH267044   4.912   6.474  14.422 -0.6204  0.1139 -1.0636
15210TIP3    H167045   4.834   6.430  14.391 -1.2960  0.3747  0.1938
15210TIP3    H267046   4.910   6.463  14.517  1.6759 -1.2147 -1.0791
15211TIP3   OH267047   3.865   0.567   3.143 -0.4513 -0.0643  0.4310
15211TIP3    H167048   3.837   0.592   3.055  0.8865  0.2238  0.0681
15211TIP3    H267049   3.835   0.638   3.199  1.2874  1.2643 -0.2550
15212TIP3   OH267050   1.659   5.857  15.657  0.2071  0.5156 -0.0070
15212TIP3    H167051   1.658   5.915  15.733 -0.2523  2.1470 -1.2091
15212TIP3    H267052   1.585   5.887  15.603  0.4116 -0.7181 -1.0152
15213TIP3   OH267053   3.827   4.181  13.555  0.2606  0.2745  0.5827
15213TIP3    H167054   3.875   4.158  13.635 -2.5546  2.0463  3.0302
15213TIP3    H267055   3.862   4.267  13.531 -0.3191  0.7023  1.2266
15214TIP3   OH267056   0.799   4.177   4.825 -0.1901 -0.1720 -0.2268
15214TIP3    H167057   0.800   4.267   4.858 -3.1598 -0.7651  1.8562
15214TIP3    H267058   0.739   4.180   4.750 -1.2010 -0.5469  0.5379
15215TIP3   OH267059   5.934   4.676   2.733  0.4411 -0.2688 -0.8645
15215TIP3    H167060   5.902   4.762   2.763 -2.0337 -1.4038  0.0491
15215TIP3    H267061   6.002   4.653   2.796  0.0612  0.3615 -0.2016
15216TIP3   OH267062   2.613   2.373   0.117 -0.5097 -0.5776  0.2690
15216TIP3    H167063   2.519   2.356   0.122 -0.2258 -2.0130  0.9628
15216TIP3    H267064   2.647   2.305   0.058  0.2609 -0.7693  0.9217
15217TIP3   OH267065   1.435   3.658  12.895 -0.2735  0.2532  0.1399
15217TIP3    H167066   1.342   3.653  12.915 -0.5603 -1.7922 -1.3630
15217TIP3    H267067   1.479   3.646  12.980 -1.4184 -1.8405  0.5056
15218TIP3   OH267068   2.788   6.536   5.298  0.1780  0.2962  0.7435
15218TIP3    H167069   2.883   6.551   5.305  0.3729  0.2270 -1.2383
15218TIP3    H267070   2.779   6.441   5.297  0.4228  0.2226 -1.9121
15219TIP3   OH267071   2.846   2.115   2.640 -0.1767  0.0160  0.5409
15219TIP3    H167072   2.859   2.206   2.612  0.4356 -0.1514  0.2865
15219TIP3    H267073   2.782   2.080   2.577 -0.3239  0.2337  0.5678
15220TIP3   OH267074   0.396   2.826   3.781 -0.2177 -0.4048 -0.3438
15220TIP3    H167075   0.414   2.765   3.852  1.0829 -1.9947 -1.9291
15220TIP3    H267076   0.351   2.774   3.715 -1.5360  1.0658 -0.6650
15221TIP3   OH267077   2.423   4.567   4.975 -0.1647 -0.0721  0.2667
15221TIP3    H167078   2.449   4.658   4.986  0.5365 -0.1583 -0.5311
15221TIP3    H267079   2.500   4.525   4.937  0.0951 -1.3547  2.0696
15222TIP3   OH267080   0.340   2.990  15.507  0.2539 -0.5843  0.6237
15222TIP3    H167081   0.282   2.925  15.469 -0.0079 -0.0019  0.0296
15222TIP3    H267082   0.370   3.043  15.433  2.6532 -1.7281  0.6833
15223TIP3   OH267083   0.006   4.072   1.009 -0.1409  0.2375 -0.1548
15223TIP3    H167084   0.004   4.106   1.099  2.3552  1.3137 -0.4186
15223TIP3    H267085  -0.003   3.978   1.019  2.3477  0.0794  1.4889
15224TIP3   OH267086   4.359   0.064   0.821  0.7200  0.2534 -0.0350
15224TIP3    H167087   4.450   0.093   0.825  0.7769 -0.0585  1.1320
15224TIP3    H267088   4.364  -0.027   0.793  0.9322 -0.4266  2.0501
15225TIP3   OH267089   4.895   4.361   6.246  0.1460  0.3870 -0.3137
15225TIP3    H167090   4.893   4.371   6.151 -2.2373  1.7312 -0.2120
15225TIP3    H267091   4.894   4.267   6.261 -1.1815  0.1520 -1.6574
15226TIP3   OH267092   1.307   5.007  16.322  0.4154  0.4419 -0.2257
15226TIP3    H167093   1.384   4.987  16.375 -1.1691  1.4508  2.6985
15226TIP3    H267094   1.284   5.097  16.345 -1.5094  0.2590 -1.1597
15227TIP3   OH267095   1.872   6.410  14.721 -0.2528  0.2251  0.2144
15227TIP3    H167096   1.941   6.357  14.762  1.4057 -1.0077 -3.7126
15227TIP3    H267097   1.899   6.500  14.737  1.7932 -0.2322 -0.3199
15228TIP3   OH267098   0.848   6.569  15.179  0.1956  0.1982  0.3056
15228TIP3    H167099   0.826   6.606  15.264  3.7767 -2.4209  2.6992
15228TIP3    H267100   0.930   6.612  15.155  0.4154 -0.7054 -0.6329
15229TIP3   OH267101   5.548   1.457  12.949 -0.1699  0.0566  0.6939
15229TIP3    H167102   5.600   1.377  12.947 -0.2925 -0.0241 -0.8934
15229TIP3    H267103   5.493   1.450  13.027  0.8198 -0.7479  1.3233
15230TIP3   OH267104   2.072   5.592  14.372  0.1493  0.0773  0.5093
15230TIP3    H167105   2.106   5.664  14.319 -1.1983 -0.5934 -1.3688
15230TIP3    H267106   2.090   5.618  14.463  2.4609  1.3059 -0.2410
15231TIP3   OH267107   2.000   6.426   5.892  0.4847  0.3734  0.0272
15231TIP3    H167108   1.972   6.334   5.889 -0.3619  0.6370 -0.6535
15231TIP3    H267109   2.047   6.434   5.975  1.0430 -0.8045 -0.1586
15232TIP3   OH267110   0.254   1.565  14.398 -0.4215 -0.1616 -0.2795
15232TIP3    H167111   0.348   1.567  14.414 -0.2175 -0.1345 -1.3884
15232TIP3    H267112   0.236   1.647  14.352 -1.0720  0.0403  0.3155
15233TIP3   OH267113   5.747   5.408  11.121  0.3643 -0.1864  0.1325
15233TIP3    H167114   5.815   5.440  11.179 -0.5340  1.2197  0.4480
15233TIP3    H267115   5.781   5.423  11.033  1.1020 -0.9528  0.2769
15234TIP3   OH267116   5.382   2.108  16.102 -0.7608 -0.1864 -0.1828
15234TIP3    H167117   5.344   2.045  16.041 -0.5964  0.8072 -1.3504
15234TIP3    H267118   5.314   2.121  16.169 -1.6458  0.0192 -1.1047
15235TIP3   OH267119   6.005   6.299   3.762 -0.2402 -0.2341  0.6443
15235TIP3    H167120   6.002   6.204   3.749  0.0556 -0.3110  1.1152
15235TIP3    H267121   5.942   6.315   3.833  1.3301 -0.3681  2.1322
15236TIP3   OH267122   4.888   5.068   3.281 -0.0209 -0.0029  0.1090
15236TIP3    H167123   4.910   5.120   3.358 -1.5454  0.9280 -0.0333
15236TIP3    H267124   4.856   4.985   3.317  0.0387  0.1224  0.4549
15237TIP3   OH267125   4.080   1.594   4.863 -0.6462  0.2976 -0.6766
15237TIP3    H167126   3.985   1.598   4.873 -0.5684 -0.8521  0.7386
15237TIP3    H267127   4.113   1.660   4.924 -0.4546 -1.5416  1.3130
15238TIP3   OH267128   5.112   4.732   3.187 -0.1980 -0.0343  0.2430
15238TIP3    H167129   5.144   4.822   3.189 -0.5437  0.0917  0.1020
15238TIP3    H267130   5.064   4.721   3.269  1.5095 -0.7133  1.2010
15239TIP3   OH267131   3.278   2.416   4.292 -0.3313 -0.4150 -0.1084
15239TIP3    H167132   3.333   2.391   4.218  0.0110 -0.0944  0.0373
15239TIP3    H267133   3.247   2.332   4.328 -1.6443 -0.5650 -1.4469
15240TIP3   OH267134   1.798   2.298   0.406 -0.4288  0.6207  0.1445
15240TIP3    H167135   1.740   2.276   0.333  0.3568  1.5965 -0.8062
15240TIP3    H267136   1.794   2.222   0.464 -0.9576 -0.2426 -0.9876
15241TIP3   OH267137   2.798   3.696  12.555 -0.1492  0.4725  0.0432
15241TIP3    H167138   2.882   3.679  12.511  1.0786  0.5488  2.1978
15241TIP3    H267139   2.819   3.763  12.620 -2.3962  2.0441 -0.7554
15242TIP3   OH267140   4.542   5.325  13.203  0.2958 -0.5043 -0.0802
15242TIP3    H167141   4.595   5.276  13.140 -1.4598 -3.1331  0.3388
15242TIP3    H267142   4.508   5.400  13.153  0.0716 -1.7476 -1.8581
15243TIP3   OH267143   5.785   3.294   5.528  0.2137  0.5494 -0.5250
15243TIP3    H167144   5.799   3.272   5.620 -2.0210  2.0653  0.2606
15243TIP3    H267145   5.751   3.213   5.489 -3.1708  0.9655  1.1499
15244TIP3   OH267146   2.256   1.473  15.194 -0.0111 -0.1320  0.5107
15244TIP3    H167147   2.341   1.448  15.157  0.0684 -0.8688  1.1644
15244TIP3    H267148   2.197   1.475  15.118  0.6572  0.7452 -0.0062
15245TIP3   OH267149   5.450   4.876  10.221 -0.1286 -0.0982  0.0489
15245TIP3    H167150   5.521   4.825  10.185  0.5063  0.3627  0.6217
15245TIP3    H267151   5.489   4.961  10.242 -0.9517  0.3173 -0.0612
15246TIP3   OH267152   3.721   6.443   1.537 -0.0420 -0.1796  0.2031
15246TIP3    H167153   3.786   6.474   1.473  0.4476  0.0928  0.8291
15246TIP3    H267154   3.638   6.481   1.506  0.2736  0.3654  0.0121
15247TIP3   OH267155   6.544   0.390   2.739 -0.4642  0.1714 -0.3049
15247TIP3    H167156   6.573   0.400   2.649 -0.7425 -2.5618 -0.7984
15247TIP3    H267157   6.577   0.304   2.765 -0.3132  0.9199  2.2579
15248TIP3   OH267158   5.723   2.891  16.338  0.2309 -0.0207 -0.0836
15248TIP3    H167159   5.772   2.892  16.256  0.1198  1.3426 -0.1592
15248TIP3    H267160   5.790   2.905  16.405  0.2100 -0.2792 -0.0082
15249TIP3   OH267161   0.596   0.601  11.236  0.1853  0.2342 -0.2246
15249TIP3    H167162   0.583   0.595  11.330  1.7732 -0.0986 -0.0001
15249TIP3    H267163   0.570   0.515  11.202 -0.3605  0.3460 -0.0893
15250TIP3   OH267164   4.622   4.251   1.078  0.5448  0.2605 -0.3691
15250TIP3    H167165   4.631   4.179   1.016 -0.4524 -1.8951  1.7744
15250TIP3    H267166   4.711   4.278   1.097  1.0512 -1.3685 -0.2571
15251TIP3   OH267167   5.948   1.229   0.129  0.2825 -0.7588 -0.5057
15251TIP3    H167168   6.028   1.177   0.130 -0.8102 -2.5537 -1.3865
15251TIP3    H267169   5.915   1.224   0.218  1.6207  0.8579  0.1389
15252TIP3   OH267170   1.117   0.286  16.764  0.2588 -0.2560  0.7083
15252TIP3    H167171   1.049   0.238  16.811 -0.5948 -0.4244 -0.6190
15252TIP3    H267172   1.190   0.224  16.757 -0.0653 -0.6496  0.7718
15253TIP3   OH267173   4.545   5.907   4.635  0.3871  0.6752 -0.2394
15253TIP3    H167174   4.511   5.841   4.574  1.9939  0.4461 -0.9535
15253TIP3    H267175   4.518   5.991   4.598  0.0991  0.4785 -0.4772
15254TIP3   OH267176   2.751   1.431  15.235  0.4105  0.4561 -0.0792
15254TIP3    H167177   2.748   1.370  15.161  1.7159 -0.7790  0.8354
15254TIP3    H267178   2.845   1.448  15.248  0.0864  3.5230 -0.9378
15255TIP3   OH267179   2.022   1.955   0.660 -0.2335 -0.1737 -0.4465
15255TIP3    H167180   2.118   1.948   0.656 -0.2644 -0.7694 -0.3271
15255TIP3    H267181   1.997   1.893   0.729 -0.7214 -0.1803 -0.6297
15256TIP3   OH267182   3.111   5.228  15.069 -0.6614  0.1543  0.8125
15256TIP3    H167183   3.021   5.249  15.047 -0.6587 -0.0430  0.6087
15256TIP3    H267184   3.162   5.304  15.040 -0.8231  0.5189  1.4485
15257TIP3   OH267185   5.058   6.051   5.612  0.3139 -0.2918  0.1003
15257TIP3    H167186   5.055   6.033   5.518  1.6467  0.9246 -0.2138
15257TIP3    H267187   5.036   6.144   5.620  1.3562 -0.0810  0.8557
15258TIP3   OH267188   3.296   6.817   5.374 -0.1228  0.3212 -0.0112
15258TIP3    H167189   3.382   6.830   5.413 -0.3764  0.9626  0.3366
15258TIP3    H267190   3.248   6.897   5.393 -0.5186  0.3188 -0.9463
15259TIP3   OH267191   0.853   2.993   4.240  0.3509 -0.1284 -0.7180
15259TIP3    H167192   0.850   3.081   4.277  0.8410 -0.0651 -0.8180
15259TIP3    H267193   0.777   2.988   4.182 -0.0076  0.0247 -0.2666
15260TIP3   OH267194   2.331   1.406   3.985  0.0839  0.1821  0.3502
15260TIP3    H167195   2.383   1.467   3.933 -0.1249 -0.7441 -0.9875
15260TIP3    H267196   2.376   1.403   4.070  1.6532  0.1344 -0.4463
15261TIP3   OH267197   3.816   0.550   2.600  0.2373  0.1913 -0.0831
15261TIP3    H167198   3.875   0.609   2.552  0.5733  0.0673  0.1673
15261TIP3    H267199   3.790   0.601   2.677 -0.9269  0.6817 -0.7828
15262TIP3   OH267200   4.264   3.485  16.958  0.2288  0.0915  0.1307
15262TIP3    H167201   4.240   3.411  16.903  0.8025  0.4925 -0.6753
15262TIP3    H267202   4.190   3.545  16.951  0.0358 -0.1265  0.2878
15263TIP3   OH267203   0.235   1.153   1.246 -0.4268 -0.2358 -0.0014
15263TIP3    H167204   0.194   1.221   1.299 -0.2101 -0.1148  0.0074
15263TIP3    H267205   0.302   1.115   1.303  0.0355  0.1221 -0.3062
15264TIP3   OH267206   1.125   1.430   5.144 -0.2037 -0.6173  0.7424
15264TIP3    H167207   1.161   1.457   5.229 -0.6305 -1.3606  1.1711
15264TIP3    H267208   1.178   1.476   5.080  2.1001 -2.2882  1.3048
15265TIP3   OH267209   0.886   3.380   1.970  0.2937  0.4495 -0.0416
15265TIP3    H167210   0.851   3.359   2.057 -0.0165 -2.5681 -0.7639
15265TIP3    H267211   0.971   3.337   1.967 -0.1253 -0.3821 -1.5117
15266TIP3   OH267212   1.779   0.541  12.732 -0.4090  0.6201 -0.4190
15266TIP3    H167213   1.859   0.548  12.786  0.7685 -1.1660 -1.8198
15266TIP3    H267214   1.809   0.560  12.643 -1.7825  0.9284 -0.8280
15267TIP3   OH267215   1.183   4.824   4.041 -0.1832 -0.2996 -0.0153
15267TIP3    H167216   1.122   4.794   4.108 -0.1631 -0.4638 -0.0690
15267TIP3    H267217   1.169   4.918   4.035 -1.7130 -0.5774 -1.3058
15268TIP3   OH267218   6.320   5.388  13.884 -0.1228  0.5159  0.1111
15268TIP3    H167219   6.280   5.346  13.960  2.1620 -1.2379  0.4847
15268TIP3    H267220   6.385   5.448  13.921  1.1207 -0.4722 -0.3973
15269TIP3   OH267221   1.652   6.692  11.689 -0.1758 -0.2007  0.0178
15269TIP3    H167222   1.595   6.761  11.724 -0.3726 -0.1963 -0.3083
15269TIP3    H267223   1.616   6.611  11.723 -1.3713 -0.3424 -1.4933
15270TIP3   OH267224   5.326   4.871  16.840 -0.1117  0.1960  0.3003
15270TIP3    H167225   5.379   4.939  16.799 -0.2244  0.6912  0.9670
15270TIP3    H267226   5.308   4.809  16.769 -0.6799  1.2582 -0.5103
15271TIP3   OH267227   3.696   4.190  13.221  0.0931 -0.9163  0.0041
15271TIP3    H167228   3.625   4.167  13.160 -0.6414 -0.1460  0.5497
15271TIP3    H267229   3.719   4.106  13.262 -0.1303 -1.2663 -0.5627
15272TIP3   OH267230   4.478   2.288  14.552  0.2609 -0.1157 -0.0891
15272TIP3    H167231   4.473   2.263  14.644  0.6716 -0.3188 -0.1181
15272TIP3    H267232   4.401   2.344  14.538  1.4988  2.0098  1.0351
15273TIP3   OH267233   3.272   3.433  16.179 -0.9469  0.3582  0.2056
15273TIP3    H167234   3.311   3.359  16.226 -0.0645  2.3088  2.8435
15273TIP3    H267235   3.263   3.403  16.089  1.9882 -2.0047  0.5370
15274TIP3   OH267236   3.168   4.251   3.841 -0.3357 -0.0631  0.4485
15274TIP3    H167237   3.178   4.326   3.899 -1.0715 -0.7505  1.4817
15274TIP3    H267238   3.082   4.216   3.861 -0.3637 -0.6566 -0.6611
15275TIP3   OH267239   0.947   2.053  12.898 -0.5069 -0.0948  0.4583
15275TIP3    H167240   0.940   1.977  12.955 -0.5014  1.4208  2.6065
15275TIP3    H267241   0.858   2.088  12.893 -0.1269  1.0941  1.5004
15276TIP3   OH267242   1.225   5.937  17.022 -0.2350  0.0833 -0.8519
15276TIP3    H167243   1.243   5.929  16.928  1.4000  0.9516 -0.6611
15276TIP3    H267244   1.270   6.018  17.048  0.1426 -0.6310  0.8594
15277TIP3   OH267245   6.744   3.328  10.174  0.5372 -0.1166  0.5287
15277TIP3    H167246   6.662   3.337  10.126  0.7656 -0.9200 -0.0394
15277TIP3    H267247   6.789   3.411  10.160  1.1541 -0.7850 -1.7430
15278TIP3   OH267248   5.878   4.559   0.052  0.1963 -0.2862 -0.1160
15278TIP3    H167249   5.918   4.542   0.138 -0.8264  2.0968  0.9171
15278TIP3    H267250   5.791   4.521   0.058 -0.1399  0.5185  0.1935
15279TIP3   OH267251   0.258   0.163   2.509  0.0730 -0.5942  0.2795
15279TIP3    H167252   0.215   0.248   2.512  1.7675  0.3032  0.6799
15279TIP3    H267253   0.311   0.160   2.589 -1.2228 -2.7553  1.1359
15280TIP3   OH267254   1.632   1.302  15.443 -0.0972 -0.5879  0.0029
15280TIP3    H167255   1.576   1.226  15.459 -0.4890 -0.2018  0.5147
15280TIP3    H267256   1.613   1.361  15.516  0.4931 -0.1680 -0.1779
15281TIP3   OH267257   6.259   0.959  10.743 -0.1488  0.0034 -0.1638
15281TIP3    H167258   6.196   0.909  10.692 -0.5017 -0.6805  0.9102
15281TIP3    H267259   6.316   0.892  10.783  0.5827  0.5593 -0.2510
15282TIP3   OH267260   0.488   1.990   3.545 -0.2109 -0.0862  0.2171
15282TIP3    H167261   0.466   2.053   3.476 -0.2504 -1.4283 -1.0405
15282TIP3    H267262   0.448   1.908   3.516  1.6235 -1.2150  0.7317
15283TIP3   OH267263   3.927   3.810  16.620 -0.1582  0.5759 -0.5365
15283TIP3    H167264   3.983   3.734  16.632 -0.2050  0.2622 -2.0664
15283TIP3    H267265   3.864   3.806  16.692  0.2148 -0.4966 -0.2555
15284TIP3   OH267266   0.378   0.376  12.019  0.5582  0.2443 -0.1136
15284TIP3    H167267   0.456   0.362  12.073 -0.3671 -0.1737  1.1740
15284TIP3    H267268   0.411   0.421  11.941  2.0868  0.0258  0.3613
15285TIP3   OH267269   0.393   4.655  14.077  0.3297  0.2813  0.3609
15285TIP3    H167270   0.469   4.597  14.084 -0.6276 -0.9857  0.6215
15285TIP3    H267271   0.431   4.742  14.063  1.8166 -0.3392  0.3037
15286TIP3   OH267272   4.457   3.629   2.908 -0.1949  0.4657 -0.4000
15286TIP3    H167273   4.507   3.578   2.844  0.3643 -0.0516  0.4209
15286TIP3    H267274   4.519   3.696   2.938  0.8138 -1.4008  2.1173
15287TIP3   OH267275   1.691   6.402   4.902  0.2912  0.3093  0.1919
15287TIP3    H167276   1.751   6.364   4.838  1.0639  0.4062  0.8374
15287TIP3    H267277   1.616   6.343   4.903  0.7578 -0.2991 -0.0017
15288TIP3   OH267278   3.778   0.139   2.509  0.4283 -0.2256  0.5489
15288TIP3    H167279   3.783   0.194   2.586  0.8214  1.6678 -0.7638
15288TIP3    H267280   3.822   0.058   2.534  0.0264  0.1017  2.4613
15289TIP3   OH267281   1.002   5.046   4.279 -0.4827  0.8525 -0.2026
15289TIP3    H167282   1.005   5.139   4.259 -1.8276  0.9605 -0.0172
15289TIP3    H267283   1.057   5.036   4.356 -0.3771  1.5077 -0.1908
15290TIP3   OH267284   0.094   3.084  16.621 -0.1192 -0.1904 -0.0937
15290TIP3    H167285   0.149   3.144  16.571  1.9617 -1.7328  0.1584
15290TIP3    H267286   0.066   3.134  16.697  0.8816  0.7071 -0.2948
15291TIP3   OH267287   4.802   4.111  15.725 -0.1574  0.3356  0.1241
15291TIP3    H167288   4.864   4.081  15.791  0.3987  0.2665 -0.4222
15291TIP3    H267289   4.736   4.042  15.720  1.2571 -0.9990 -1.3248
15292TIP3   OH267290   3.846   0.919  11.335 -0.4612 -0.3987 -0.1404
15292TIP3    H167291   3.779   0.926  11.403 -0.8630 -1.8707 -0.3617
15292TIP3    H267292   3.857   0.825  11.321  1.2950 -0.1679 -0.4773
15293TIP3   OH267293   5.792   4.213  13.678 -0.1732 -0.3445 -0.0056
15293TIP3    H167294   5.727   4.282  13.691 -0.9308 -1.3101  1.7320
15293TIP3    H267295   5.784   4.190  13.585  2.3723  3.9840 -1.5652
15294TIP3   OH267296   6.080   1.299  12.425 -0.8704 -0.5263 -0.7094
15294TIP3    H167297   5.996   1.344  12.419 -0.5170 -0.0197 -2.4829
15294TIP3    H267298   6.142   1.357  12.380  0.1197 -1.5691 -0.7455
15295TIP3   OH267299   3.361   5.950   5.304 -0.6134 -0.5214 -0.5930
15295TIP3    H167300   3.437   5.998   5.270  0.1405 -0.1891  1.4335
15295TIP3    H267301   3.291   5.972   5.243 -0.4140  3.5074  0.3189
15296TIP3   OH267302   4.339   6.754   1.623  0.0595  0.1585  0.0210
15296TIP3    H167303   4.251   6.725   1.644  0.1331 -0.4186 -0.4344
15296TIP3    H267304   4.394   6.676   1.633  0.7590  0.8212  1.6420
15297TIP3   OH267305   3.832   1.140   4.106 -0.6597  0.2974  0.1198
15297TIP3    H167306   3.846   1.187   4.188 -0.0825  0.5114 -0.0963
15297TIP3    H267307   3.831   1.208   4.039  0.1405  0.0163 -0.1911
15298TIP3   OH267308   5.571   3.643  16.410 -0.2702 -0.0254  0.3923
15298TIP3    H167309   5.509   3.643  16.338 -0.7532 -0.6236  0.7982
15298TIP3    H267310   5.518   3.625  16.488  0.1892  0.9674  0.9524
15299TIP3   OH267311   0.246   1.019  14.055 -0.0232  0.5450 -0.2404
15299TIP3    H167312   0.151   1.034  14.057  0.0342  0.8526  0.7451
15299TIP3    H267313   0.267   0.990  14.144  0.9527  1.3477 -0.1933
15300TIP3   OH267314   1.531   0.772   2.165  0.2564  0.3647  0.2452
15300TIP3    H167315   1.526   0.748   2.258  0.8886  1.1578  0.4902
15300TIP3    H267316   1.519   0.867   2.164 -0.2733  0.2978 -0.5360
15301TIP3   OH267317   5.823   0.931  13.305 -0.5683  0.2103 -0.3831
15301TIP3    H167318   5.835   0.839  13.330  0.9710  0.2359 -0.8853
15301TIP3    H267319   5.908   0.957  13.270 -0.8473  1.9731  0.1568
15302TIP3   OH267320   0.099   1.780   1.870 -0.1756 -0.1259  0.0504
15302TIP3    H167321   0.155   1.852   1.900  0.0985 -0.2064 -0.2600
15302TIP3    H267322   0.026   1.778   1.932  0.4943 -0.4374  0.8421
15303TIP3   OH267323   6.765   0.584  12.440 -0.0756 -0.2123 -0.6353
15303TIP3    H167324   6.853   0.615  12.458 -0.4153  1.5469 -1.7487
15303TIP3    H267325   6.761   0.575  12.344 -0.5883 -1.9851 -0.4921
15304TIP3   OH267326   2.417   6.294   2.551 -0.0320 -0.3355 -0.1966
15304TIP3    H167327   2.422   6.203   2.522  0.0389 -0.2042 -0.5985
15304TIP3    H267328   2.507   6.316   2.574 -0.1091 -0.4813  0.2648
15305TIP3   OH267329   2.765   2.999   4.219  0.1791 -0.0946  0.1810
15305TIP3    H167330   2.784   3.093   4.221  0.1139  0.0353 -2.5187
15305TIP3    H267331   2.671   2.993   4.233  0.3780  0.0930  1.7943
15306TIP3   OH267332   6.439   6.802  10.860  0.2556  0.0285  0.3206
15306TIP3    H167333   6.467   6.759  10.779  1.3248 -1.1068  1.2623
15306TIP3    H267334   6.347   6.779  10.870 -0.1262  0.8665 -0.9732
15307TIP3   OH267335   4.017   0.866   5.030 -0.2721 -0.5884 -0.5823
15307TIP3    H167336   4.088   0.824   5.080  0.2041  1.1335  0.2865
15307TIP3    H267337   3.938   0.849   5.081  0.2577  1.4296  1.0487
15308TIP3   OH267338   3.741   1.754  16.365 -0.7381 -0.4117  0.3878
15308TIP3    H167339   3.715   1.667  16.333 -2.6342  0.8731 -1.8840
15308TIP3    H267340   3.667   1.783  16.418 -0.4930  0.1659  0.4151
15309TIP3   OH267341   2.287   1.209   3.402  0.5478 -0.0911 -0.2830
15309TIP3    H167342   2.235   1.289   3.407  1.4982  0.5435 -0.2952
15309TIP3    H267343   2.225   1.142   3.373 -0.2642  0.6352 -0.2641
15310TIP3   OH267344   0.999   5.928  16.564  0.0480  1.0910  0.2196
15310TIP3    H167345   0.936   5.882  16.619 -0.1256  0.2120 -0.6742
15310TIP3    H267346   0.949   5.955  16.487  0.6758  0.6469 -0.3663
15311TIP3   OH267347   4.063   3.752  14.773  0.4844  0.2289 -0.8149
15311TIP3    H167348   4.102   3.830  14.734  0.8078  0.5962  0.1947
15311TIP3    H267349   4.108   3.743  14.857 -2.6135  1.5808  1.1724
15312TIP3   OH267350   2.278   0.731  12.955  0.5730  0.5254 -0.1871
15312TIP3    H167351   2.271   0.757  13.047  1.2196  0.1326 -0.0213
15312TIP3    H267352   2.368   0.701  12.946  0.4755  0.4482 -0.9245
15313TIP3   OH267353   5.608   3.435   1.762 -0.0868  0.1441  0.4327
15313TIP3    H167354   5.635   3.353   1.721 -1.0094  0.9229 -1.8985
15313TIP3    H267355   5.512   3.430   1.765 -0.1262  0.9038  0.7917
15314TIP3   OH267356   5.411   0.307  14.748 -0.3166 -0.2227 -0.0227
15314TIP3    H167357   5.365   0.332  14.829 -0.6358  1.9198 -0.7802
15314TIP3    H267358   5.503   0.308  14.772 -0.4214  0.1472  0.3971
15315TIP3   OH267359   6.742   2.257   5.823  0.2699  0.1988  0.0184
15315TIP3    H167360   6.739   2.213   5.907  1.8261  1.5056  0.8321
15315TIP3    H267361   6.765   2.348   5.844 -0.0986  0.7591 -1.7592
15316TIP3   OH267362   5.332   3.545  10.833  0.1425 -0.5873 -0.0635
15316TIP3    H167363   5.297   3.624  10.791  1.0312 -0.9876 -1.6557
15316TIP3    H267364   5.276   3.474  10.803  0.7322 -0.8680 -0.5340
15317TIP3   OH267365   1.042   4.433  12.683  0.0635  0.4257  0.0445
15317TIP3    H167366   1.004   4.467  12.602  0.1891 -0.0933 -0.2373
15317TIP3    H267367   1.119   4.384  12.654 -0.7050 -1.0087  0.3263
15318TIP3   OH267368   5.997   5.439   4.750 -0.5713 -0.2223 -0.5326
15318TIP3    H167369   6.087   5.406   4.744 -0.7635 -0.5963 -1.8174
15318TIP3    H267370   5.968   5.416   4.838  0.1073 -1.3978 -0.6025
15319TIP3   OH267371   6.008   2.581   0.612 -0.0358 -0.6278  0.4076
15319TIP3    H167372   6.058   2.511   0.655  2.3089  0.4582 -0.4046
15319TIP3    H267373   6.040   2.581   0.522  0.0689  1.5003  0.4110
15320TIP3   OH267374   4.807   1.580  11.444  0.2670  0.2762  0.1865
15320TIP3    H167375   4.747   1.515  11.408  0.0199  0.4947  0.1977
15320TIP3    H267376   4.805   1.652  11.381 -0.0328  0.5865  0.5452
15321TIP3   OH267377   1.499   4.830  12.764  0.0398 -0.2730 -0.1461
15321TIP3    H167378   1.454   4.752  12.796 -2.5743  0.9877 -0.4859
15321TIP3    H267379   1.472   4.900  12.823 -1.1705  1.1823 -2.2790
15322TIP3   OH267380   0.005   6.119   2.192  0.1168 -0.3346  0.3051
15322TIP3    H167381   0.046   6.045   2.237  1.6722 -0.9090 -1.8860
15322TIP3    H267382  -0.017   6.085   2.105  1.0329  1.7706 -0.8268
15323TIP3   OH267383   5.467   5.446   2.665  0.2264  0.1313 -0.3965
15323TIP3    H167384   5.511   5.403   2.737 -1.6981  2.1514  2.1963
15323TIP3    H267385   5.378   5.411   2.666 -0.3698  1.5585 -0.4950
15324TIP3   OH267386   0.254   3.513  16.524 -0.6589 -0.0183 -0.1848
15324TIP3    H167387   0.223   3.503  16.614 -2.1042  0.3447 -0.6221
15324TIP3    H267388   0.280   3.425  16.497  0.2417 -0.0456  0.7370
15325TIP3   OH267389   2.894   6.771   4.351 -0.4728 -0.7264  0.4336
15325TIP3    H167390   2.823   6.758   4.414 -0.9251  1.3772  0.4349
15325TIP3    H267391   2.850   6.799   4.271  0.2792 -0.5133  0.0868
15326TIP3   OH267392   0.633   4.566   3.787  0.2417  0.0152  0.1534
15326TIP3    H167393   0.567   4.497   3.793  0.2385 -0.2202 -1.7722
15326TIP3    H267394   0.696   4.546   3.856  0.6341 -2.3849 -0.8193
15327TIP3   OH267395   6.011   5.815  14.093 -0.0803  0.6586  0.2367
15327TIP3    H167396   6.096   5.858  14.075  1.0117  0.1448  3.5363
15327TIP3    H267397   6.024   5.724  14.066  0.8129  0.3545  1.6069
15328TIP3   OH267398   6.447   5.186   2.239  0.6410 -0.1857  0.0790
15328TIP3    H167399   6.435   5.097   2.273 -0.3443 -0.4596 -0.9675
15328TIP3    H267400   6.516   5.177   2.173 -0.6362 -0.5151 -1.2525
15329TIP3   OH267401   5.390   1.201  16.731  0.1706  0.2093 -0.3185
15329TIP3    H167402   5.320   1.135  16.725 -0.8784  1.2545  0.1265
15329TIP3    H267403   5.402   1.231  16.641 -2.5309  2.5761 -0.0405
15330TIP3   OH267404   0.133   2.852  11.196 -0.4242 -0.4488 -0.0736
15330TIP3    H167405   0.175   2.785  11.141  0.8369  1.0240 -0.9869
15330TIP3    H267406   0.137   2.932  11.143 -0.6236  0.6671  1.5424
15331TIP3   OH267407   5.926   3.262   4.662 -0.2851  0.1844 -0.1056
15331TIP3    H167408   5.867   3.323   4.706 -1.1361 -0.3833 -0.4453
15331TIP3    H267409   5.917   3.180   4.711  0.4088  0.1559 -0.0095
15332TIP3   OH267410   1.971   1.971  15.079 -0.1472  0.0416 -0.5674
15332TIP3    H167411   2.017   1.889  15.062  1.6534  1.0289 -0.7715
15332TIP3    H267412   1.901   1.974  15.015 -0.1328 -1.2620 -0.6533
15333TIP3   OH267413   3.478   0.370   6.486  0.6952  0.1382  0.9981
15333TIP3    H167414   3.526   0.363   6.403  0.2248  0.0667  0.7238
15333TIP3    H267415   3.544   0.397   6.550  1.0179  0.4391  0.5498
15334TIP3   OH267416   5.126   5.715  12.075 -0.0934 -0.2207  0.7524
15334TIP3    H167417   5.031   5.709  12.076 -0.1279  0.2689  1.8686
15334TIP3    H267418   5.145   5.778  12.006 -0.5033 -1.2224 -0.2966
15335TIP3   OH267419   6.514   1.825   1.746  0.0592  0.5188 -0.1570
15335TIP3    H167420   6.468   1.753   1.703  0.6543 -0.1194  0.2376
15335TIP3    H267421   6.452   1.859   1.810  0.1090 -0.3068  0.3423
15336TIP3   OH267422   2.419   1.799   5.321  0.2594 -0.3740  0.0927
15336TIP3    H167423   2.441   1.771   5.232  0.2452 -1.0231  0.2897
15336TIP3    H267424   2.502   1.801   5.368  0.6396  2.3256 -0.5494
15337TIP3   OH267425   4.073   4.587   0.843  0.1882  0.3089 -0.1469
15337TIP3    H167426   4.095   4.580   0.936  2.4816 -0.9106 -0.7166
15337TIP3    H267427   4.152   4.623   0.803 -0.3536 -0.2696 -1.7878
15338TIP3   OH267428   2.053   2.535   3.449  0.3998 -0.2898 -0.0486
15338TIP3    H167429   2.134   2.583   3.470 -1.5902  1.7836  3.8820
15338TIP3    H267430   1.984   2.600   3.459 -1.9595 -2.3103 -2.0019
15339TIP3   OH267431   3.662   5.464  14.426 -0.4987 -0.3497 -0.5517
15339TIP3    H167432   3.680   5.434  14.516  1.6411  0.5210 -0.6333
15339TIP3    H267433   3.736   5.521  14.405 -1.3178  0.0058 -2.6391
15340TIP3   OH267434   2.480   6.657  13.617 -0.0735  0.1715 -0.3460
15340TIP3    H167435   2.414   6.674  13.550  0.8882  0.5994 -1.2016
15340TIP3    H267436   2.546   6.602  13.573 -0.8523 -2.0463  1.0691
15341TIP3   OH267437   0.823   1.004   4.655  0.5778  0.5344 -0.2930
15341TIP3    H167438   0.911   0.987   4.621  0.4752  1.6556 -1.1612
15341TIP3    H267439   0.834   1.005   4.750  0.8611 -2.7760 -0.1685
15342TIP3   OH267440   6.047   5.567  15.183 -0.1890  0.0782  0.1667
15342TIP3    H167441   6.013   5.523  15.261 -2.3517  0.7780 -0.3195
15342TIP3    H267442   6.026   5.659  15.196  0.6820  0.4139 -0.6386
15343TIP3   OH267443   3.585   4.574  14.177  0.4676  0.4098  0.3736
15343TIP3    H167444   3.674   4.607  14.181  0.4067  0.6072  0.1267
15343TIP3    H267445   3.557   4.590  14.087  0.4901 -0.4634  0.2054
15344TIP3   OH267446   2.117   0.707  13.666 -0.1176  0.7759 -1.0629
15344TIP3    H167447   2.035   0.717  13.617 -0.3267 -0.8958 -1.1279
15344TIP3    H267448   2.105   0.625  13.715  0.9624  1.2605  0.0531
15345TIP3   OH267449   6.734   4.581   4.202 -0.1403 -0.4563  0.3764
15345TIP3    H167450   6.672   4.577   4.129 -0.6161  0.1318  0.7422
15345TIP3    H267451   6.794   4.652   4.179  0.4433 -1.0502  0.0030
15346TIP3   OH267452   4.169   1.908  17.002  0.3188 -0.4317  0.3829
15346TIP3    H167453   4.223   1.863  16.936  2.0420  0.1342  1.3519
15346TIP3    H267454   4.229   1.969  17.044 -1.4343  1.2094  0.6186
15347TIP3   OH267455   5.705   2.416   1.540 -0.5147 -0.3851 -0.5931
15347TIP3    H167456   5.634   2.399   1.603 -2.0454  0.2928 -2.0545
15347TIP3    H267457   5.768   2.346   1.556 -1.4316 -0.9233  0.8844
15348TIP3   OH267458   2.597   2.873  15.013  0.5794 -0.2480 -0.0024
15348TIP3    H167459   2.628   2.814  15.082  0.4033 -0.1212  0.1879
15348TIP3    H267460   2.673   2.889  14.958  0.6138 -0.7090 -0.0919
15349TIP3   OH267461   0.653   5.448   4.497  0.2576  0.0877 -0.8183
15349TIP3    H167462   0.614   5.532   4.475  1.4953  0.4865 -1.6163
15349TIP3    H267463   0.594   5.410   4.562 -1.8671  0.3094 -2.5036
15350TIP3   OH267464   0.534   2.201  12.542  0.4335 -0.0838 -0.0696
15350TIP3    H167465   0.513   2.237  12.629 -0.9339  1.4211 -0.9674
15350TIP3    H267466   0.623   2.233  12.525  1.5734 -2.0931  1.5599
15351TIP3   OH267467   0.331   2.449   3.462  0.1262  0.1015 -0.3223
15351TIP3    H167468   0.305   2.535   3.494 -2.0115 -0.8629  0.6781
15351TIP3    H267469   0.379   2.468   3.381 -1.1055  2.1895 -0.6368
15352TIP3   OH267470   0.432   5.581  15.303 -0.3915  0.3776  1.0082
15352TIP3    H167471   0.371   5.558  15.233 -0.2220 -1.0650  1.2863
15352TIP3    H267472   0.421   5.510  15.367  0.1900  1.1299  1.9545
15353TIP3   OH267473   2.937   1.839  11.508 -0.1130 -0.2455 -0.0564
15353TIP3    H167474   2.937   1.783  11.586  2.5550  0.0369  0.2414
15353TIP3    H267475   2.928   1.928  11.542  2.2689 -0.0074  0.1546
15354TIP3   OH267476   3.796   0.613  10.807  0.2826  0.1801  0.2171
15354TIP3    H167477   3.846   0.559  10.746  1.5764  0.4118  1.0258
15354TIP3    H267478   3.780   0.695  10.759 -0.5899 -0.4379 -0.5623
15355TIP3   OH267479   1.639   2.433  15.512  0.1180 -0.3355  0.1144
15355TIP3    H167480   1.696   2.508  15.494 -0.2047  0.1124  0.9265
15355TIP3    H267481   1.577   2.433  15.439 -0.0649  0.3746  0.2580
15356TIP3   OH267482   1.764   3.630   0.033  0.4340 -0.2789 -0.4631
15356TIP3    H167483   1.748   3.716  -0.005  1.1128 -0.2902 -0.7924
15356TIP3    H267484   1.715   3.630   0.115 -1.6203 -0.4912 -1.6206
15357TIP3   OH267485   1.873   1.025  14.038 -0.2222 -0.0672 -0.0852
15357TIP3    H167486   1.785   1.042  14.004 -0.0345  1.6410  0.1644
15357TIP3    H267487   1.917   0.975  13.969 -1.4675 -1.2324 -0.0729
15358TIP3   OH267488   6.237   0.767  14.148 -0.4643  0.2240 -0.5933
15358TIP3    H167489   6.232   0.853  14.190  2.3524  0.8733 -1.4222
15358TIP3    H267490   6.177   0.712  14.199 -0.2993  1.9896  1.6543
15359TIP3   OH267491   6.714   1.307   5.210 -0.3258  0.8327  0.5950
15359TIP3    H167492   6.697   1.213   5.218 -2.3306  0.9379 -1.3406
15359TIP3    H267493   6.628   1.345   5.191  0.7836  2.7670 -0.8909
15360TIP3   OH267494   3.965   2.333  11.017  0.6430  0.3369  0.1243
15360TIP3    H167495   3.875   2.306  11.031  0.9607  0.6530  3.5409
15360TIP3    H267496   3.993   2.285  10.939 -2.3548  0.0587 -0.8759
15361TIP3   OH267497   0.768   1.377  13.420 -0.3589 -0.1387 -0.2318
15361TIP3    H167498   0.751   1.284  13.406  0.6754 -0.5464  1.0081
15361TIP3    H267499   0.852   1.380  13.466 -1.1155  1.3164  1.1707
15362TIP3   OH267500   2.419   4.808   3.739 -0.2029  0.3583  0.7303
15362TIP3    H167501   2.405   4.902   3.753 -2.8497  0.2524 -0.5572
15362TIP3    H267502   2.397   4.794   3.647 -1.7923 -1.7996  1.3632
15363TIP3   OH267503   4.192   4.307  12.915  0.3221  0.4845  0.2013
15363TIP3    H167504   4.205   4.358  12.995  1.5636  1.7104 -0.7528
15363TIP3    H267505   4.280   4.290  12.882 -0.0438 -2.1149  0.3341
15364TIP3   OH267506   1.237   1.051   3.977  0.1638  0.7404 -0.3040
15364TIP3    H167507   1.213   0.959   3.977 -0.5566  0.8124 -3.2964
15364TIP3    H267508   1.333   1.051   3.979  0.3557 -0.3487 -3.6497
15365TIP3   OH267509   3.194   4.331  13.717 -0.1412 -0.5659 -0.0609
15365TIP3    H167510   3.102   4.317  13.738 -0.5559  0.3142 -1.2007
15365TIP3    H267511   3.233   4.244  13.721 -1.2213 -1.0859 -0.4458
15366TIP3   OH267512   3.897   0.530   0.252 -0.3043  0.1337  0.9037
15366TIP3    H167513   3.959   0.593   0.289  1.2296 -1.5710  1.3883
15366TIP3    H267514   3.885   0.466   0.322 -1.8830 -0.0982  0.4425
15367TIP3   OH267515   2.196   0.453   0.268 -0.1224 -0.2690  0.5795
15367TIP3    H167516   2.259   0.511   0.311  0.3046  0.0584 -0.4530
15367TIP3    H267517   2.112   0.499   0.273  0.2049  0.4356 -0.1978
15368TIP3   OH267518   3.993   0.988  15.566  0.3869  0.3944  0.0550
15368TIP3    H167519   4.034   1.065  15.607 -0.7831  0.1882  1.7409
15368TIP3    H267520   3.909   1.020  15.533 -0.1833 -0.1704  0.9201
15369TIP3   OH267521   3.414   2.661  15.939  0.3639  0.0434  0.2233
15369TIP3    H167522   3.482   2.652  16.006 -0.5511  0.9812  1.3407
15369TIP3    H267523   3.337   2.619  15.977  0.0289 -0.0702 -0.5618
15370TIP3   OH267524   2.230   6.308   5.452 -0.6153  0.1771  0.1976
15370TIP3    H167525   2.256   6.348   5.369  1.3865 -0.5628  0.4201
15370TIP3    H267526   2.309   6.266   5.485 -2.0455 -2.0474  1.0755
15371TIP3   OH267527   2.288   6.150  15.298  0.4959 -0.3713 -0.2717
15371TIP3    H167528   2.240   6.067  15.302  0.1114 -0.1227  0.4746
15371TIP3    H267529   2.345   6.149  15.375  1.2341 -0.3765 -0.8043
15372TIP3   OH267530   4.033   2.071   6.073 -0.5392 -0.2888  0.5142
15372TIP3    H167531   3.958   2.074   6.132 -0.5723 -0.8590  0.5026
15372TIP3    H267532   4.108   2.060   6.130 -0.2361  2.1737  0.6893
15373TIP3   OH267533   5.915   2.093  11.861 -0.7255 -0.3545  0.6939
15373TIP3    H167534   5.979   2.123  11.797  0.4557  0.7991  2.3486
15373TIP3    H267535   5.904   1.999  11.842  0.6023 -0.3282 -0.3143
15374TIP3   OH267536   5.095   3.663   4.595 -0.1003  0.1851  0.0329
15374TIP3    H167537   5.028   3.604   4.561  0.4101 -0.2436 -0.2302
15374TIP3    H267538   5.095   3.737   4.534  0.3753 -0.2888 -0.5512
15375TIP3   OH267539   0.347   1.501  12.606 -0.3554 -0.4836  0.5246
15375TIP3    H167540   0.405   1.442  12.558 -0.5553 -0.6032  0.4292
15375TIP3    H267541   0.406   1.568  12.642 -0.4920  1.6602 -2.8084
15376TIP3   OH267542   6.057   1.639  12.385  1.1617  0.5038  0.3023
15376TIP3    H167543   6.026   1.548  12.392  1.0441  0.6099  1.2799
15376TIP3    H267544   6.015   1.672  12.306  0.8367 -0.1584  0.1846
15377TIP3   OH267545   6.530   6.693  13.800 -0.5326  0.1648  0.0659
15377TIP3    H167546   6.478   6.673  13.878 -0.4464 -0.9944 -0.1515
15377TIP3    H267547   6.552   6.607  13.764  0.9043  0.6518 -0.2646
15378TIP3   OH267548   0.458   6.348  12.063  0.1413  0.2162 -0.3400
15378TIP3    H167549   0.527   6.355  11.998 -0.3110  1.6123 -0.7062
15378TIP3    H267550   0.458   6.433  12.108 -1.4911  0.3645 -0.5400
15379TIP3   OH267551   2.915   4.816  12.635  0.0184  0.1501 -0.0218
15379TIP3    H167552   2.895   4.868  12.557  0.7348  1.9818  0.9533
15379TIP3    H267553   2.985   4.757  12.607 -1.8959 -1.4993 -1.5874
15380TIP3   OH267554   1.385   0.780   4.957 -0.4381  0.1788  0.4878
15380TIP3    H167555   1.461   0.800   5.012 -1.1246  2.9750  0.5464
15380TIP3    H267556   1.328   0.728   5.015  1.4093 -2.2153  0.3572
15381TIP3   OH267557   3.847   6.542   2.786 -0.0673 -0.3912  0.2771
15381TIP3    H167558   3.796   6.473   2.827 -0.7237 -0.6989 -0.9972
15381TIP3    H267559   3.937   6.525   2.814 -0.5789 -0.0223  2.3051
15382TIP3   OH267560   3.766   0.383   6.347 -0.2853 -0.2275 -0.2354
15382TIP3    H167561   3.825   0.318   6.308  0.3692 -0.6776  1.4221
15382TIP3    H267562   3.816   0.419   6.420 -1.4288  0.6549  0.1279
15383TIP3   OH267563   1.963   3.666  15.693 -0.4515  0.3305 -0.5536
15383TIP3    H167564   1.871   3.662  15.719  0.4364 -0.7447  2.9040
15383TIP3    H267565   1.988   3.576  15.675  0.7300 -0.0385  2.2908
15384TIP3   OH267566   1.480   1.795   2.874  0.2752  0.0009  0.1614
15384TIP3    H167567   1.514   1.778   2.786 -0.2012  0.6112 -0.1560
15384TIP3    H267568   1.410   1.860   2.860  0.5157  0.4624  1.0407
15385TIP3   OH267569   0.929   4.394   1.372  0.2768  0.6682  0.1203
15385TIP3    H167570   0.878   4.354   1.301  3.5906  0.9523 -2.6565
15385TIP3    H267571   0.986   4.324   1.403  1.9913  1.6282 -0.7075
15386TIP3   OH267572   5.998   1.087  12.298 -0.3239  0.3097  0.4928
15386TIP3    H167573   6.037   1.160  12.346 -2.0269  0.4334  1.7817
15386TIP3    H267574   5.940   1.130  12.234 -0.0319  0.0984  0.0833
15387TIP3   OH267575   6.681   4.653  15.474 -0.5081  0.6284 -0.2151
15387TIP3    H167576   6.730   4.667  15.393 -0.0645  0.9408  0.1031
15387TIP3    H267577   6.743   4.609  15.533 -0.8815  0.2456 -0.1025
15388TIP3   OH267578   0.884   4.553  11.907 -0.4754  0.4369 -0.3339
15388TIP3    H167579   0.852   4.643  11.896 -2.3791  0.0956  1.7728
15388TIP3    H267580   0.907   4.546  11.999 -0.0981 -1.1737 -0.5156
15389TIP3   OH267581   0.757   2.195  14.508  0.1781 -0.4529  0.0150
15389TIP3    H167582   0.792   2.124  14.455  1.8778  0.5040 -0.2095
15389TIP3    H267583   0.793   2.275  14.469 -1.9482  0.5999  0.0433
15390TIP3   OH267584   4.780   5.905  11.384 -0.0919 -0.2679 -0.4516
15390TIP3    H167585   4.756   5.912  11.476  0.0013  3.6304 -0.5311
15390TIP3    H267586   4.698   5.917  11.337  0.2615  1.1866 -0.7703
15391TIP3   OH267587   6.753   2.648   0.874  0.1231  0.6488 -0.0942
15391TIP3    H167588   6.695   2.615   0.943  0.2389 -1.3867 -0.8931
15391TIP3    H267589   6.835   2.667   0.919 -0.3242  0.9855  0.5983
15392TIP3   OH267590   3.098   5.888   0.831 -0.1493 -0.2594 -0.0097
15392TIP3    H167591   3.139   5.969   0.799  0.6472 -0.4651  0.4805
15392TIP3    H267592   3.033   5.918   0.894  1.6534 -0.0584  1.8646
15393TIP3   OH267593   2.614   3.969   5.048  0.5682 -0.0001  0.1545
15393TIP3    H167594   2.545   3.929   5.100  0.5906 -0.4711 -0.1735
15393TIP3    H267595   2.570   4.039   4.999  0.2466 -0.5416 -0.3356
15394TIP3   OH267596   3.977   4.153  12.247  0.0179  0.6610 -0.5295
15394TIP3    H167597   3.956   4.096  12.173 -1.5242  1.3295 -0.6396
15394TIP3    H267598   3.979   4.094  12.323 -1.6350  0.4372 -0.6272
15395TIP3   OH267599   1.892   4.969   5.195  0.2018 -0.4198  0.1068
15395TIP3    H167600   1.867   4.917   5.272  1.1123  0.9889  1.3959
15395TIP3    H267601   1.867   5.058   5.217 -0.2772 -0.1057 -1.6065
15396TIP3   OH267602   1.816   5.091   2.080 -0.3469  0.3741  0.5396
15396TIP3    H167603   1.798   5.006   2.120 -0.2427  0.6744  1.2297
15396TIP3    H267604   1.772   5.087   1.995  0.4698 -0.7269  0.1454
15397TIP3   OH267605   5.936   6.446   4.459  0.0826 -0.1634  0.1798
15397TIP3    H167606   5.921   6.383   4.389 -1.4106 -0.2130  0.5081
15397TIP3    H267607   6.011   6.498   4.429 -0.6260 -0.0796 -1.5251
15398TIP3   OH267608   5.089   3.140  11.909 -0.0826  0.3398 -0.2152
15398TIP3    H167609   4.995   3.150  11.892 -0.2799 -0.8246  0.0868
15398TIP3    H267610   5.125   3.228  11.900 -1.6285  1.3577  2.2743
15399TIP3   OH267611   4.257   0.922  14.578  0.6681  0.2269 -0.1581
15399TIP3    H167612   4.302   0.965  14.650  0.0121 -0.6253  0.7884
15399TIP3    H267613   4.299   0.837  14.571 -1.2296 -0.9192  1.2785
15400TIP3   OH267614   4.194   4.596  13.491 -0.2145  0.0315 -0.9514
15400TIP3    H167615   4.165   4.665  13.551  0.4166  0.3431 -0.9936
15400TIP3    H267616   4.289   4.590  13.506  0.2722  1.3039 -3.1310
15401TIP3   OH267617   5.286   4.252   6.282 -0.7637  0.2212  0.2059
15401TIP3    H167618   5.226   4.312   6.326 -0.2920  1.2276 -0.5116
15401TIP3    H267619   5.261   4.165   6.316 -2.1388  0.6892  0.4601
15402TIP3   OH267620   3.187   1.047   4.223 -0.5945  0.6581  0.7304
15402TIP3    H167621   3.274   1.062   4.261  0.0744  1.7396 -1.1020
15402TIP3    H267622   3.205   1.004   4.139 -1.8048  1.1937  0.1750
15403TIP3   OH267623   3.126   1.243   1.615 -0.2525 -0.8174 -0.0302
15403TIP3    H167624   3.041   1.287   1.627 -0.7594 -1.7916  0.0301
15403TIP3    H267625   3.103   1.154   1.590  0.7661 -0.7351 -1.3623
15404TIP3   OH267626   2.179   6.270  16.940  0.4693  0.0844  0.2864
15404TIP3    H167627   2.198   6.364  16.935  1.0571 -0.0119  0.6193
15404TIP3    H267628   2.265   6.228  16.937  0.2173 -0.4394  0.3054
15405TIP3   OH267629   4.867   6.259   3.217  0.4569 -0.0987 -0.0608
15405TIP3    H167630   4.897   6.180   3.172  0.8580  0.8558 -1.5501
15405TIP3    H267631   4.776   6.242   3.239  0.4118 -0.8044 -0.7586
15406TIP3   OH267632   2.989   4.254   4.473 -0.2919 -0.5673  0.1129
15406TIP3    H167633   2.906   4.301   4.458 -0.4868 -1.2572 -1.0966
15406TIP3    H267634   2.985   4.227   4.565 -1.4872 -0.7262  0.0330
15407TIP3   OH267635   2.761   3.206  12.320  0.0459  0.4924 -0.2715
15407TIP3    H167636   2.850   3.183  12.296  0.3485  0.7216  0.5720
15407TIP3    H267637   2.711   3.126  12.309  0.3749  0.3396 -0.6689
15408TIP3   OH267638   1.074   1.329  16.847 -0.1574 -0.6961  0.3839
15408TIP3    H167639   1.044   1.420  16.854 -0.2195 -0.7927  1.6199
15408TIP3    H267640   0.995   1.279  16.825 -0.3220 -0.5785  0.7055
15409TIP3   OH267641   0.038   5.647  13.741 -0.5864  0.0317 -0.3016
15409TIP3    H167642   0.079   5.624  13.658 -2.0136  0.6584 -1.2222
15409TIP3    H267643  -0.001   5.733  13.726  0.0692  0.6612  1.3817
15410TIP3   OH267644   2.311   3.377  14.670  0.0396 -0.2751 -0.7075
15410TIP3    H167645   2.289   3.426  14.591 -1.0335  2.5568  1.1847
15410TIP3    H267646   2.234   3.324  14.688  0.0418 -0.4487 -1.1957
15411TIP3   OH267647   4.638   0.775   1.429  0.4054  0.6923  0.0864
15411TIP3    H167648   4.664   0.731   1.511  0.9177  0.8866  0.0326
15411TIP3    H267649   4.543   0.779   1.434  0.2545 -1.2640 -0.3351
15412TIP3   OH267650   5.095   2.749  14.913  0.2641  0.3819 -0.4761
15412TIP3    H167651   5.054   2.700  14.841 -0.6412 -1.1934  1.0404
15412TIP3    H267652   5.043   2.829  14.920 -0.0138  0.2726 -1.1704
15413TIP3   OH267653   2.519   2.856   2.254  0.0840  0.1286  0.0651
15413TIP3    H167654   2.578   2.922   2.216  1.7009 -0.4974  1.3856
15413TIP3    H267655   2.446   2.907   2.289  0.0732  0.9730 -1.1123
15414TIP3   OH267656   3.218   3.997  11.447 -0.3208  0.4808  0.4168
15414TIP3    H167657   3.269   4.076  11.429  0.5323 -0.1230  0.0977
15414TIP3    H267658   3.147   4.000  11.383  2.1338 -1.1457 -2.6965
15415TIP3   OH267659   5.238   1.181   3.679 -0.1412 -0.7037 -0.1697
15415TIP3    H167660   5.143   1.174   3.684 -0.2734  0.5531 -0.5152
15415TIP3    H267661   5.269   1.091   3.670 -1.2174 -1.2290  1.0035
15416TIP3   OH267662   3.295   3.042   3.504 -0.1335 -0.1302 -0.5083
15416TIP3    H167663   3.320   3.126   3.465  2.1332  0.5337  2.1183
15416TIP3    H267664   3.351   2.978   3.460  0.2258  0.1593 -0.4737
15417TIP3   OH267665   0.335   5.205  15.169  0.3714 -0.8836 -0.6323
15417TIP3    H167666   0.411   5.221  15.225  0.0770  0.5601 -0.6260
15417TIP3    H267667   0.286   5.287  15.169 -0.4838 -1.3610 -1.7205
15418TIP3   OH267668   2.854   0.249  11.642  0.4160 -0.2791 -0.4569
15418TIP3    H167669   2.790   0.305  11.686  0.2030 -1.9994  1.5497
15418TIP3    H267670   2.828   0.160  11.664  0.5476 -1.2853 -3.8281
15419TIP3   OH267671   0.260   4.716  14.835  0.1807  0.0721  0.0967
15419TIP3    H167672   0.284   4.730  14.744  1.5932 -0.9605  0.2821
15419TIP3    H267673   0.164   4.722  14.836 -0.1035 -2.3613 -1.9312
15420TIP3   OH267674   0.185   6.070  15.013 -0.2606  0.3451  0.2591
15420TIP3    H167675   0.153   6.091  15.101 -2.4060  0.5253 -0.4972
15420TIP3    H267676   0.134   5.994  14.986 -1.1076  1.4758 -1.5457
15421TIP3   OH267677   5.160   2.922   2.863 -0.1076 -0.0415 -0.6113
15421TIP3    H167678   5.174   3.010   2.898 -0.7671 -0.5892  1.1281
15421TIP3    H267679   5.126   2.937   2.775  2.6857  1.3895 -1.5941
15422TIP3   OH267680   3.144   1.136   5.882 -0.8785 -0.5285 -0.0749
15422TIP3    H167681   3.220   1.147   5.826 -1.8779 -0.7820 -1.5251
15422TIP3    H267682   3.178   1.090   5.959  0.5068 -0.2237 -0.4727
15423TIP3   OH267683   5.302   5.255  16.315  0.1107 -0.3233 -0.0604
15423TIP3    H167684   5.358   5.238  16.239  0.4363 -0.3653  0.1834
15423TIP3    H267685   5.227   5.197  16.304  1.1452 -1.8689  0.6961
15424TIP3   OH267686   0.037   4.180  16.561  0.4666 -0.5065 -0.6009
15424TIP3    H167687  -0.053   4.150  16.549  0.8020 -1.9164  0.2900
15424TIP3    H267688   0.091   4.102  16.548  1.5503  0.2357 -0.7138
15425TIP3   OH267689   4.085   3.097  15.157  0.0724 -0.5870  0.3074
15425TIP3    H167690   4.032   3.036  15.106 -0.0882  0.5232 -0.8905
15425TIP3    H267691   4.151   3.129  15.096  0.4611  0.0732  1.0512
15426TIP3   OH267692   5.076   1.758  12.169  1.2465 -1.0339 -0.3217
15426TIP3    H167693   5.056   1.690  12.233  1.1626  0.3306  1.1781
15426TIP3    H267694   5.122   1.825  12.219 -3.0064  2.4112 -0.4178
15427TIP3   OH267695   2.264   3.228  12.882  0.1291 -0.0535 -0.1639
15427TIP3    H167696   2.317   3.286  12.828 -2.0003 -0.2911 -2.7219
15427TIP3    H267697   2.327   3.185  12.940  2.1935  2.2892 -0.5018
15428TIP3   OH267698   4.126   2.458   3.799 -0.6250  0.8910 -0.1175
15428TIP3    H167699   4.117   2.551   3.780 -0.0312  1.0007  0.1214
15428TIP3    H267700   4.146   2.417   3.715  1.2696  1.2744  0.1081
15429TIP3   OH267701   6.463   4.441  16.053 -0.5746  0.3145 -0.2215
15429TIP3    H167702   6.517   4.439  16.132  0.2467  0.7927 -0.7610
15429TIP3    H267703   6.474   4.529  16.018 -1.3633  0.2777 -0.5850
15430TIP3   OH267704   3.227   0.088   3.856  0.2254 -0.6630 -0.0690
15430TIP3    H167705   3.290   0.016   3.850 -1.0387 -1.7522 -0.6665
15430TIP3    H267706   3.230   0.130   3.770  1.9540  0.9320  0.6840
15431TIP3   OH267707   6.361   1.444  13.069  0.5369  0.0949 -0.2479
15431TIP3    H167708   6.430   1.393  13.026  0.7344  0.9133 -0.9263
15431TIP3    H267709   6.355   1.525  13.018 -0.0532  0.5794  0.5597
15432TIP3   OH267710   4.765   3.137   5.391 -0.4593 -0.2914 -0.1090
15432TIP3    H167711   4.814   3.169   5.467 -1.0510  0.4814 -0.0367
15432TIP3    H267712   4.696   3.081   5.429  0.8912 -2.1658 -0.2653
15433TIP3   OH267713   6.526   1.370   3.249  0.0054  0.0630 -0.5789
15433TIP3    H167714   6.574   1.300   3.205  0.6207 -0.1271  0.3724
15433TIP3    H267715   6.594   1.425   3.288 -0.5147 -0.9531  1.9464
15434TIP3   OH267716   5.714   2.566   4.053  0.3507  0.2762 -0.9774
15434TIP3    H167717   5.802   2.556   4.088  0.5120  1.0963 -1.1403
15434TIP3    H267718   5.666   2.489   4.087  1.0138  0.0360 -0.5689
15435TIP3   OH267719   5.681   6.378  11.881 -0.3543 -0.6515 -0.6473
15435TIP3    H167720   5.605   6.330  11.850 -0.6101 -0.2615 -0.6246
15435TIP3    H267721   5.747   6.364  11.813 -0.5989 -0.6026 -0.8971
15436TIP3   OH267722   1.185   2.992  14.840 -0.0758  0.2477 -0.2003
15436TIP3    H167723   1.129   2.979  14.916 -1.6672  0.2762 -1.3270
15436TIP3    H267724   1.207   3.085  14.842 -1.3391  0.5669 -0.5770
15437TIP3   OH267725   1.115   3.452  13.929 -0.1550  0.6196 -0.0986
15437TIP3    H167726   1.078   3.416  14.009 -0.4586  1.5150  0.1827
15437TIP3    H267727   1.201   3.412  13.921  0.6050  1.7991  1.6138
15438TIP3   OH267728   6.042   1.797  15.945  0.0947  0.0886  0.1951
15438TIP3    H167729   6.137   1.799  15.945  0.1020 -0.1177 -0.3886
15438TIP3    H267730   6.017   1.822  16.034  0.7200 -1.1602  0.7410
15439TIP3   OH267731   2.066   2.398  11.590  0.1602 -0.1833 -0.0290
15439TIP3    H167732   2.092   2.362  11.675  0.5536  1.2000  0.4773
15439TIP3    H267733   2.035   2.323  11.540  0.1329 -1.0613  1.2596
15440TIP3   OH267734   1.233   0.858  12.532  0.1228 -0.0353 -0.4493
15440TIP3    H167735   1.329   0.867  12.535  0.0640  1.3861 -1.5858
15440TIP3    H267736   1.203   0.941  12.495 -1.7023  0.2805  1.5671
15441TIP3   OH267737   2.382   3.150   4.833 -0.1100 -0.1759  0.2400
15441TIP3    H167738   2.420   3.233   4.807 -0.0224 -0.0564  0.7375
15441TIP3    H267739   2.318   3.130   4.765  0.5689 -0.1979 -0.4147
15442TIP3   OH267740   1.532   5.891  12.369 -0.0094  0.0048  0.1035
15442TIP3    H167741   1.532   5.910  12.275  3.9228 -1.3127 -0.3145
15442TIP3    H267742   1.461   5.827  12.380 -1.9593  1.7312 -1.4670
15443TIP3   OH267743   5.721   2.192  15.451  0.2788 -0.1411 -0.4331
15443TIP3    H167744   5.666   2.218  15.377 -0.2159  0.4687  0.1418
15443TIP3    H267745   5.741   2.274  15.496  0.6820 -0.4972  0.0471
15444TIP3   OH267746   4.475   4.104  15.413  0.0607  0.0506 -0.4028
15444TIP3    H167747   4.567   4.089  15.433  0.5984  1.6093 -1.5242
15444TIP3    H267748   4.476   4.161  15.336 -1.8333  1.0874  0.2713
15445TIP3   OH267749   5.994   1.294  11.685 -0.2854 -0.0031  0.3469
15445TIP3    H167750   5.945   1.331  11.612  0.1206 -1.9819 -1.0125
15445TIP3    H267751   5.935   1.229  11.723  0.5329 -0.9763 -0.0237
15446TIP3   OH267752   6.664   4.890   0.794 -0.0121 -0.0818  0.7928
15446TIP3    H167753   6.582   4.913   0.751  0.1826  1.2114  1.0928
15446TIP3    H267754   6.711   4.838   0.729 -0.2323  0.8323 -0.1127
15447TIP3   OH267755   4.991   2.059   2.133  0.4502  0.1764 -0.0292
15447TIP3    H167756   4.964   2.123   2.067 -0.2563  0.4931  0.5443
15447TIP3    H267757   4.913   2.047   2.187  0.0137 -2.4726 -1.1228
15448TIP3   OH267758   0.640   2.932  13.745 -0.4395 -0.4270  0.0395
15448TIP3    H167759   0.682   2.850  13.720 -1.3802 -1.6934  2.3187
15448TIP3    H267760   0.685   2.999  13.693  0.2244 -2.3629 -2.0461
15449TIP3   OH267761   1.690   2.554  15.845  0.2734 -0.3176 -0.4304
15449TIP3    H167762   1.627   2.516  15.906 -0.2550 -0.3746 -1.0033
15449TIP3    H267763   1.749   2.481  15.825  1.0073 -0.0609  0.7095
15450TIP3   OH267764   0.154   6.744   1.770  0.0701 -0.4718 -0.6887
15450TIP3    H167765   0.202   6.824   1.752  0.3077 -1.1673 -3.6634
15450TIP3    H267766   0.087   6.769   1.834  1.5901  1.5090  0.2058
15451TIP3   OH267767   4.781   0.613  16.922 -0.3021  0.4714 -0.3502
15451TIP3    H167768   4.732   0.545  16.876  0.0992 -0.5222  0.6408
15451TIP3    H267769   4.871   0.604  16.889  0.3547 -1.3226  1.6794
15452TIP3   OH267770   1.195   1.048  16.906  0.0858 -0.7197  0.2473
15452TIP3    H167771   1.163   1.118  16.849  0.2827 -0.2128  0.7526
15452TIP3    H267772   1.154   0.969  16.871 -0.5597 -0.2873 -0.0120
15453TIP3   OH267773   5.228   4.671  12.700 -0.5930 -0.1754 -0.2874
15453TIP3    H167774   5.207   4.657  12.792 -1.5792  1.4106 -0.2430
15453TIP3    H267775   5.193   4.593  12.656  1.1025 -1.6409  0.7698
15454TIP3   OH267776   2.287   5.302   4.374 -0.3318  0.1462  0.2467
15454TIP3    H167777   2.356   5.280   4.311  1.2282  0.8639  1.6397
15454TIP3    H267778   2.331   5.299   4.459 -2.0533  0.5718  1.1772
15455TIP3   OH267779   5.430   2.426  10.847 -0.1148 -0.2539 -0.0775
15455TIP3    H167780   5.439   2.361  10.777 -0.0463  0.5845 -0.8579
15455TIP3    H267781   5.350   2.474  10.825 -2.1071 -2.1606  2.2593
15456TIP3   OH267782   1.195   3.374   3.115  0.9191 -0.1499  0.4071
15456TIP3    H167783   1.119   3.356   3.170  1.7601 -3.1582  0.7563
15456TIP3    H267784   1.173   3.456   3.070 -3.1077 -1.4742 -0.4780
15457TIP3   OH267785   5.681   4.532   4.713 -0.8536  0.5004 -0.0573
15457TIP3    H167786   5.641   4.552   4.629 -1.0187  1.3709  0.2159
15457TIP3    H267787   5.668   4.612   4.765  0.5674  0.5275  0.2881
15458TIP3   OH267788   0.189   1.007  11.984  0.6507  0.3228 -0.3890
15458TIP3    H167789   0.096   0.993  12.002  0.7439  1.3661  1.1134
15458TIP3    H267790   0.195   1.009  11.889 -0.7505 -0.4355 -0.5166
15459TIP3   OH267791   1.905   0.002  16.472 -0.3105 -0.0591  0.4456
15459TIP3    H167792   1.849  -0.068  16.439 -0.1627  0.0053  0.0502
15459TIP3    H267793   1.899   0.071  16.406 -2.1064  1.1873  1.8083
15460TIP3   OH267794   0.759   6.092  14.052 -0.4592 -0.0407  0.1622
15460TIP3    H167795   0.774   6.131  13.965 -1.2482  1.0463  0.4998
15460TIP3    H267796   0.714   6.010  14.033 -1.4630  0.6250 -0.4229
15461TIP3   OH267797   3.880   4.977   4.810  0.3729 -0.2236  0.2384
15461TIP3    H167798   3.958   5.010   4.855  0.1285  0.7345 -0.0187
15461TIP3    H267799   3.898   4.884   4.796  1.3552 -0.0734  0.4294
15462TIP3   OH267800   6.408   3.773  16.004  0.6671 -0.2584  0.0856
15462TIP3    H167801   6.478   3.743  15.946  0.7377 -1.3275  0.6859
15462TIP3    H267802   6.367   3.846  15.957  2.5838  0.8238  0.0105
15463TIP3   OH267803   5.367   4.961  14.191  0.3726  0.3708  0.6883
15463TIP3    H167804   5.462   4.949  14.196  0.4525  0.6122 -0.1767
15463TIP3    H267805   5.349   5.036  14.247  0.7359  0.5459  0.5721
15464TIP3   OH267806   3.424   1.120   1.839  0.2630  0.0215  0.1189
15464TIP3    H167807   3.348   1.111   1.896  0.5570  3.0039  1.1130
15464TIP3    H267808   3.487   1.056   1.874 -0.8103 -0.6200  0.9448
15465TIP3   OH267809   0.554   4.681   4.033 -0.5151 -0.1923  0.2779
15465TIP3    H167810   0.510   4.600   4.059  0.0442 -0.5447  0.1446
15465TIP3    H267811   0.499   4.717   3.964 -0.9010 -0.3277  0.5081
15466TIP3   OH267812   5.202   4.317  13.600 -0.2778  0.0226 -0.0739
15466TIP3    H167813   5.276   4.361  13.642 -0.2008 -0.1877  0.0117
15466TIP3    H267814   5.206   4.226  13.632 -0.9654  0.1673  0.4602
15467TIP3   OH267815   1.583   2.628  12.416 -0.1953 -0.0584 -0.0946
15467TIP3    H167816   1.664   2.577  12.408  0.4674  0.3932  2.6402
15467TIP3    H267817   1.557   2.646  12.326  2.2070 -1.0592 -1.0838
15468TIP3   OH267818   4.944   5.374  15.966 -0.4192  0.8163 -0.0023
15468TIP3    H167819   4.962   5.283  15.987  0.8869  0.8305 -0.9644
15468TIP3    H267820   4.877   5.400  16.030 -0.0890 -0.5080  0.9349
15469TIP3   OH267821   4.080   4.782   2.677 -0.0721  0.0794  0.5487
15469TIP3    H167822   4.067   4.714   2.610  3.4495 -0.9111  0.6734
15469TIP3    H267823   4.100   4.861   2.627  0.4541 -0.1481  0.3893
15470TIP3   OH267824   0.718   5.976  15.758  0.5254  0.6791  0.3644
15470TIP3    H167825   0.778   5.965  15.684  0.3414 -1.3699  0.4492
15470TIP3    H267826   0.631   5.978  15.719  0.5169  1.5571  0.4036
15471TIP3   OH267827   6.728   1.331  16.404 -0.5032 -0.0825  0.0569
15471TIP3    H167828   6.788   1.262  16.375  0.1864  0.4706  0.1440
15471TIP3    H267829   6.728   1.324  16.499  0.1717  0.5126  0.1159
15472TIP3   OH267830   5.622   4.827  16.585 -0.6621 -0.2293  0.2957
15472TIP3    H167831   5.695   4.779  16.624 -1.5765 -1.3288  0.7278
15472TIP3    H267832   5.662   4.900  16.539  0.5597  0.1748  1.9589
15473TIP3   OH267833   2.210   3.741   1.436  0.0958  0.2336 -0.0332
15473TIP3    H167834   2.236   3.812   1.377 -2.6380 -0.2364 -1.9566
15473TIP3    H267835   2.166   3.677   1.380  0.8037 -2.1743  1.9330
15474TIP3   OH267836   4.507   1.310  13.054  0.4090  0.3848  0.4902
15474TIP3    H167837   4.512   1.306  13.150  2.3049  1.2663  0.4756
15474TIP3    H267838   4.507   1.219  13.026 -0.4507  0.1078  1.3255
15475TIP3   OH267839   6.027   1.635  10.593  0.1771  0.2991 -0.6992
15475TIP3    H167840   5.998   1.677  10.674 -2.7934  0.0031 -1.4860
15475TIP3    H267841   6.082   1.700  10.550  1.1058  0.7773  1.1284
15476TIP3   OH267842   0.470   2.305   2.839  0.3045 -0.2085  0.0596
15476TIP3    H167843   0.381   2.299   2.874 -0.3946  0.3019 -1.5142
15476TIP3    H267844   0.526   2.316   2.916 -0.7403 -2.5598  1.2696
15477TIP3   OH267845   5.776   3.692   6.174  0.0378  0.2773  0.1482
15477TIP3    H167846   5.854   3.647   6.140  0.5065  1.0255  0.1891
15477TIP3    H267847   5.779   3.778   6.131 -1.8563 -0.3578 -1.3764
15478TIP3   OH267848   6.754   1.730  16.286 -0.1977 -1.1895  0.3618
15478TIP3    H167849   6.688   1.799  16.292 -0.0660 -0.9651 -0.5083
15478TIP3    H267850   6.769   1.702  16.376 -0.4560 -0.2661  0.7001
15479TIP3   OH267851   3.076   0.135   1.484  0.1423  0.1446  0.3327
15479TIP3    H167852   3.015   0.081   1.435 -1.0769  2.0207 -0.3011
15479TIP3    H267853   3.131   0.072   1.530  0.1346 -1.6670 -1.9455
15480TIP3   OH267854   5.203   4.376  12.532  0.3266 -0.0628 -0.4785
15480TIP3    H167855   5.149   4.302  12.505  0.1191  0.3105 -1.1154
15480TIP3    H267856   5.169   4.400  12.618  1.0021 -1.2774  0.1442
15481TIP3   OH267857   1.351   6.094   4.360 -0.4542  0.0944  0.6624
15481TIP3    H167858   1.321   6.175   4.318 -0.0572 -0.4655 -0.7513
15481TIP3    H267859   1.446   6.100   4.361 -0.4430 -0.0806  1.1399
15482TIP3   OH267860   0.937   3.298  11.764 -0.4942  0.3715  0.9402
15482TIP3    H167861   0.875   3.276  11.833 -0.3173  0.8202  1.2477
15482TIP3    H267862   1.011   3.337  11.810 -0.2019  0.3031  0.5320
15483TIP3   OH267863   2.306   6.265   6.178  0.1627  0.1528 -0.1581
15483TIP3    H167864   2.323   6.333   6.244 -0.0431  1.1673 -1.1134
15483TIP3    H267865   2.224   6.225   6.205 -0.9334  1.8604 -0.7984
15484TIP3   OH267866   6.097   6.075  13.259  0.4121  0.7505 -0.0768
15484TIP3    H167867   6.061   6.153  13.218  0.1838  1.7519  1.9189
15484TIP3    H267868   6.021   6.024  13.285  0.4796  1.2480  1.1427
15485TIP3   OH267869   0.939   4.156  12.437 -0.1228  0.5354 -0.0599
15485TIP3    H167870   0.951   4.224  12.371  0.1365  1.5330  0.9879
15485TIP3    H267871   0.874   4.192  12.497 -0.0179 -0.1653  0.4836
15486TIP3   OH267872   2.146   0.932  11.380 -0.0764 -0.1317  0.3960
15486TIP3    H167873   2.122   0.961  11.293  0.7930 -1.1782 -0.2172
15486TIP3    H267874   2.239   0.954  11.388 -0.1672  0.0257  1.0947
15487TIP3   OH267875   3.967   0.743  13.321  0.1065  0.4983 -0.2309
15487TIP3    H167876   3.962   0.693  13.403  3.1674  0.5175  0.0686
15487TIP3    H267877   3.938   0.831  13.345  1.7450  0.7273  1.0964
15488TIP3   OH267878   1.559   2.973   0.843  0.0363 -0.6230 -0.2347
15488TIP3    H167879   1.651   2.958   0.864  0.5315  1.1315 -0.9897
15488TIP3    H267880   1.560   3.010   0.755 -1.1224  2.1727  0.8246
15489TIP3   OH267881   2.094   6.369  14.180 -0.7125 -0.2637  0.0316
15489TIP3    H167882   2.088   6.409  14.094  1.4865  0.4688  0.1609
15489TIP3    H267883   2.023   6.409  14.231 -0.9408  0.5747 -0.9322
15490TIP3   OH267884   1.249   1.820   1.902 -0.3711  0.7442  0.4693
15490TIP3    H167885   1.186   1.748   1.911 -0.2510  0.8854  3.5844
15490TIP3    H267886   1.198   1.891   1.864 -1.6094  0.2714  1.1823
15491TIP3   OH267887   1.330   4.039  15.871 -0.0194  0.0682 -0.2542
15491TIP3    H167888   1.386   4.080  15.805 -0.2685 -0.6374 -0.9261
15491TIP3    H267889   1.255   4.097  15.880  0.9240  1.1572  0.8422
15492TIP3   OH267890   5.311   0.315   4.057  0.9009 -0.1920  0.5376
15492TIP3    H167891   5.270   0.386   4.009  0.3464  0.4589  1.9131
15492TIP3    H267892   5.352   0.261   3.990 -0.1682  0.4562 -0.6816
15493TIP3   OH267893   0.738   2.663   1.194  0.5365 -0.1040  0.0830
15493TIP3    H167894   0.702   2.720   1.262 -1.1051  1.6057 -2.0599
15493TIP3    H267895   0.812   2.711   1.158 -0.4162  0.4473 -1.2518
15494TIP3   OH267896   5.513   3.100   2.654  0.4825 -0.2369  0.0494
15494TIP3    H167897   5.513   3.196   2.660  1.0041 -0.0856 -1.7941
15494TIP3    H267898   5.436   3.073   2.703  0.9880  1.0245  1.6584
15495TIP3   OH267899   1.778   0.054  10.681  0.0461  0.2090 -0.0714
15495TIP3    H167900   1.725  -0.011  10.635 -0.8835  0.6747  0.3159
15495TIP3    H267901   1.813   0.006  10.757 -1.0858  0.2774  0.5186
15496TIP3   OH267902   5.170   3.079  11.537 -0.0253  0.3138 -0.6174
15496TIP3    H167903   5.197   3.063  11.627 -0.2815 -0.8670 -0.7414
15496TIP3    H267904   5.231   3.029  11.484 -1.5516 -1.2624 -0.9620
15497TIP3   OH267905   6.069   1.505  13.998 -0.4807  0.0440 -0.3439
15497TIP3    H167906   6.018   1.574  13.954 -2.3204 -0.9893  0.0414
15497TIP3    H267907   6.067   1.432  13.937 -3.6218 -1.6452  1.5045
15498TIP3   OH267908   1.107   1.644  10.726  0.5675 -0.5301 -0.1342
15498TIP3    H167909   1.197   1.625  10.755  0.6408 -1.7848 -1.1078
15498TIP3    H267910   1.118   1.685  10.640  0.2021 -0.5355 -0.1828
15499TIP3   OH267911   2.782   3.279   4.224 -0.0400 -0.2557  0.1338
15499TIP3    H167912   2.862   3.324   4.196  0.1321 -1.6845 -1.8724
15499TIP3    H267913   2.795   3.263   4.318  1.3050  0.9591  0.1857
15500TIP3   OH267914   6.432   3.383   4.412 -0.1866  0.2838  0.2270
15500TIP3    H167915   6.344   3.390   4.449  0.3880 -1.6236  2.1353
15500TIP3    H267916   6.426   3.307   4.353  0.3949 -0.5039  1.1548
15501TIP3   OH267917   3.318   6.285   0.986 -0.5468  0.1329 -0.5318
15501TIP3    H167918   3.372   6.261   0.911  0.4487 -1.0309  0.5146
15501TIP3    H267919   3.326   6.380   0.992  0.0423  0.1467 -1.3876
15502TIP3   OH267920   4.640   4.779  13.975  0.2488  0.2413  0.5652
15502TIP3    H167921   4.636   4.683  13.970 -0.3666  0.2592  0.6404
15502TIP3    H267922   4.569   4.803  14.035 -0.6945  0.8423 -0.7284
15503TIP3   OH267923   2.318   3.744  12.522 -0.2559 -0.3223  0.3735
15503TIP3    H167924   2.348   3.799  12.449  0.8597  0.6727  1.5234
15503TIP3    H267925   2.392   3.685  12.539  0.2507  0.6502  1.7976
15504TIP3   OH267926   4.520   3.364  12.039 -0.8631 -0.1958  0.5963
15504TIP3    H167927   4.597   3.310  12.020 -1.1719 -0.8927  1.2896
15504TIP3    H267928   4.500   3.347  12.131 -1.4945  0.4328  0.5855
15505TIP3   OH267929   1.544   5.409  15.218  0.6707 -0.2295  0.0432
15505TIP3    H167930   1.603   5.442  15.285 -0.2929 -0.0301  0.8237
15505TIP3    H267931   1.465   5.384  15.266  0.4379 -1.3054 -0.8582
15506TIP3   OH267932   2.031   6.545  12.547 -0.1979 -0.1907  0.8273
15506TIP3    H167933   2.050   6.638  12.552 -2.5339  0.4797 -0.9999
15506TIP3    H267934   2.091   6.511  12.481  0.2612  0.1228  1.0820
15507TIP3   OH267935   3.850   1.395   3.206 -0.4996 -0.1514  0.5441
15507TIP3    H167936   3.919   1.429   3.263  0.5902 -2.1950  0.5362
15507TIP3    H267937   3.782   1.462   3.209  1.3580  1.8748  0.7271
15508TIP3   OH267938   1.529   5.345  13.609  0.1743  0.0643 -0.0023
15508TIP3    H167939   1.582   5.343  13.689 -0.7378  0.5769  0.6320
15508TIP3    H267940   1.462   5.278  13.622 -1.2002  1.4869  0.5653
15509TIP3   OH267941   3.275   3.721  15.725 -0.4369 -0.2535 -0.0578
15509TIP3    H167942   3.236   3.650  15.777  0.3182 -0.3444  0.3932
15509TIP3    H267943   3.348   3.753  15.779 -1.0840  1.2243 -0.0124
15510TIP3   OH267944   0.888   4.314   1.658 -0.0768  0.4110  0.0637
15510TIP3    H167945   0.919   4.403   1.678 -0.7807  0.7532 -0.3341
15510TIP3    H267946   0.803   4.327   1.616 -1.6870 -0.5720  2.7925
15511TIP3   OH267947   1.035   4.141  11.829 -0.0664  0.3229  0.3315
15511TIP3    H167948   1.050   4.073  11.895 -0.3952 -0.0371  0.0367
15511TIP3    H267949   1.109   4.133  11.769  0.5773  1.0673  0.9924
15512TIP3   OH267950   3.498   3.836  12.809 -0.4337  0.2648  0.4063
15512TIP3    H167951   3.554   3.807  12.881  0.1434  0.1476 -0.0808
15512TIP3    H267952   3.478   3.927  12.830 -0.7649  0.0564  1.0171
15513TIP3   OH267953   6.139   3.116   4.079  0.6910  0.3078 -0.0046
15513TIP3    H167954   6.132   3.186   4.014 -1.2819 -0.4868 -0.7134
15513TIP3    H267955   6.049   3.091   4.097  1.3041 -1.1088  1.2926
15514TIP3   OH267956   5.335   1.185   2.420  0.3962 -0.2502 -0.4069
15514TIP3    H167957   5.375   1.230   2.495  0.0417 -0.1800 -0.2615
15514TIP3    H267958   5.352   1.243   2.345 -1.2727  0.8346  0.0048
15515TIP3   OH267959   2.045   4.399   2.670 -0.6491  0.6628  0.4398
15515TIP3    H167960   2.029   4.369   2.759 -0.3061 -0.4584  0.1294
15515TIP3    H267961   2.139   4.416   2.667 -0.0490 -2.2571 -0.5389
15516TIP3   OH267962   5.382   0.038   5.086 -0.0789 -0.0334 -0.4562
15516TIP3    H167963   5.366   0.081   5.170  1.4175  1.1599 -0.7226
15516TIP3    H267964   5.460  -0.015   5.101  1.5228  1.8625 -1.5685
15517TIP3   OH267965   5.159   5.307   5.915 -0.2179 -0.3968  0.2329
15517TIP3    H167966   5.144   5.318   5.821  1.5053 -0.7911 -0.1185
15517TIP3    H267967   5.225   5.238   5.921  2.8648  2.3866  1.4520
15518TIP3   OH267968   0.206   1.979   3.697  0.0835 -0.6041 -0.2171
15518TIP3    H167969   0.242   1.896   3.665 -2.0530 -1.0582 -1.6231
15518TIP3    H267970   0.234   2.043   3.631  0.5444 -0.4683  0.1105
15519TIP3   OH267971   3.088   0.675   0.280 -0.0867 -0.0108  0.0974
15519TIP3    H167972   3.000   0.682   0.243 -0.2414 -0.9287  0.2657
15519TIP3    H267973   3.079   0.611   0.351  0.1581  1.7970  1.8746
15520TIP3   OH267974   4.347   2.077   0.049  0.1418  0.2339  0.7026
15520TIP3    H167975   4.394   2.131  -0.015  0.2626 -1.3916 -0.6566
15520TIP3    H267976   4.383   2.103   0.134  0.0577  2.3736  0.1355
15521TIP3   OH267977   6.514   2.705  11.088  0.2139 -0.0415 -0.3079
15521TIP3    H167978   6.590   2.673  11.040 -0.4448 -0.9083 -0.7923
15521TIP3    H267979   6.486   2.783  11.039  1.8315  1.3801  0.8921
15522TIP3   OH267980   1.472   1.559   3.038  0.0898  0.0936 -0.3782
15522TIP3    H167981   1.489   1.649   3.013 -0.3892  0.6385  1.1476
15522TIP3    H267982   1.456   1.563   3.132  1.6542 -1.7983  0.0437
15523TIP3   OH267983   2.160   4.845   4.241 -0.5851  0.0887 -0.3042
15523TIP3    H167984   2.135   4.760   4.277  0.9574 -0.1659  0.2327
15523TIP3    H267985   2.191   4.895   4.316 -2.4679  1.5503 -0.4361
15524TIP3   OH267986   2.586   4.275   1.585  0.2526  0.0542 -0.3212
15524TIP3    H167987   2.565   4.331   1.511  1.8402  0.0025 -0.8514
15524TIP3    H267988   2.655   4.323   1.632 -0.0671 -0.3518  0.5892
15525TIP3   OH267989   6.100   4.184  15.013  0.6945 -0.0866 -0.1780
15525TIP3    H167990   6.190   4.175  14.983  0.3242 -3.3166 -0.6550
15525TIP3    H267991   6.097   4.136  15.096 -1.2534 -3.3088 -1.9294
15526TIP3   OH267992   4.586   6.794  11.939  0.3356 -0.7810  0.4454
15526TIP3    H167993   4.490   6.789  11.939  0.3998 -3.1311  0.2148
15526TIP3    H267994   4.611   6.764  11.852  1.3284 -3.1123  1.4622
15527TIP3   OH267995   3.195   4.995   1.906 -0.2409  0.2783  0.2015
15527TIP3    H167996   3.221   5.072   1.856 -0.0117 -0.5993 -1.0813
15527TIP3    H267997   3.123   4.957   1.855  0.7931 -1.3114 -0.1567
15528TIP3   OH267998   4.189   3.782  12.077 -0.2861  0.0642  0.0710
15528TIP3    H167999   4.187   3.839  12.154 -0.3229  2.1119 -1.3662
15528TIP3    H268000   4.098   3.757  12.062 -0.4374  0.6455  0.0112
15529TIP3   OH268001   0.703   0.803   6.190 -0.1416 -0.1685 -0.1191
15529TIP3    H168002   0.639   0.753   6.240 -0.7760  0.8077  0.0742
15529TIP3    H268003   0.767   0.832   6.255 -0.0198 -0.3626 -0.1543
15530TIP3   OH268004   6.466   6.708   6.591  0.2027 -0.3349 -0.5524
15530TIP3    H168005   6.475   6.797   6.625  0.4318 -0.4478 -0.3187
15530TIP3    H268006   6.510   6.710   6.506 -0.7273  0.0557 -1.0402
15531TIP3   OH268007   6.797   2.112   6.050  1.2779  0.9253 -0.1035
15531TIP3    H168008   6.829   2.021   6.054  1.5549  1.0507  0.5222
15531TIP3    H268009   6.719   2.113   6.104 -0.1646  0.4901 -2.0613
15532TIP3   OH268010   4.956   5.467   5.736 -0.6113 -0.2217  0.3531
15532TIP3    H168011   4.869   5.444   5.703 -0.6809  0.6582 -0.1246
15532TIP3    H268012   5.016   5.443   5.665 -0.7195  1.2903 -0.3000
15533TIP3   OH268013   1.307   5.811   1.802 -0.2373 -0.1609  0.2855
15533TIP3    H168014   1.266   5.896   1.783 -1.5308 -0.1009  2.8403
15533TIP3    H268015   1.259   5.749   1.747  0.0406  0.6233 -0.8683
15534TIP3   OH268016   3.343   6.225   1.989  0.4808  0.6521 -0.1567
15534TIP3    H168017   3.429   6.262   1.969 -0.1896  0.8559 -2.9861
15534TIP3    H268018   3.345   6.138   1.949 -0.3172  0.2860  0.5815
15535TIP3   OH268019   1.167   3.232   5.992  0.2578  0.1201 -0.2265
15535TIP3    H168020   1.105   3.161   6.006  0.8898 -0.3591  0.2001
15535TIP3    H268021   1.244   3.207   6.042 -0.3107  2.2391  1.9131
15536TIP3   OH268022   3.434   0.202   1.571 -0.1695 -0.1013 -0.0744
15536TIP3    H168023   3.364   0.266   1.556 -0.4795 -0.5277 -0.4584
15536TIP3    H268024   3.513   0.256   1.582 -0.6900  0.4283  1.2504
15537TIP3   OH268025   4.452   4.243  10.794  0.3149 -0.2032 -0.5264
15537TIP3    H168026   4.531   4.229  10.847 -0.1297 -2.1891 -0.3104
15537TIP3    H268027   4.379   4.225  10.853 -0.2352 -0.6249 -1.3163
15538TIP3   OH268028   4.735   5.188   4.667  0.0618  0.3512 -0.1668
15538TIP3    H168029   4.694   5.102   4.663  0.6206 -0.0511  1.7798
15538TIP3    H268030   4.674   5.242   4.718  1.2758  0.0787  1.6843
15539TIP3   OH268031   4.118   1.390  13.607  0.0320  0.1140  0.2300
15539TIP3    H168032   4.204   1.416  13.639 -0.8530  1.9968  1.2325
15539TIP3    H268033   4.114   1.296  13.623  2.0891 -0.1381 -0.3828
15540TIP3   OH268034   2.795   3.706  16.799 -0.0238 -0.4070 -0.6214
15540TIP3    H168035   2.850   3.732  16.874  1.9789 -0.4017 -2.0164
15540TIP3    H268036   2.751   3.627  16.829 -0.8033  0.6751  1.2400
15541TIP3   OH268037   4.106   5.492  13.478 -0.1587 -0.1622  0.6330
15541TIP3    H168038   4.124   5.561  13.542  1.4796 -1.6683  1.9121
15541TIP3    H268039   4.042   5.436  13.521 -0.6700 -0.0333  0.0467
15542TIP3   OH268040   5.823   0.699   5.232  0.5690  0.9777  0.0547
15542TIP3    H168041   5.755   0.728   5.172  0.8471 -0.1429 -0.8504
15542TIP3    H268042   5.858   0.779   5.271 -0.0873  1.6783 -0.7753
15543TIP3   OH268043   2.865   1.983   4.535  0.2961 -0.2124 -0.0427
15543TIP3    H168044   2.773   2.008   4.528 -0.0182 -1.4152 -0.4388
15543TIP3    H268045   2.899   2.036   4.607 -1.3930 -1.6240  1.9382
15544TIP3   OH268046   2.914   6.747  12.585  0.1450 -0.4013  0.1439
15544TIP3    H168047   2.849   6.679  12.602 -0.2747  0.1636  0.8191
15544TIP3    H268048   2.992   6.699  12.558 -0.3412 -1.1163 -0.0180
15545TIP3   OH268049   1.415   1.523   5.895 -0.3465  0.2100  0.5908
15545TIP3    H168050   1.348   1.550   5.958 -2.9152 -0.4096 -1.6653
15545TIP3    H268051   1.371   1.456   5.841  2.8364 -1.8974  0.3336
15546TIP3   OH268052   2.484   4.010  16.556  0.1058  0.1638  1.0330
15546TIP3    H168053   2.485   4.094  16.602  0.4607  2.1814 -2.2861
15546TIP3    H268054   2.459   4.033  16.466 -0.4110 -3.4146  0.1314
15547TIP3   OH268055   4.943   4.270   2.432 -0.5279  0.0377 -0.4085
15547TIP3    H168056   4.904   4.183   2.438  1.2564 -0.7800 -0.0252
15547TIP3    H268057   4.870   4.327   2.406 -2.2857 -1.1311  1.6353
15548TIP3   OH268058   4.875   5.107  12.446 -0.1221  0.3487  0.1408
15548TIP3    H168059   4.929   5.050  12.501  0.3255 -0.5697 -1.1806
15548TIP3    H268060   4.799   5.128  12.500  0.2688 -0.5617  1.0833
15549TIP3   OH268061   2.525   2.486  12.473  0.3470 -0.1422  0.3190
15549TIP3    H168062   2.598   2.511  12.416 -0.2435 -0.3828 -0.5696
15549TIP3    H268063   2.517   2.559  12.534  0.3615  0.6007 -0.5427
15550TIP3   OH268064   3.387   0.272  15.006 -0.4033  0.2923 -0.5489
15550TIP3    H168065   3.328   0.304  15.074 -1.3198 -0.1472 -1.1040
15550TIP3    H268066   3.387   0.177  15.017  2.2818  0.3978  1.0770
15551TIP3   OH268067   2.396   1.080   1.831 -0.2216 -0.3845 -0.2958
15551TIP3    H168068   2.387   1.028   1.911 -1.7013 -1.5287 -1.1437
15551TIP3    H268069   2.307   1.108   1.811 -0.0157 -0.8524 -2.0043
15552TIP3   OH268070   4.315   0.147   3.959 -0.2364  0.1754 -0.0338
15552TIP3    H168071   4.352   0.060   3.977 -0.9680 -0.0517  0.4152
15552TIP3    H268072   4.375   0.208   4.002  1.1440  0.0155 -1.6459
15553TIP3   OH268073   2.426   6.356   0.459  0.4315  0.2292 -0.0421
15553TIP3    H168074   2.412   6.326   0.549 -0.7324  0.6217 -0.0764
15553TIP3    H268075   2.521   6.359   0.449  0.6695 -3.1343  0.0629
15554TIP3   OH268076   5.647   1.920   5.337  0.2207  0.7863  0.5511
15554TIP3    H168077   5.611   2.007   5.320  1.3766  1.1779  0.0057
15554TIP3    H268078   5.655   1.915   5.432  1.3434  1.7983  0.5284
15555TIP3   OH268079   4.863   4.218   3.363  0.0152 -0.2141  0.2458
15555TIP3    H168080   4.859   4.257   3.276  0.3480  0.7475  0.6527
15555TIP3    H268081   4.774   4.190   3.381  0.2197 -1.8096 -1.0107
15556TIP3   OH268082   5.993   4.464  15.507  0.0360 -0.3988  0.0673
15556TIP3    H168083   6.002   4.534  15.571  0.0535 -1.4943  1.3018
15556TIP3    H268084   5.906   4.476  15.470 -0.1660 -0.0337  0.6477
15557TIP3   OH268085   3.291   4.831  16.848 -0.7012 -0.2488  0.1617
15557TIP3    H168086   3.325   4.917  16.873 -2.1847  0.1417  0.9216
15557TIP3    H268087   3.267   4.790  16.932  1.6001 -2.1541  0.0065
15558TIP3   OH268088   6.369   5.307  13.556 -0.0526 -0.0638 -0.9056
15558TIP3    H168089   6.369   5.324  13.462 -0.0398 -2.0836 -1.3046
15558TIP3    H268090   6.339   5.217  13.565 -0.0815  0.0864  1.0441
15559TIP3   OH268091   1.857   2.348  11.234  0.6597 -0.2550  0.1619
15559TIP3    H168092   1.857   2.348  11.138 -0.3063 -0.8921  0.1444
15559TIP3    H268093   1.772   2.385  11.258 -0.0652 -2.1667  0.7218
15560TIP3   OH268094   3.761   1.186  15.498  0.8816 -0.1925  0.2367
15560TIP3    H168095   3.689   1.123  15.496  1.9379 -1.4518 -0.4220
15560TIP3    H268096   3.735   1.251  15.562 -0.4046 -1.1482  0.7261
15561TIP3   OH268097   6.605   4.417   5.644 -0.1773 -0.8458 -0.0403
15561TIP3    H168098   6.678   4.401   5.584 -0.8949 -2.1507 -0.6005
15561TIP3    H268099   6.548   4.477   5.597  1.2683  1.5354  1.0471
15562TIP3   OH268100   3.270   1.855  16.749  0.2611  0.3903  0.2603
15562TIP3    H168101   3.200   1.829  16.809  0.4466  1.0050  0.7565
15562TIP3    H268102   3.233   1.841  16.662 -0.3019  0.2369  0.5197
15563TIP3   OH268103   0.789   5.110  15.969 -0.0474 -0.2373  0.3808
15563TIP3    H168104   0.777   5.036  16.028 -0.0979  0.9473  1.9260
15563TIP3    H268105   0.788   5.072  15.882  0.2927 -2.0882  1.1451
15564TIP3   OH268106   2.087   2.544  12.788 -0.1287  0.2434 -0.0103
15564TIP3    H168107   2.151   2.595  12.738  0.2348 -1.5789 -1.5082
15564TIP3    H268108   2.138   2.503  12.858  0.2085 -0.5207 -0.6866
15565TIP3   OH268109   3.295   1.507   1.499  0.0806  0.6646 -0.8916
15565TIP3    H168110   3.327   1.584   1.452  2.6412 -0.2852 -0.8679
15565TIP3    H268111   3.275   1.444   1.430 -1.5458  1.1290 -0.8870
15566TIP3   OH268112   3.081   6.403  16.171 -0.5080 -0.4402  0.2775
15566TIP3    H168113   3.157   6.356  16.136 -0.3687 -0.1935  0.2435
15566TIP3    H268114   3.052   6.459  16.099  0.9401  1.5071  1.0765
15567TIP3   OH268115   4.411   0.486  16.078 -0.1735  0.4857  0.5262
15567TIP3    H168116   4.443   0.498  16.167 -0.9411  2.5464  0.5708
15567TIP3    H268117   4.329   0.437  16.088 -0.2170  0.6382  0.9350
15568TIP3   OH268118   1.702   5.158  11.247 -0.2368  0.3305 -0.3456
15568TIP3    H168119   1.697   5.066  11.274 -0.9503  0.3805 -0.2687
15568TIP3    H268120   1.610   5.183  11.233 -0.1328  1.3347  0.6569
15569TIP3   OH268121   2.930   3.714   1.068  0.1590  0.0758 -0.1874
15569TIP3    H168122   3.014   3.697   1.024 -0.0090  0.3421 -0.6106
15569TIP3    H268123   2.911   3.632   1.115  1.0841  0.2995  0.6293
15570TIP3   OH268124   0.219   3.851   4.956 -0.1923 -0.4109  0.4549
15570TIP3    H168125   0.204   3.820   5.045 -2.4428 -0.3189  0.1764
15570TIP3    H268126   0.256   3.775   4.910  2.1726 -0.0960  1.6870
15571TIP3   OH268127   5.315   4.828   2.046  0.3291  0.3972  0.3044
15571TIP3    H168128   5.353   4.887   2.111 -0.5904  0.2186  1.0359
15571TIP3    H268129   5.285   4.884   1.975  0.6578  0.6744  0.3864
15572TIP3   OH268130   2.753   3.073   4.543  0.0221 -0.2253  0.0072
15572TIP3    H168131   2.836   3.078   4.495  0.6235 -0.3372  1.0067
15572TIP3    H268132   2.731   2.980   4.543 -1.1252 -0.0040 -1.9070
15573TIP3   OH268133   4.193   0.785  16.578 -0.0780 -0.0087 -0.0344
15573TIP3    H168134   4.243   0.770  16.498  0.6670  2.4413 -0.1054
15573TIP3    H268135   4.235   0.861  16.619 -0.9327 -0.6974  2.2938
15574TIP3   OH268136   5.231   3.518   5.879  0.2411  0.0874 -0.0460
15574TIP3    H168137   5.281   3.436   5.871 -0.4508 -0.2320 -1.2993
15574TIP3    H268138   5.240   3.542   5.971  0.3381 -1.4872  0.3887
15575TIP3   OH268139   1.121   5.595   3.460  0.8586 -0.2160  0.7650
15575TIP3    H168140   1.138   5.501   3.451  1.6867  0.0054 -0.2414
15575TIP3    H268141   1.025   5.602   3.464  0.6236 -0.9720 -1.5774
15576TIP3   OH268142   5.066   6.767  12.814 -0.2321  0.5875 -0.6600
15576TIP3    H168143   5.048   6.861  12.820  2.3049  1.0478  1.6441
15576TIP3    H268144   5.007   6.727  12.878  0.1190  0.8866 -0.1419
15577TIP3   OH268145   6.767   6.518   2.400  0.2652  0.3993  0.2251
15577TIP3    H168146   6.778   6.549   2.489  0.5999  1.0821 -0.0471
15577TIP3    H268147   6.688   6.563   2.368 -1.2389 -1.5842  0.9083
15578TIP3   OH268148   1.161   4.511  12.381  0.1776 -0.2353 -0.7399
15578TIP3    H168149   1.176   4.603  12.402  1.4906 -0.2444 -1.4974
15578TIP3    H268150   1.233   4.464  12.423  0.2344 -0.7543 -1.3871
15579TIP3   OH268151   5.163   6.056  14.286 -0.0770 -0.7487 -0.8799
15579TIP3    H168152   5.213   6.054  14.205  0.2362 -2.2780 -0.6724
15579TIP3    H268153   5.091   5.995  14.272  0.4771 -1.7150  0.2776
15580TIP3   OH268154   3.685   0.509  15.438  0.1050 -0.4270 -0.6519
15580TIP3    H168155   3.752   0.526  15.372  1.0394 -0.3073  0.3005
15580TIP3    H268156   3.604   0.539  15.398  0.9361  1.5181 -1.0028
15581TIP3   OH268157   3.367   0.337  11.944 -0.3402  0.1426 -0.2776
15581TIP3    H168158   3.390   0.286  11.866  0.2498  1.1492 -0.7875
15581TIP3    H268159   3.435   0.404  11.949  0.0352 -0.3319  1.5263
15582TIP3   OH268160   3.266   6.276   5.540  0.5854 -0.3929  0.4840
15582TIP3    H168161   3.233   6.187   5.536 -0.5841 -0.0252  1.4851
15582TIP3    H268162   3.290   6.289   5.632 -2.8282  1.5151  1.2574
15583TIP3   OH268163   2.943   2.242  15.070  0.0906 -0.1790  0.1748
15583TIP3    H168164   3.015   2.268  15.012 -1.1250 -2.0889 -2.4062
15583TIP3    H268165   2.966   2.154  15.100 -0.6132 -0.3428  0.2562
15584TIP3   OH268166   1.409   1.272  10.984  0.2775  0.7231  0.3712
15584TIP3    H168167   1.314   1.275  10.971 -0.1017  2.7885  2.8274
15584TIP3    H268168   1.445   1.309  10.903 -0.9219 -0.7615 -0.8914
15585TIP3   OH268169   4.832   4.507   1.342  0.0473 -0.0221  0.2152
15585TIP3    H168170   4.865   4.446   1.276 -0.1649  0.3016 -0.1922
15585TIP3    H268171   4.768   4.560   1.296  1.3755  1.5871  0.1330
15586TIP3   OH268172   6.117   0.982  13.257 -0.2638  0.1009 -0.4219
15586TIP3    H168173   6.118   1.058  13.316 -1.3247 -0.7715  0.7777
15586TIP3    H268174   6.209   0.957  13.248  0.2215  2.1492 -1.7099
15587TIP3   OH268175   5.415   6.282   3.510  0.2919 -0.6888 -0.1709
15587TIP3    H168176   5.453   6.368   3.495 -0.7875  0.2304  1.9573
15587TIP3    H268177   5.350   6.272   3.440  0.0815  0.4470 -0.1484
15588TIP3   OH268178   0.847   3.594   3.988 -0.3671  0.1726 -0.0438
15588TIP3    H168179   0.907   3.581   3.914 -0.7481  0.4724 -0.4128
15588TIP3    H268180   0.903   3.629   4.057 -0.1626  0.7273 -0.4792
15589TIP3   OH268181   3.625   2.743   5.349  0.1345  0.0848  0.0646
15589TIP3    H168182   3.608   2.663   5.398  1.1509 -0.5526 -0.5796
15589TIP3    H268183   3.548   2.754   5.293  0.9377 -1.7540 -1.5315
15590TIP3   OH268184   3.815   1.819  16.716  0.0431 -0.7853  0.2142
15590TIP3    H168185   3.789   1.812  16.808  1.8956 -1.3839  0.7490
15590TIP3    H268186   3.863   1.738  16.698  0.6564 -0.1984 -0.9443
15591TIP3   OH268187   1.638   3.429   3.404  0.1840 -0.6369 -0.2920
15591TIP3    H168188   1.684   3.350   3.378  0.4905  0.0416 -1.9344
15591TIP3    H268189   1.579   3.448   3.331  0.1277  0.6560  0.0604
15592TIP3   OH268190   5.498   5.281   5.953 -0.3375 -0.2450 -0.3903
15592TIP3    H168191   5.528   5.296   5.863  1.4100 -0.5129  0.1023
15592TIP3    H268192   5.568   5.317   6.007 -0.4553 -1.7758  0.8431
15593TIP3   OH268193   5.125   6.221  14.575 -0.1422  0.0877  0.2331
15593TIP3    H168194   5.164   6.134  14.570  0.1365  0.2125  0.1827
15593TIP3    H268195   5.123   6.252  14.485 -0.6041 -0.0230  0.2069
15594TIP3   OH268196   4.369   2.996   5.836 -0.2374 -0.8310 -0.0592
15594TIP3    H168197   4.399   2.922   5.784 -0.5841 -2.4237  1.8756
15594TIP3    H268198   4.433   3.002   5.908 -2.4450 -2.0986  2.1938
15595TIP3   OH268199   1.124   4.964   0.951  0.1279 -0.1091  0.5392
15595TIP3    H168200   1.072   4.968   1.031 -1.3743 -1.6962 -0.2677
15595TIP3    H268201   1.083   4.894   0.900  1.9261 -0.1252 -0.9986
15596TIP3   OH268202   6.210   0.961  16.264 -0.2559  0.3536 -0.8826
15596TIP3    H168203   6.250   1.031  16.212  0.5615  1.9029  1.6802
15596TIP3    H268204   6.134   1.002  16.305  0.3478 -0.1649  0.8263
15597TIP3   OH268205   5.595   2.650   0.416  0.2137 -0.0367  0.0681
15597TIP3    H168206   5.685   2.672   0.440 -0.4607  4.3197 -0.5480
15597TIP3    H268207   5.604   2.594   0.338  2.3568 -0.1726  0.3546
15598TIP3   OH268208   3.631   0.690   3.980 -0.1368  0.2205  0.2234
15598TIP3    H168209   3.710   0.697   3.928 -1.1849 -1.2164 -1.6927
15598TIP3    H268210   3.611   0.780   4.006  3.1349  0.4554  2.5233
15599TIP3   OH268211   6.265   2.884   2.524  0.5638  0.5442 -0.3565
15599TIP3    H168212   6.264   2.876   2.428  0.6614  1.2129 -0.4144
15599TIP3    H268213   6.236   2.973   2.541 -1.4515 -0.1831  0.3233
15600TIP3   OH268214   3.739   0.667   4.736 -0.2685  0.0625 -0.1598
15600TIP3    H168215   3.812   0.624   4.690  0.7785  1.0808  0.4979
15600TIP3    H268216   3.763   0.760   4.737 -1.8042  0.4785 -0.3100
15601TIP3   OH268217   4.734   4.149  11.765  0.4772 -0.3018  0.3873
15601TIP3    H168218   4.717   4.191  11.681  0.5049 -0.7350  0.1646
15601TIP3    H268219   4.691   4.206  11.829 -0.1523 -0.3407  0.0145
15602TIP3   OH268220   0.072   4.616  13.352 -0.7536 -0.0738  0.1472
15602TIP3    H168221   0.122   4.698  13.357 -1.7013  0.5567 -0.4656
15602TIP3    H268222  -0.012   4.641  13.313 -0.9935 -1.3764 -0.2211
15603TIP3   OH268223   5.595   5.110  14.027 -0.1575 -0.1784  0.4018
15603TIP3    H168224   5.690   5.106  14.018 -0.1238 -0.4202  0.8574
15603TIP3    H268225   5.580   5.124  14.120 -0.5608  0.2524  0.2745
15604TIP3   OH268226   3.747   1.819   5.953 -0.1061  0.2571  0.4839
15604TIP3    H168227   3.768   1.796   6.043 -1.4353 -1.1071  0.4987
15604TIP3    H268228   3.651   1.825   5.952 -0.1373 -0.1573 -0.9032
15605TIP3   OH268229   5.513   0.743  15.958  0.1735  0.1938  0.6015
15605TIP3    H168230   5.425   0.771  15.984 -1.1511 -2.1316 -0.9493
15605TIP3    H268231   5.498   0.674  15.893  3.1701  2.5468 -2.9866
15606TIP3   OH268232   3.637   0.703   1.601  0.5598 -0.3192  0.0847
15606TIP3    H168233   3.552   0.660   1.610  0.4002  0.0238  0.2622
15606TIP3    H268234   3.653   0.743   1.687  0.8796 -0.3465  0.0384
15607TIP3   OH268235   6.305   5.181   0.548  0.2716 -0.0112  0.1866
15607TIP3    H168236   6.345   5.268   0.551 -0.4817  0.3261  1.6159
15607TIP3    H268237   6.220   5.195   0.507 -0.8942  0.4521  2.5561
15608TIP3   OH268238   2.377   5.256   2.805  0.3115  0.8153  0.3075
15608TIP3    H168239   2.371   5.202   2.884 -0.9590 -0.1052 -0.3924
15608TIP3    H268240   2.396   5.344   2.837  1.4046  0.1642  1.5338
15609TIP3   OH268241   3.886   2.993  12.188  0.1757  0.1267  0.0668
15609TIP3    H168242   3.839   3.074  12.206 -0.3361 -0.2022  0.2233
15609TIP3    H268243   3.843   2.957  12.111 -0.4931 -0.6740  0.7869
15610TIP3   OH268244   4.957   1.140   3.722  0.5225 -0.4145  0.5100
15610TIP3    H168245   4.884   1.202   3.718 -0.7436 -1.8558  0.1685
15610TIP3    H268246   4.945   1.094   3.805  0.8447 -0.8778  0.3067
15611TIP3   OH268247   5.800   6.287   4.978 -0.2589 -0.7370  0.4112
15611TIP3    H168248   5.708   6.267   4.961 -0.0668  0.4246 -2.7723
15611TIP3    H268249   5.812   6.375   4.943  2.2642 -1.2234 -0.1439
15612TIP3   OH268250   1.945   4.514   6.019  0.1660 -0.6358  0.5492
15612TIP3    H168251   1.881   4.443   6.006 -0.0145 -0.3534 -0.1765
15612TIP3    H268252   2.025   4.469   6.045 -0.2039 -1.0333  1.0148
15613TIP3   OH268253   3.077   5.087  14.274 -0.2823 -0.3189  0.2418
15613TIP3    H168254   3.032   5.010  14.239 -2.8606  2.6747 -3.8490
15613TIP3    H268255   3.016   5.125  14.337 -1.8128  1.3503 -2.0787
15614TIP3   OH268256   5.933   1.872  14.965 -0.9256 -0.1573  0.1714
15614TIP3    H168257   6.016   1.826  14.976 -0.0611 -0.1748 -4.3802
15614TIP3    H268258   5.866   1.805  14.978  0.0270 -1.2685 -0.4455
15615TIP3   OH268259   1.830   6.380  10.844 -0.1165 -0.0488 -0.2524
15615TIP3    H168260   1.865   6.300  10.805 -0.4834 -0.6340  0.5868
15615TIP3    H268261   1.762   6.408  10.782  1.2777  0.6864 -1.5060
15616TIP3   OH268262   0.536   3.915   2.857 -0.0950 -0.1856  0.0135
15616TIP3    H168263   0.492   3.982   2.805  0.1507 -0.4740 -0.5661
15616TIP3    H268264   0.583   3.862   2.794  0.1959 -0.5502  0.5280
15617TIP3   OH268265   0.335   3.123   0.453 -0.5956  0.2276 -0.3506
15617TIP3    H168266   0.325   3.201   0.508 -0.3441 -0.2157  0.3306
15617TIP3    H268267   0.353   3.158   0.366  0.4506  0.9343  0.1243
15618TIP3   OH268268   3.862   5.651  13.867  0.9136 -0.0127 -0.7670
15618TIP3    H168269   3.919   5.577  13.886  0.2119 -0.6551 -1.1058
15618TIP3    H268270   3.922   5.722  13.843  1.5750 -0.5936 -0.8606
15619TIP3   OH268271   5.738   6.523  12.691  0.0208  0.0181 -0.0999
15619TIP3    H168272   5.812   6.557  12.641 -0.0958  0.9665  0.3634
15619TIP3    H268273   5.666   6.520  12.628  0.9745 -3.1743 -1.2271
15620TIP3   OH268274   2.601   1.961  13.698  0.2480  0.1069 -0.3547
15620TIP3    H168275   2.573   1.884  13.649  0.3614 -2.3008  2.9784
15620TIP3    H268276   2.522   1.992  13.742  0.6262  0.4726  0.0811
15621TIP3   OH268277   3.139   6.128   1.810 -0.4805 -0.3809  0.0844
15621TIP3    H168278   3.200   6.166   1.748 -2.1788  1.3994 -0.5914
15621TIP3    H268279   3.177   6.148   1.896  0.9744 -1.2945 -0.3086
15622TIP3   OH268280   0.345   4.259  15.003 -0.3869 -0.1593 -0.1871
15622TIP3    H168281   0.266   4.227  15.047 -1.1395  0.3532 -1.1282
15622TIP3    H268282   0.325   4.253  14.910  0.4417  0.5801 -0.4312
15623TIP3   OH268283   2.764   0.804   3.313 -0.2314 -0.1059 -0.2186
15623TIP3    H168284   2.829   0.746   3.271 -0.6266 -1.1141  0.5329
15623TIP3    H268285   2.814   0.852   3.378 -0.0578 -0.2032 -0.2783
15624TIP3   OH268286   1.336   5.068  12.969  0.4115  0.1747  0.4215
15624TIP3    H168287   1.428   5.044  12.980  0.4648 -0.1873 -0.6466
15624TIP3    H268288   1.286   4.991  12.997  0.4595  0.1137  0.3385
15625TIP3   OH268289   0.537   4.388  11.009  1.1172 -0.2254  0.0488
15625TIP3    H168290   0.501   4.337  10.936  1.8574  1.1929 -1.3495
15625TIP3    H268291   0.547   4.476  10.975  3.8388 -0.0442  1.0479
15626TIP3   OH268292   4.944   3.471   2.547 -0.1336  0.5311 -0.3003
15626TIP3    H168293   5.000   3.421   2.606  0.4902  0.7728 -0.6746
15626TIP3    H268294   4.912   3.545   2.599 -0.1884  0.3383 -0.0595
15627TIP3   OH268295   0.561   3.439   0.618  0.0272  0.1633  0.2995
15627TIP3    H168296   0.656   3.454   0.625  0.0233  0.2571  0.1599
15627TIP3    H268297   0.539   3.471   0.531  0.3873 -2.5885 -0.9070
15628TIP3   OH268298   0.315   0.503   3.528 -0.1652  0.1949 -0.3461
15628TIP3    H168299   0.302   0.438   3.597  1.7197 -0.4219 -0.5119
15628TIP3    H268300   0.409   0.499   3.509 -0.4434  1.1802 -2.1325
15629TIP3   OH268301   2.201   4.268  12.263 -0.2882  0.7765 -0.0047
15629TIP3    H168302   2.270   4.302  12.320  1.3517  0.4203 -1.6820
15629TIP3    H268303   2.191   4.335  12.195  0.6661 -0.5561 -1.5124
15630TIP3   OH268304   6.756   6.081  11.522 -0.0414  0.1279 -0.1276
15630TIP3    H168305   6.694   6.054  11.589 -0.4153  0.7781 -0.2122
15630TIP3    H268306   6.722   6.163  11.489  1.4978  1.1286  0.6609
15631TIP3   OH268307   5.370   3.071   3.428 -0.9341  0.0955  1.0360
15631TIP3    H168308   5.313   3.112   3.363 -0.6871 -1.1428  0.0055
15631TIP3    H268309   5.312   3.017   3.481 -1.1217  1.0359  1.8127
15632TIP3   OH268310   6.111   5.164  11.068 -0.4843 -0.1312  0.2254
15632TIP3    H168311   6.076   5.079  11.095 -0.9971  0.2951  0.9253
15632TIP3    H268312   6.159   5.145  10.987 -0.3076 -1.1407  0.5546
15633TIP3   OH268313   5.576   3.698  15.130  0.5155  0.3099 -0.9317
15633TIP3    H168314   5.640   3.628  15.118 -0.5682 -0.8017 -0.3546
15633TIP3    H268315   5.505   3.677  15.069 -0.1230  0.5269 -0.2842
15634TIP3   OH268316   0.913   1.657   4.576 -0.0602 -0.4451  0.0978
15634TIP3    H168317   0.885   1.696   4.493 -0.2121 -1.3759 -0.3049
15634TIP3    H268318   0.944   1.731   4.628  2.2564 -0.0485 -1.6705
15635TIP3   OH268319   4.596   3.780   0.994 -0.0587  0.3100  0.0092
15635TIP3    H168320   4.603   3.769   1.089  5.9028  0.3370 -0.0262
15635TIP3    H268321   4.597   3.690   0.960 -2.1441  0.3028 -0.1883
15636TIP3   OH268322   4.972   4.175   1.861 -0.6668 -0.1723  0.4684
15636TIP3    H168323   4.986   4.137   1.948 -0.2114  0.8847  0.8724
15636TIP3    H268324   5.010   4.111   1.801 -0.4989 -0.6606  1.0841
15637TIP3   OH268325   3.428   3.172  12.760 -0.0363  0.1275 -0.2386
15637TIP3    H168326   3.426   3.212  12.673  1.4031 -0.7751 -0.7293
15637TIP3    H268327   3.439   3.245  12.820  1.9606  0.5736 -1.0743
15638TIP3   OH268328   0.919   5.563   5.624  0.6453  0.0722 -0.5669
15638TIP3    H168329   0.895   5.570   5.716  0.4562 -1.8136 -0.4318
15638TIP3    H268330   0.862   5.494   5.590 -0.3237  1.7279 -2.4878
15639TIP3   OH268331   2.104   6.821  16.651  0.2769 -0.2650  0.1865
15639TIP3    H168332   2.034   6.834  16.716  0.4782 -0.8602  0.5304
15639TIP3    H268333   2.060   6.826  16.567  0.3462  2.8471  0.2251
15640TIP3   OH268334   1.508   1.649  16.270  0.1596  0.2604 -0.9112
15640TIP3    H168335   1.487   1.557  16.283 -0.6798  0.3490 -1.5780
15640TIP3    H268336   1.427   1.688  16.239  0.9165  0.9331 -2.0974
15641TIP3   OH268337   2.438   5.457   3.911 -0.6920 -0.8901 -0.3263
15641TIP3    H168338   2.474   5.458   3.822  1.0111 -0.1455  0.3297
15641TIP3    H268339   2.410   5.547   3.927 -0.5484 -0.9110  0.0542
15642TIP3   OH268340   2.071   0.941   4.747 -0.8890 -0.0136  0.1003
15642TIP3    H168341   2.040   1.006   4.810 -1.5338  0.4880 -0.7118
15642TIP3    H268342   1.992   0.896   4.718 -0.6209 -0.1002 -0.5037
15643TIP3   OH268343   1.136   6.414   4.592 -0.1057  0.0162  0.3283
15643TIP3    H168344   1.047   6.377   4.592  0.3815 -1.2327 -1.3297
15643TIP3    H268345   1.193   6.338   4.596  0.9281  0.7904  0.6632
15644TIP3   OH268346   6.203   4.279  12.428 -0.1872 -0.0362  0.1353
15644TIP3    H168347   6.221   4.187  12.447  2.0783  0.5029  0.8272
15644TIP3    H268348   6.216   4.287  12.333 -1.6059 -0.6420 -0.1364
15645TIP3   OH268349   0.046   0.962  12.451 -0.8858 -0.5189  0.2078
15645TIP3    H168350   0.101   0.979  12.528  0.9906 -1.3313 -0.8929
15645TIP3    H268351   0.058   1.039  12.395 -1.6641 -0.2606  0.3856
15646TIP3   OH268352   0.132   4.563  11.827  0.2517 -0.0227  0.3927
15646TIP3    H168353   0.191   4.519  11.887  0.8923 -2.2371 -1.7101
15646TIP3    H268354   0.174   4.556  11.741 -2.4097 -0.5674 -0.9877
15647TIP3   OH268355   4.267   3.967  11.889  0.2797 -0.5403  0.4113
15647TIP3    H168356   4.327   3.929  11.824  1.1401 -0.4783  1.1566
15647TIP3    H268357   4.257   3.898  11.955 -0.4830 -0.5481  0.2988
15648TIP3   OH268358   6.157   0.898   5.036 -0.0901 -0.0218 -0.1289
15648TIP3    H168359   6.163   0.952   4.957 -1.1777  0.7378  0.2887
15648TIP3    H268360   6.117   0.816   5.006 -0.1794  0.1296 -0.4291
15649TIP3   OH268361   6.725   1.224   0.880  0.4122  0.0100  0.0559
15649TIP3    H168362   6.668   1.301   0.881  0.1513 -0.1378 -1.3360
15649TIP3    H268363   6.800   1.248   0.934 -0.2150  0.8074  0.5830
15650TIP3   OH268364   6.796   5.077   4.578  0.3271 -0.7151 -0.6495
15650TIP3    H168365   6.800   5.091   4.484 -1.9854  1.5820 -0.5182
15650TIP3    H268366   6.746   4.997   4.590  0.5402 -0.9545 -1.3526
15651TIP3   OH268367   0.130   1.506  12.746  0.3501 -0.0463 -0.1087
15651TIP3    H168368   0.070   1.520  12.673  0.8678  4.3659  0.0254
15651TIP3    H268369   0.217   1.523  12.709  0.8042  0.3485  1.0848
15652TIP3   OH268370   6.046   1.968   1.685 -0.9031  0.0033  0.2857
15652TIP3    H168371   6.077   1.912   1.614  0.5050 -1.7630  2.1674
15652TIP3    H268372   5.952   1.949   1.691 -0.9566 -0.1196 -0.8340
15653TIP3   OH268373   2.531   3.649  11.358 -0.0109  0.0645  0.2867
15653TIP3    H168374   2.620   3.632  11.388  0.3714  1.8479  0.3043
15653TIP3    H268375   2.480   3.663  11.437 -0.1351 -0.1726  0.2504
15654TIP3   OH268376   5.733   0.900  15.372  0.1866 -0.0626  0.1766
15654TIP3    H168377   5.764   0.810  15.385 -1.5292 -0.8500 -0.8679
15654TIP3    H268378   5.813   0.952  15.367  1.2065 -1.0907  3.3564
15655TIP3   OH268379   3.739   0.225  17.077  0.3243  0.4160  0.0158
15655TIP3    H168380   3.690   0.229  16.995 -0.7035  0.6796  0.6125
15655TIP3    H268381   3.675   0.193  17.141 -0.1049  3.8303  1.5178
15656TIP3   OH268382   2.451   1.261   6.551 -0.1255 -0.0808 -0.2303
15656TIP3    H168383   2.449   1.166   6.560  1.4529 -0.2522 -1.1925
15656TIP3    H268384   2.400   1.294   6.625  0.9457 -1.6323  1.2842
15657TIP3   OH268385   4.930   6.792   2.689  0.2400  0.4049  0.7066
15657TIP3    H168386   4.907   6.825   2.776 -0.8449 -1.6191  1.2347
15657TIP3    H268387   4.852   6.808   2.636  0.6068  0.8925  0.3013
15658TIP3   OH268388   3.853   4.901   2.834 -0.0270  1.1312 -0.3462
15658TIP3    H168389   3.780   4.955   2.803  0.9816  2.4785 -0.4691
15658TIP3    H268390   3.904   4.883   2.755 -0.9486 -1.0261 -0.5103
15659TIP3   OH268391   1.323   4.804   5.022 -0.1899 -0.4339  0.0355
15659TIP3    H168392   1.267   4.751   4.965 -0.5702 -0.0760  0.0756
15659TIP3    H268393   1.264   4.841   5.087 -0.2368  1.5050 -1.0513
15660TIP3   OH268394   6.106   6.207  13.964  0.0613 -0.0879  0.0846
15660TIP3    H168395   6.115   6.287  13.912 -0.7916  0.7162  1.1444
15660TIP3    H268396   6.033   6.160  13.923  0.6947 -0.4539 -0.6662
15661TIP3   OH268397   4.333   5.037  13.484 -0.5839 -0.0124  0.4052
15661TIP3    H168398   4.315   5.127  13.459 -1.6282  0.0731  1.4049
15661TIP3    H268399   4.258   5.010  13.537 -0.3006 -1.4734  0.1254
15662TIP3   OH268400   5.644   0.012  12.543  0.5339  0.3370  0.2456
15662TIP3    H168401   5.648  -0.084  12.533  1.4579 -0.0498  3.3735
15662TIP3    H268402   5.695   0.045  12.469  1.7619 -1.6958  0.0952
15663TIP3   OH268403   3.638   3.102   2.085  0.0543  0.6578 -0.3328
15663TIP3    H168404   3.586   3.083   2.163  0.7682  0.7424  0.1654
15663TIP3    H268405   3.647   3.018   2.041 -0.2922  0.5974 -0.2915
15664TIP3   OH268406   2.707   6.382   0.982  0.1842 -0.1843  0.4823
15664TIP3    H168407   2.708   6.316   1.051  0.5057  0.2260  0.8809
15664TIP3    H268408   2.705   6.332   0.900  1.1377 -0.7073  0.7587
15665TIP3   OH268409   4.950   0.911  16.061  0.5078 -0.5614 -0.1204
15665TIP3    H168410   4.995   0.970  16.001  1.2464 -0.5172  0.4741
15665TIP3    H268411   4.964   0.948  16.148  0.6178 -1.3763  0.2225
15666TIP3   OH268412   0.040   4.146   3.806 -0.0666  0.6386 -0.3642
15666TIP3    H168413   0.124   4.178   3.774  1.0713 -2.1124 -0.3576
15666TIP3    H268414  -0.022   4.170   3.737  0.9891  1.4024 -1.0758
15667TIP3   OH268415   0.446   0.034   0.963 -0.4546 -0.1036 -0.3832
15667TIP3    H168416   0.512  -0.009   1.017  0.3097  1.5238  0.0020
15667TIP3    H268417   0.491   0.055   0.881 -1.1968 -1.1785 -1.1043
15668TIP3   OH268418   0.132   3.368   4.915  0.3930  0.9008 -0.1100
15668TIP3    H168419   0.046   3.365   4.956  0.3785 -0.7082 -0.2087
15668TIP3    H268420   0.193   3.342   4.985  0.5075 -0.4758 -0.6813
15669TIP3   OH268421   4.205   2.639   1.713  0.2930  0.3818  0.6065
15669TIP3    H168422   4.290   2.603   1.688  0.9599  1.2546  1.5711
15669TIP3    H268423   4.208   2.731   1.686 -0.3431  0.4245  0.6545
15670TIP3   OH268424   1.075   4.180   2.528 -0.1764 -0.0721  0.1168
15670TIP3    H168425   1.113   4.094   2.546 -0.1443  0.4670  3.3447
15670TIP3    H268426   1.150   4.238   2.518 -0.1671 -0.0234  0.4484
15671TIP3   OH268427   2.578   6.527   5.116  0.4136 -0.8625 -0.2238
15671TIP3    H168428   2.662   6.552   5.156 -0.7652  1.7945  0.8146
15671TIP3    H268429   2.527   6.490   5.187 -1.1150  2.4174  0.5453
15672TIP3   OH268430   5.515   5.571   0.867 -0.1076  0.0788  0.6150
15672TIP3    H168431   5.512   5.480   0.839  2.1100  0.4497 -1.2191
15672TIP3    H268432   5.435   5.610   0.833  0.1430 -0.6547 -0.9156
15673TIP3   OH268433   5.176   6.083  12.444  0.5080 -0.0088  0.3865
15673TIP3    H168434   5.164   5.998  12.403  2.2535 -0.0642 -0.0904
15673TIP3    H268435   5.198   6.142  12.371 -1.0887  0.9666  0.6508
15674TIP3   OH268436   1.629   2.844   3.697  0.3006 -0.1165 -0.4040
15674TIP3    H168437   1.588   2.884   3.773  0.2141  0.2757 -0.6572
15674TIP3    H268438   1.691   2.909   3.665 -0.3790  0.1237 -1.2644
15675TIP3   OH268439   1.133   1.163   4.554  0.2309  0.1696  0.1781
15675TIP3    H168440   1.200   1.193   4.492  1.8768  0.9174  2.1827
15675TIP3    H268441   1.074   1.238   4.563 -0.9870 -0.5101 -1.6399
15676TIP3   OH268442   5.237   4.572   0.672  0.3362  0.3480  0.0097
15676TIP3    H168443   5.190   4.569   0.589 -1.8205  0.1015  1.1548
15676TIP3    H268444   5.308   4.509   0.663 -1.6975 -1.9625 -0.6251
15677TIP3   OH268445   4.844   0.872  12.400 -0.0586 -0.3807  0.4221
15677TIP3    H168446   4.864   0.826  12.318 -1.5849 -3.4139  1.5705
15677TIP3    H268447   4.827   0.962  12.373 -0.5179 -1.2525 -2.6221
15678TIP3   OH268448   0.784   2.376   2.465 -0.1628  0.5710 -0.0765
15678TIP3    H168449   0.698   2.398   2.499 -0.7872 -0.5256 -0.8623
15678TIP3    H268450   0.808   2.295   2.510  1.0145  1.4873  1.0171
15679TIP3   OH268451   5.617   3.685   1.602  0.1728 -0.4931 -0.7151
15679TIP3    H168452   5.650   3.631   1.530  0.9925 -1.2135  0.1847
15679TIP3    H268453   5.621   3.628   1.679  1.1133  0.8549  0.2740
15680TIP3   OH268454   2.252   1.412   0.389 -0.6729 -0.2692 -0.2434
15680TIP3    H168455   2.328   1.457   0.354 -1.2585  0.5450 -0.4992
15680TIP3    H268456   2.288   1.338   0.438  0.3043  0.4247  0.1157
15681TIP3   OH268457   2.466   5.173  16.708  0.1776  0.0320 -0.4889
15681TIP3    H168458   2.414   5.207  16.780 -0.9998 -0.7235 -0.9569
15681TIP3    H268459   2.517   5.102  16.747 -1.4368 -1.2644 -0.6265
15682TIP3   OH268460   5.005   5.276  14.340 -0.2018 -0.1117 -0.2489
15682TIP3    H168461   5.057   5.247  14.264  0.1609  0.5036 -0.2481
15682TIP3    H268462   4.975   5.196  14.381  0.7242 -0.4852 -0.2781
15683TIP3   OH268463   0.840   3.419  13.357  0.0161 -0.1403  0.2083
15683TIP3    H168464   0.782   3.420  13.434 -0.4446  0.8642 -0.1459
15683TIP3    H268465   0.802   3.352  13.300 -0.0636 -0.3739  0.5308
15684TIP3   OH268466   4.750   4.002   5.120 -0.1779  0.3369  0.4038
15684TIP3    H168467   4.819   3.976   5.181  0.3295 -1.2192 -0.7557
15684TIP3    H268468   4.672   4.009   5.175  0.7832  1.7072  1.6639
15685TIP3   OH268469   3.318   5.430   5.085  0.5221 -0.3206 -0.0972
15685TIP3    H168470   3.337   5.343   5.121  1.9115 -0.4496 -1.0926
15685TIP3    H268471   3.347   5.426   4.994  0.1911  1.0554 -0.2892
15686TIP3   OH268472   3.447   4.366  12.811  0.0142  0.1057 -0.3503
15686TIP3    H168473   3.529   4.327  12.781  0.5375  0.4471  0.5554
15686TIP3    H268474   3.474   4.449  12.852 -0.8021  0.3006 -0.1832
15687TIP3   OH268475   1.115   3.496  15.900  0.2065 -0.6055 -0.8601
15687TIP3    H168476   1.124   3.591  15.887  0.1439 -0.0878  2.1137
15687TIP3    H268477   1.167   3.478  15.979  0.9152 -3.2359 -1.8364
15688TIP3   OH268478   3.317   6.040  12.607  0.0287  0.3439 -0.6130
15688TIP3    H168479   3.283   5.952  12.595 -0.1978  0.2957  0.2828
15688TIP3    H268480   3.395   6.029  12.662 -0.5459  0.7704  0.3193
15689TIP3   OH268481   6.715   2.285   3.396  0.7340 -0.5738 -0.1536
15689TIP3    H168482   6.630   2.242   3.401 -0.2052  0.8439 -2.5307
15689TIP3    H268483   6.720   2.338   3.476 -1.2361  0.3165 -0.5658
15690TIP3   OH268484   4.369   6.601   5.416 -0.1769  0.1023  0.3383
15690TIP3    H168485   4.445   6.631   5.465 -1.2052  1.8748  0.9246
15690TIP3    H268486   4.331   6.681   5.379 -1.0194 -0.8894 -1.0257
15691TIP3   OH268487   2.533   0.239  16.703  0.3246 -0.6246  0.0874
15691TIP3    H168488   2.440   0.219  16.713  0.6525 -2.6704 -0.4236
15691TIP3    H268489   2.535   0.329  16.672 -1.3888  0.0535  1.7537
15692TIP3   OH268490   0.156   5.624   5.564  0.1383  0.4249  0.5641
15692TIP3    H168491   0.175   5.531   5.549  0.9987  0.7371 -0.3792
15692TIP3    H268492   0.179   5.638   5.656  3.4262  0.4769 -0.1526
15693TIP3   OH268493   0.930   4.759   0.415 -0.0799  0.0881 -0.3203
15693TIP3    H168494   0.875   4.760   0.337  0.6495  0.6719 -0.8368
15693TIP3    H268495   1.008   4.709   0.389 -0.8914 -1.8931  0.8023
15694TIP3   OH268496   6.682   3.082   3.171  0.3301  0.2566  0.7149
15694TIP3    H168497   6.760   3.133   3.192  1.0804 -1.6487  3.1059
15694TIP3    H268498   6.646   3.057   3.257 -3.5305  1.8238 -0.2289
15695TIP3   OH268499   3.502   2.453  11.743  0.0237 -0.5334  0.1162
15695TIP3    H168500   3.548   2.511  11.805  0.3482  0.0741 -0.6721
15695TIP3    H268501   3.490   2.507  11.665 -2.3012 -0.5843  0.3790
15696TIP3   OH268502   1.472   2.980  11.408  0.0021  0.2838 -0.2728
15696TIP3    H168503   1.566   2.992  11.415  0.2028 -0.9098 -0.7112
15696TIP3    H268504   1.435   3.068  11.421  1.3363  1.4357 -3.3203
15697TIP3   OH268505   3.574   6.365   3.615 -0.2211 -0.2056  0.8729
15697TIP3    H168506   3.522   6.389   3.692 -0.3344  0.8387  0.4797
15697TIP3    H268507   3.664   6.384   3.640 -0.2670  0.2158  0.7105
15698TIP3   OH268508   2.473   4.962  14.091  0.8561 -0.3703  0.0072
15698TIP3    H168509   2.429   4.916  14.163  1.0967 -0.8939 -0.1799
15698TIP3    H268510   2.531   5.025  14.134 -0.8758  1.1330  0.2724
15699TIP3   OH268511   2.401   0.974  16.944  0.7880  0.1319 -0.6684
15699TIP3    H168512   2.441   0.929  16.869 -0.7544 -0.9640 -0.8729
15699TIP3    H268513   2.411   1.067  16.923 -0.2772 -0.1451 -2.6383
15700TIP3   OH268514   3.652   0.501   4.990  0.8254  0.3404 -0.1428
15700TIP3    H168515   3.681   0.414   4.961 -0.2781 -0.4312  0.9376
15700TIP3    H268516   3.700   0.562   4.934  1.2346 -0.9700 -1.2939
15701TIP3   OH268517   6.598   4.776   3.481 -0.0429 -0.2850 -0.0048
15701TIP3    H168518   6.625   4.712   3.547  2.5934 -0.3032 -0.9927
15701TIP3    H268519   6.512   4.805   3.510  0.1662 -1.7468  2.3368
15702TIP3   OH268520   2.878   4.395  16.811 -0.1495 -0.2611 -0.1078
15702TIP3    H168521   2.873   4.465  16.876  0.5705  0.4179 -0.7586
15702TIP3    H268522   2.796   4.346  16.821  0.0469 -0.3150  1.4495
15703TIP3   OH268523   6.239   6.774   3.539  0.1926  0.3736  0.8562
15703TIP3    H168524   6.274   6.713   3.473 -0.4446  0.8736  0.0336
15703TIP3    H268525   6.257   6.860   3.503 -0.0320  0.6541  1.4137
15704TIP3   OH268526   2.311   3.231  10.472 -0.1761 -0.1630 -0.3106
15704TIP3    H168527   2.372   3.159  10.460  0.0297  0.0342 -0.4486
15704TIP3    H268528   2.354   3.307  10.432  0.4252  0.4641  1.4467
15705TIP3   OH268529   4.447   5.066  11.992 -0.2180 -0.6310  0.2482
15705TIP3    H168530   4.373   5.087  11.935 -0.6622 -0.0653  1.0227
15705TIP3    H268531   4.474   5.150  12.028  0.3213 -0.9346  0.5624
15706TIP3   OH268532   5.357   2.949  11.410  0.0150  0.2603  0.7746
15706TIP3    H168533   5.447   2.922  11.392 -0.0308 -0.3521  1.4027
15706TIP3    H268534   5.304   2.875  11.379 -0.3512  0.9995 -0.4406
15707TIP3   OH268535   2.112   6.009   0.664  0.3137  0.3816  0.1080
15707TIP3    H168536   2.112   6.100   0.634  2.7961 -0.1753 -1.9151
15707TIP3    H268537   2.040   5.968   0.616  0.8679  0.7336 -1.0681
15708TIP3   OH268538   4.970   5.657   0.692 -0.3793 -0.0785 -0.1795
15708TIP3    H168539   4.888   5.657   0.741 -1.5243  0.1282 -2.0114
15708TIP3    H268540   4.952   5.602   0.616  1.1621  0.0726 -0.6855
15709TIP3   OH268541   4.912   3.812  11.180  0.3220  0.0533  0.4032
15709TIP3    H168542   4.828   3.778  11.148 -0.4101  1.1901  1.0459
15709TIP3    H268543   4.977   3.751  11.146 -0.6507 -0.1721 -1.1331
15710TIP3   OH268544   0.777   6.576   3.627 -0.7412 -0.0907  0.2215
15710TIP3    H168545   0.860   6.538   3.598 -0.6132 -0.9934  1.6283
15710TIP3    H268546   0.802   6.643   3.691 -1.0815 -0.2558  0.5333
15711TIP3   OH268547   5.494   1.581   4.151  0.0537  0.4031  0.5721
15711TIP3    H168548   5.535   1.529   4.220 -2.0737 -1.1110  0.8046
15711TIP3    H268549   5.404   1.548   4.147 -0.0896  0.8727 -2.4833
15712TIP3   OH268550   2.761   3.597  15.312 -0.1479  0.1463  0.0518
15712TIP3    H168551   2.694   3.614  15.245 -0.8960 -0.4012  0.6325
15712TIP3    H268552   2.724   3.526  15.365 -0.0785  1.2807  1.7014
15713TIP3   OH268553   0.137   6.461   1.236  0.5322 -0.3297  0.1038
15713TIP3    H168554   0.121   6.436   1.327  1.0092  0.8066  0.5167
15713TIP3    H268555   0.232   6.464   1.229  0.5043 -0.6709 -0.5233
15714TIP3   OH268556   1.246   4.707   4.393 -0.5361 -0.2618  0.1674
15714TIP3    H168557   1.330   4.739   4.424 -1.0472 -0.2037  1.5484
15714TIP3    H268558   1.238   4.619   4.429 -0.5722 -0.7341 -0.9300
15715TIP3   OH268559   1.944   5.297   5.895 -0.5541  0.0721 -0.3761
15715TIP3    H168560   1.953   5.390   5.879 -0.9999  0.2579  0.3978
15715TIP3    H268561   1.987   5.282   5.979  0.3120 -0.5838 -0.9150
15716TIP3   OH268562   0.539   5.694   4.451 -0.2289 -0.3125  0.2983
15716TIP3    H168563   0.446   5.673   4.445 -0.2013 -0.3015 -0.1783
15716TIP3    H268564   0.554   5.759   4.383 -0.1998  0.8805  1.4150
15717TIP3   OH268565   3.200   3.577  15.264 -0.6921 -0.0982  0.4499
15717TIP3    H168566   3.244   3.504  15.307 -0.7498 -0.2362  0.2786
15717TIP3    H268567   3.143   3.615  15.331 -0.4479 -0.0303  0.6201
15718TIP3   OH268568   6.486   5.568   0.994  0.3533  0.1005  0.2781
15718TIP3    H168569   6.418   5.635   0.999  1.5132  1.4392 -0.9850
15718TIP3    H268570   6.446   5.491   1.034 -1.4804  1.1654  0.6312
15719TIP3   OH268571   3.864   4.202   6.727 -0.0142 -0.2394 -0.0557
15719TIP3    H168572   3.804   4.277   6.719 -0.2653 -0.5031 -0.7332
15719TIP3    H268573   3.809   4.126   6.713  0.6753 -0.4400 -1.9547
15720TIP3   OH268574   3.980   2.150  16.312  0.1867  0.0417  0.2360
15720TIP3    H168575   3.903   2.187  16.269  0.5238  1.2690  0.6524
15720TIP3    H268576   3.944   2.093  16.380 -0.3453 -1.2964 -1.0940
15721TIP3   OH268577   6.528   2.792   5.655  0.0204  0.2214 -0.0453
15721TIP3    H168578   6.451   2.757   5.610  0.3229  0.6663 -0.9352
15721TIP3    H268579   6.555   2.722   5.715 -1.8415  0.5504  1.2524
15722TIP3   OH268580   3.051   6.822   0.312 -0.3244  0.5012 -0.5894
15722TIP3    H168581   3.138   6.804   0.276 -0.9321 -1.7805 -1.0647
15722TIP3    H268582   2.991   6.797   0.242 -1.4509 -1.1545  0.8921
15723TIP3   OH268583   0.267   5.384  15.792 -0.1923  0.3004 -0.2088
15723TIP3    H168584   0.210   5.428  15.855  1.1759  1.7872  0.0401
15723TIP3    H268585   0.206   5.343  15.730 -1.5405  1.5577  0.2147
15724TIP3   OH268586   4.274   0.710   2.048 -0.0991  0.1002 -0.5507
15724TIP3    H168587   4.292   0.804   2.050 -1.0545  0.3455  2.5816
15724TIP3    H268588   4.360   0.670   2.035  0.5081  1.3981 -0.7432
15725TIP3   OH268589   0.426   5.732   3.144  0.0152 -0.5813 -0.2156
15725TIP3    H168590   0.400   5.649   3.184  0.1015 -0.8649 -0.7444
15725TIP3    H268591   0.359   5.795   3.172  0.5067 -0.5875  1.0331
15726TIP3   OH268592   3.519   6.716   2.497 -0.4935  0.8421 -0.0789
15726TIP3    H168593   3.526   6.771   2.419  2.1599 -0.9594 -1.2607
15726TIP3    H268594   3.588   6.748   2.556 -2.2010  1.9183  1.4369
15727TIP3   OH268595   4.683   2.023   6.047  0.5908  0.0968  0.1372
15727TIP3    H168596   4.596   2.060   6.059  1.4647  1.8711  1.5064
15727TIP3    H268597   4.736   2.096   6.014  2.2930  0.0444  2.4747
15728TIP3   OH268598   5.011   0.673  11.600 -0.1876  0.1162 -0.3395
15728TIP3    H168599   4.998   0.629  11.684 -0.8575 -0.5285 -0.7636
15728TIP3    H268600   5.074   0.742  11.618  0.4308 -0.6412  0.4839
15729TIP3   OH268601   6.212   5.129  13.799 -0.3720  0.3790  0.4442
15729TIP3    H168602   6.132   5.174  13.826 -0.1579 -0.0281  1.8127
15729TIP3    H268603   6.278   5.197  13.797 -0.6504  0.6486 -0.3485
15730TIP3   OH268604   3.929   1.652  14.373 -0.5777  1.0264 -0.3529
15730TIP3    H168605   3.851   1.705  14.356  0.0788  1.8212 -1.0150
15730TIP3    H268606   3.980   1.658  14.292  0.7467  1.5503  0.4819
15731TIP3   OH268607   5.826   1.359  14.729 -0.4145 -0.0831  0.4434
15731TIP3    H168608   5.770   1.427  14.693 -0.3456 -0.2078  0.1036
15731TIP3    H268609   5.887   1.406  14.787  0.5873  0.3381 -0.9142
15732TIP3   OH268610   2.836   3.469   1.194 -0.0470  0.0119  0.0924
15732TIP3    H168611   2.780   3.444   1.121  0.6318 -0.6765 -0.2021
15732TIP3    H268612   2.831   3.394   1.254 -1.7255  1.1354  1.4586
15733TIP3   OH268613   1.560   5.341  15.565  0.3208 -0.4288  0.6410
15733TIP3    H168614   1.484   5.372  15.614  0.0973  0.5030 -0.2483
15733TIP3    H268615   1.618   5.417  15.560  1.1189 -1.0076  0.9368
15734TIP3   OH268616   2.114   6.251  12.500  0.2984 -0.0677  0.2654
15734TIP3    H168617   2.175   6.324  12.496  2.7998 -2.0336  0.2803
15734TIP3    H268618   2.120   6.210  12.414 -1.2494 -0.1823  0.1775
15735TIP3   OH268619   5.422   2.551  14.415 -0.1819 -0.3344  1.1234
15735TIP3    H168620   5.384   2.485  14.357  0.1104  0.2998  0.1676
15735TIP3    H268621   5.451   2.503  14.492  0.0210 -1.3124  0.4462
15736TIP3   OH268622   1.806   4.502  14.493  0.5328 -0.0446 -0.1157
15736TIP3    H168623   1.842   4.546  14.415 -0.3782 -0.6959 -0.9282
15736TIP3    H268624   1.759   4.571  14.540  1.6394  0.5034  0.2282
15737TIP3   OH268625   2.162   3.145  16.784 -0.4286  0.2021 -0.1845
15737TIP3    H168626   2.204   3.058  16.784  0.4969  0.6338 -0.4932
15737TIP3    H268627   2.145   3.163  16.692  0.4524  0.8372 -0.2355
15738TIP3   OH268628   2.772   3.357  16.243 -0.2201 -0.7881  0.1365
15738TIP3    H168629   2.749   3.447  16.219 -2.6378 -0.3662  3.3677
15738TIP3    H268630   2.849   3.366  16.299 -0.2243 -0.8031  0.1454
15739TIP3   OH268631   5.952   3.730   1.268  0.3947 -0.2093  0.0334
15739TIP3    H168632   5.878   3.736   1.207  1.1450  1.4825 -0.7635
15739TIP3    H268633   5.911   3.726   1.354 -0.6336  0.1103 -0.4278
15740TIP3   OH268634   5.169   5.008   2.493  0.0917 -0.2235  0.0976
15740TIP3    H168635   5.170   4.938   2.428 -1.6010 -0.7102  0.5435
15740TIP3    H268636   5.250   5.056   2.477  0.9738 -1.8640 -0.6647
15741TIP3   OH268637   0.174   6.394   1.759  0.1172  0.4150 -0.7458
15741TIP3    H168638   0.118   6.317   1.768 -1.1174  1.1977 -1.5058
15741TIP3    H268639   0.174   6.433   1.846 -1.5323  1.0601 -0.9973
15742TIP3   OH268640   5.617   0.021  15.931  0.0128 -0.4875 -0.1923
15742TIP3    H168641   5.682   0.008  16.001 -0.9568 -1.7086  0.5193
15742TIP3    H268642   5.634  -0.051  15.871  0.9920  0.6882 -1.3878
15743TIP3   OH268643   5.492   4.958   6.634 -0.0748 -0.0989  0.2229
15743TIP3    H168644   5.487   4.866   6.606  0.8777 -0.5200  1.3550
15743TIP3    H268645   5.583   4.983   6.619 -0.8226  1.4832 -2.3739
15744TIP3   OH268646   6.654   5.232   1.509 -0.3662 -0.0579  0.0361
15744TIP3    H168647   6.701   5.315   1.505  1.1890 -0.7905  1.6620
15744TIP3    H268648   6.607   5.235   1.593 -1.1529 -0.4024 -0.3839
15745TIP3   OH268649   2.360   1.741   0.490 -0.6466  0.2329  0.0692
15745TIP3    H168650   2.443   1.784   0.510  0.7177 -1.8567 -0.7049
15745TIP3    H268651   2.300   1.772   0.557  1.3125  0.2896  1.9301
15746TIP3   OH268652   1.913   3.238   0.950  0.1379 -0.0465  0.3383
15746TIP3    H168653   2.004   3.266   0.961  0.4387 -0.8033 -0.1321
15746TIP3    H268654   1.910   3.200   0.862 -0.6834  0.1621  0.2671
15747TIP3   OH268655   0.850   1.213  13.779  0.4124 -0.1189  0.0091
15747TIP3    H168656   0.829   1.206  13.872  3.4054 -0.8856  0.7095
15747TIP3    H268657   0.828   1.304  13.756 -1.5770 -0.2800  1.0582
15748TIP3   OH268658   2.454   6.268   2.007  0.0683 -0.7572 -0.0228
15748TIP3    H168659   2.450   6.172   2.017  1.0707 -0.7290  0.9344
15748TIP3    H268660   2.444   6.301   2.096 -1.8350  0.1257 -0.5239
15749TIP3   OH268661   0.876   3.162  12.145  0.2475 -0.1446 -0.0688
15749TIP3    H168662   0.855   3.192  12.234  0.7788  0.8556 -0.2613
15749TIP3    H268663   0.863   3.239  12.090  1.4017 -0.3268 -0.6313
15750TIP3   OH268664   4.505   5.980  15.190 -0.4297  0.5788  0.1773
15750TIP3    H168665   4.412   5.959  15.202 -0.3066 -0.7495 -0.9426
15750TIP3    H268666   4.539   5.989  15.279 -1.1134 -1.3759  0.6948
15751TIP3   OH268667   6.387   3.039  12.085 -0.7819 -0.1687  0.5729
15751TIP3    H168668   6.297   3.006  12.081 -0.0376 -2.3626  0.5256
15751TIP3    H268669   6.420   3.031  11.995 -0.6245  0.9939  0.5039
15752TIP3   OH268670   4.160   3.644   1.774 -0.5172 -0.0150 -0.5501
15752TIP3    H168671   4.080   3.695   1.779 -1.1726 -1.0292 -0.3706
15752TIP3    H268672   4.158   3.603   1.688 -0.1613  0.0036 -0.5693
15753TIP3   OH268673   1.303   4.411  15.904 -0.1896 -0.0367  0.0887
15753TIP3    H168674   1.293   4.355  15.981 -1.2391 -0.0918 -0.0646
15753TIP3    H268675   1.288   4.500  15.937 -1.1193 -0.1052 -0.1247
15754TIP3   OH268676   1.425   3.164   1.000 -0.3399  0.0565 -0.0630
15754TIP3    H168677   1.409   3.106   1.075 -4.0061 -0.0080 -0.7329
15754TIP3    H268678   1.435   3.104   0.926  1.4529  0.1907  0.0271
15755TIP3   OH268679   3.826   5.060  16.137 -0.0401  0.2707 -0.7746
15755TIP3    H168680   3.739   5.090  16.162  0.2051 -0.2331  0.8622
15755TIP3    H268681   3.879   5.140  16.132 -0.2586  0.4579 -0.2239
15756TIP3   OH268682   4.836   4.042  12.728 -0.0865 -0.2512 -0.5990
15756TIP3    H168683   4.764   4.099  12.701 -0.7470 -0.5541  0.4614
15756TIP3    H268684   4.907   4.102  12.749 -0.7992  0.2042  0.5822
15757TIP3   OH268685   1.947   6.141  16.044  0.2280  0.1491  0.1511
15757TIP3    H168686   2.018   6.149  16.108  1.0498 -1.7592 -0.4149
15757TIP3    H268687   1.948   6.048  16.020 -0.4254  0.6770 -2.1866
15758TIP3   OH268688   2.156   3.944   0.917 -0.0924 -0.0464 -0.7690
15758TIP3    H168689   2.157   3.883   0.843  1.1697  1.2705 -1.8953
15758TIP3    H268690   2.248   3.967   0.930 -0.3458  0.1173  0.9287
15759TIP3   OH268691   6.513   2.108   0.095  0.5533 -0.2163 -0.3264
15759TIP3    H168692   6.501   2.039   0.029 -1.3506 -1.3972  1.1679
15759TIP3    H268693   6.608   2.117   0.102  0.8820  0.5234 -3.7265
15760TIP3   OH268694   2.760   6.481  11.900 -0.4972 -0.0810 -0.0385
15760TIP3    H168695   2.763   6.449  11.991  2.3166 -0.2345 -0.1027
15760TIP3    H268696   2.713   6.564  11.906  0.7547  0.5794  1.8505
15761TIP3   OH268697   1.469   2.266   0.339  0.3298  0.7588  0.3065
15761TIP3    H168698   1.468   2.205   0.265  1.5336  1.3800 -0.2489
15761TIP3    H268699   1.440   2.213   0.414  0.4372 -0.2489 -0.3411
15762TIP3   OH268700   4.896   5.207   0.530 -0.5463 -0.7194  0.2900
15762TIP3    H168701   4.851   5.277   0.578 -0.5260 -0.6640  0.2295
15762TIP3    H268702   4.834   5.182   0.461 -0.4263 -0.5440  0.1170
15763TIP3   OH268703   0.142   3.058   2.634  0.1077  0.6271  0.4107
15763TIP3    H168704   0.167   2.968   2.653 -0.7974  0.3478  0.3194
15763TIP3    H268705   0.183   3.078   2.549 -0.9375 -0.2245 -0.3173
15764TIP3   OH268706   2.242   3.143   2.748  0.0879  0.1882  0.3755
15764TIP3    H168707   2.277   3.169   2.834  1.0867 -2.3918  0.8157
15764TIP3    H268708   2.317   3.105   2.702 -1.1646 -1.5753 -0.3087
15765TIP3   OH268709   2.423   5.347   2.304 -0.3798  0.8043 -0.6655
15765TIP3    H168710   2.516   5.364   2.320 -0.8863  3.4747 -0.2247
15765TIP3    H268711   2.416   5.338   2.208  0.3048  0.5903 -0.7002
15766TIP3   OH268712   1.272   0.032   2.257 -0.1551 -0.1388 -0.5386
15766TIP3    H168713   1.339  -0.032   2.232  1.1793  0.5669  0.9946
15766TIP3    H268714   1.190  -0.017   2.257  0.5181 -1.3034 -1.4515
15767TIP3   OH268715   6.384   3.727  16.873  0.6079  0.4448 -0.2010
15767TIP3    H168716   6.348   3.682  16.950  1.1372  0.1924 -0.0974
15767TIP3    H268717   6.474   3.695  16.867  0.7323  0.8715 -0.6142
15768TIP3   OH268718   0.870   0.995  11.039 -0.1194  0.5125 -0.3888
15768TIP3    H168719   0.870   1.023  10.948  1.2588  0.2786 -0.4791
15768TIP3    H268720   0.949   1.034  11.077  0.6069 -1.2911  0.0799
15769TIP3   OH268721   4.800   3.882  15.079  0.4770  0.3889 -0.3669
15769TIP3    H168722   4.764   3.812  15.134  0.6659  0.9145  0.4533
15769TIP3    H268723   4.724   3.938  15.061  0.0700 -0.6480 -2.0402
15770TIP3   OH268724   5.900   4.078   0.367 -0.0668 -0.8763  0.4854
15770TIP3    H168725   5.836   4.088   0.437  0.0587 -0.0815  0.4928
15770TIP3    H268726   5.940   3.992   0.383  1.0975 -0.0349  2.3284
15771TIP3   OH268727   2.971   5.325   4.755  0.0312 -0.4172  0.0175
15771TIP3    H168728   2.934   5.316   4.843  1.0044  1.0162  0.6106
15771TIP3    H268729   2.996   5.417   4.748  0.5576 -0.6368 -1.5366
15772TIP3   OH268730   0.358   2.273  10.785 -0.3646 -0.0388  0.3319
15772TIP3    H168731   0.334   2.357  10.747 -2.3743  0.2761  2.0485
15772TIP3    H268732   0.303   2.209  10.739 -0.4093 -0.0893  0.4519
15773TIP3   OH268733   6.487   0.272   3.557 -0.1110 -0.0220 -0.6214
15773TIP3    H168734   6.535   0.238   3.482 -1.1469 -1.3712 -0.7020
15773TIP3    H268735   6.481   0.199   3.618 -2.1801  0.0260 -0.6846
15774TIP3   OH268736   0.379   5.882  15.427 -0.0338 -0.0312  0.3172
15774TIP3    H168737   0.449   5.896  15.364  0.1761 -0.5931  0.4244
15774TIP3    H268738   0.421   5.838  15.502 -0.5275 -0.5571  0.2972
15775TIP3   OH268739   4.410   6.468   2.724  0.0855 -0.0027  0.6738
15775TIP3    H168740   4.359   6.389   2.705  0.8922 -0.1687 -0.9802
15775TIP3    H268741   4.453   6.489   2.641  1.6748  0.8731  1.6691
15776TIP3   OH268742   0.232   2.661   3.949  0.1515 -0.4667  0.5092
15776TIP3    H168743   0.320   2.627   3.929  0.0699 -1.7996  2.2266
15776TIP3    H268744   0.230   2.668   4.044 -1.0416  1.2019  0.3896
15777TIP3   OH268745   6.371   5.556   1.689 -0.1181 -0.3811 -0.0742
15777TIP3    H168746   6.466   5.548   1.701  0.1104 -0.0729 -1.4927
15777TIP3    H268747   6.342   5.466   1.672 -0.3638 -0.7374  1.9570
15778TIP3   OH268748   1.244   2.159  16.792  0.6574 -0.3066  0.3440
15778TIP3    H168749   1.160   2.170  16.836  1.0295 -0.6049  1.1365
15778TIP3    H268750   1.221   2.128  16.704  0.0153 -4.5557  1.7936
15779TIP3   OH268751   1.354   1.580  14.946 -0.3598  0.5145  0.1148
15779TIP3    H168752   1.327   1.620  15.029 -0.9176  1.2988 -0.4397
15779TIP3    H268753   1.343   1.648  14.881 -1.2401 -0.5070 -0.8445
15780TIP3   OH268754   1.407   0.324  16.834 -0.3544  0.1187  0.3076
15780TIP3    H168755   1.501   0.308  16.836 -0.4094 -0.0900  1.2787
15780TIP3    H268756   1.396   0.389  16.765  0.2516 -1.4005 -1.2997
15781TIP3   OH268757   5.696   3.563   0.054 -0.1954  0.0350  0.3908
15781TIP3    H168758   5.694   3.620  -0.023 -0.6885 -0.8559 -0.2805
15781TIP3    H268759   5.718   3.476   0.019 -0.2110 -0.3422  1.2845
15782TIP3   OH268760   0.033   3.220   3.354 -0.1637 -0.7030  0.1428
15782TIP3    H168761  -0.001   3.166   3.426  0.8528  1.0149  2.0326
15782TIP3    H268762   0.126   3.229   3.373  0.7351 -2.2911 -2.9002
15783TIP3   OH268763   0.735   4.083  14.279  0.4056  0.1748 -0.3245
15783TIP3    H168764   0.829   4.090  14.299  0.7091 -1.6670 -0.8591
15783TIP3    H268765   0.711   3.995  14.307 -1.2954  0.7704  0.2082
15784TIP3   OH268766   2.747   0.251  13.509  0.4093  0.8245 -0.2145
15784TIP3    H168767   2.766   0.338  13.543  0.4775  0.1062  1.6757
15784TIP3    H268768   2.664   0.260  13.462 -0.1196  1.6886  0.8587
15785TIP3   OH268769   1.158   4.791   4.702  0.0517  0.2728 -0.1305
15785TIP3    H168770   1.065   4.803   4.720 -0.0629 -0.4925 -0.1789
15785TIP3    H268771   1.202   4.849   4.764 -0.3937 -1.0798  1.5054
15786TIP3   OH268772   3.444   5.830   4.459  0.2176 -0.4698  1.0077
15786TIP3    H168773   3.504   5.823   4.385  0.3388 -0.7505  1.1337
15786TIP3    H268774   3.410   5.742   4.471  1.6111 -0.8669  2.4656
15787TIP3   OH268775   0.729   0.426  14.035 -0.1115 -0.2691 -0.0853
15787TIP3    H168776   0.766   0.359  13.978  1.3963 -0.9876  1.6257
15787TIP3    H268777   0.796   0.495  14.038 -1.1163  0.7727 -0.8623
15788TIP3   OH268778   6.182   6.265  10.858  0.3211  0.4163  0.1044
15788TIP3    H168779   6.163   6.227  10.772  1.3901 -1.6469  0.7284
15788TIP3    H268780   6.261   6.317  10.843  1.1671 -0.8456  0.0341
15789TIP3   OH268781   6.585   5.446   3.561  1.0358  0.0841  0.0161
15789TIP3    H168782   6.495   5.432   3.532  0.7312 -1.3716  1.5330
15789TIP3    H268783   6.590   5.540   3.579 -0.2246  0.1488  0.0917
15790TIP3   OH268784   5.422   1.174   0.369  0.2819  0.5639  0.7771
15790TIP3    H168785   5.389   1.248   0.418 -1.4513 -1.3795  2.7543
15790TIP3    H268786   5.412   1.199   0.277  0.3610  2.9732  1.3816
15791TIP3   OH268787   0.325   0.729  16.917 -0.0527 -0.0555 -0.4952
15791TIP3    H168788   0.400   0.714  16.860  1.2874  1.8974  0.6142
15791TIP3    H268789   0.263   0.778  16.863  1.2023  1.7774 -0.3572
15792TIP3   OH268790   2.623   0.708  14.331  0.0392 -0.5184 -0.7041
15792TIP3    H168791   2.621   0.762  14.410 -1.5267 -0.5634 -0.6885
15792TIP3    H268792   2.585   0.625  14.358 -0.5147 -0.5330 -1.4922
15793TIP3   OH268793   1.358   0.382   0.428 -0.5597 -0.2667 -0.3543
15793TIP3    H168794   1.374   0.476   0.419 -0.5076 -0.0440  1.4856
15793TIP3    H268795   1.412   0.341   0.362 -2.1088  1.0668 -2.5794
15794TIP3   OH268796   4.494   1.562  16.391 -0.5589 -0.3511  0.1489
15794TIP3    H168797   4.476   1.647  16.352  0.1884  0.2135  0.9987
15794TIP3    H268798   4.412   1.537  16.434 -0.7072  0.0603  0.1096
15795TIP3   OH268799   3.417   3.859   0.200  0.2041 -0.2094 -0.2113
15795TIP3    H168800   3.388   3.771   0.178 -0.0414 -0.3519  0.6480
15795TIP3    H268801   3.377   3.877   0.285 -1.1544  1.3887 -1.1183
15796TIP3   OH268802   3.905   1.293  14.862 -0.2519 -0.0741  0.2098
15796TIP3    H168803   3.926   1.202  14.882  0.4720 -0.1546 -0.8442
15796TIP3    H268804   3.964   1.317  14.791  0.2814  1.5313  1.1149
15797TIP3   OH268805   3.623   4.126   0.295  0.3245  0.3339 -0.4437
15797TIP3    H168806   3.589   4.137   0.384  0.5083 -1.2436 -0.1542
15797TIP3    H268807   3.589   4.042   0.266  2.0104 -0.1889 -1.0369
15798TIP3   OH268808   4.459   1.999  14.965  0.6085  0.6703 -0.6618
15798TIP3    H168809   4.527   1.953  15.013  2.0033  3.8859  0.6726
15798TIP3    H268810   4.383   1.996  15.023  0.3803 -0.6354 -0.9903
15799TIP3   OH268811   5.112   0.278   5.313 -0.4668 -0.3547  0.1924
15799TIP3    H168812   5.095   0.371   5.300 -1.1211 -0.6248 -0.9376
15799TIP3    H268813   5.029   0.242   5.345 -0.6851 -0.8209 -0.8559
15800TIP3   OH268814   4.113   3.859  15.904  0.4280  0.3883 -0.3706
15800TIP3    H168815   4.042   3.834  15.963 -0.2354 -0.9280 -1.6748
15800TIP3    H268816   4.190   3.864  15.961  0.4516 -3.7008  0.2796
15801TIP3   OH268817   1.499   6.689  14.150  0.1578  0.6228 -0.1191
15801TIP3    H168818   1.532   6.768  14.107  1.0651  0.0264 -0.5589
15801TIP3    H268819   1.519   6.618  14.089 -0.9776  0.0893  0.1022
15802TIP3   OH268820   3.214   6.529  12.957 -0.3320  0.3899 -0.4334
15802TIP3    H168821   3.281   6.505  13.021  0.3269 -1.8349 -1.8477
15802TIP3    H268822   3.205   6.624  12.966  0.2969  0.2810  2.3575
15803TIP3   OH268823   3.533   1.009  17.063 -0.3150 -0.1029  0.3242
15803TIP3    H168824   3.571   1.062  17.133 -1.1271  1.1005 -0.1286
15803TIP3    H268825   3.608   0.959  17.028  0.7129  1.5310  0.0618
15804TIP3   OH268826   0.584   1.243   5.797 -0.0567  0.0705 -0.6632
15804TIP3    H168827   0.676   1.253   5.771 -0.0694  0.0914 -0.6996
15804TIP3    H268828   0.548   1.332   5.791 -0.1429  0.0199 -0.8825
15805TIP3   OH268829   5.441   5.343   4.254 -0.4119 -0.2423  0.0773
15805TIP3    H168830   5.516   5.354   4.195 -0.2350  3.2497  0.7322
15805TIP3    H268831   5.365   5.342   4.196 -0.0325 -1.0835 -0.4246
15806TIP3   OH268832   6.053   0.903   2.729 -0.3964 -0.2104  0.0710
15806TIP3    H168833   6.022   0.821   2.691  1.1156 -1.3185  1.1252
15806TIP3    H268834   6.025   0.900   2.820  0.8827 -0.2478  0.4848
15807TIP3   OH268835   0.500   2.145  14.533 -0.1324  0.1364 -0.7473
15807TIP3    H168836   0.465   2.219  14.583 -2.6129 -1.6783  0.4683
15807TIP3    H268837   0.595   2.154  14.540 -0.3537  2.7886 -0.0763
15808TIP3   OH268838   4.778   4.787  11.864 -0.1482  0.2125 -0.0072
15808TIP3    H168839   4.702   4.778  11.807  0.2198  0.4795 -0.5471
15808TIP3    H268840   4.803   4.696  11.884 -1.1019  0.1267  0.8568
15809TIP3   OH268841   2.937   3.049  12.497 -0.0498 -0.2317 -0.3578
15809TIP3    H168842   2.849   3.012  12.505  0.4279 -1.0453  2.2146
15809TIP3    H268843   2.924   3.143  12.506 -0.8208 -0.1122 -2.2395
15810TIP3   OH268844   5.748   6.748   5.103 -0.3939 -0.1701 -0.4288
15810TIP3    H168845   5.727   6.748   5.196 -1.7443 -0.4954 -0.7129
15810TIP3    H268846   5.686   6.686   5.064  0.9181 -0.9325 -1.3836
15811TIP3   OH268847   5.116   4.908  14.096  0.3557 -0.6509 -0.9220
15811TIP3    H168848   5.097   4.821  14.131 -1.6713  0.6752  1.5566
15811TIP3    H268849   5.194   4.937  14.143  0.5255 -0.7757 -1.1237
15812TIP3   OH268850   5.718   0.405  10.735 -0.0519 -0.4348 -0.5195
15812TIP3    H168851   5.800   0.445  10.705  0.0092  1.0389  1.4136
15812TIP3    H268852   5.712   0.428  10.828 -1.7864 -2.0440 -0.1548
15813TIP3   OH268853   0.675   2.611   2.776 -0.2477 -0.5541  0.1856
15813TIP3    H168854   0.679   2.576   2.865 -1.1749 -1.4248 -0.0892
15813TIP3    H268855   0.626   2.693   2.784 -0.8658 -0.9382  0.4029
15814TIP3   OH268856   5.639   5.185  13.652 -0.6170  0.2531 -0.0059
15814TIP3    H168857   5.568   5.215  13.709  0.0310  2.6365 -0.3642
15814TIP3    H268858   5.608   5.203  13.563 -0.0323  0.2057 -0.2211
15815TIP3   OH268859   2.058   2.057  14.708  0.1656  0.4469  0.1628
15815TIP3    H168860   2.084   2.044  14.617 -0.0829  1.3960 -0.0606
15815TIP3    H268861   2.045   1.969  14.742  0.7287  0.0626 -0.5786
15816TIP3   OH268862   2.774   4.632  15.881  0.8126 -0.3067  0.1728
15816TIP3    H168863   2.718   4.684  15.822  0.8927  0.9333  1.1485
15816TIP3    H268864   2.849   4.607  15.827 -0.3816 -1.5497 -1.0138
15817TIP3   OH268865   3.069   2.229  12.056  0.0645  0.6161 -0.1523
15817TIP3    H168866   3.048   2.174  12.131 -1.3240  3.8988  2.1425
15817TIP3    H268867   3.161   2.253  12.069 -0.0173  0.7370  0.2182
15818TIP3   OH268868   6.745   4.296   3.012 -0.4888 -0.3804 -0.0202
15818TIP3    H168869   6.758   4.218   2.957  2.6149 -0.5384  0.7425
15818TIP3    H268870   6.655   4.289   3.043 -1.0301 -2.4243 -1.8186
15819TIP3   OH268871   0.848   5.019  14.703 -0.2568 -0.2985 -0.2224
15819TIP3    H168872   0.828   5.074  14.627  0.1681  0.2815  0.0820
15819TIP3    H268873   0.763   4.996  14.739 -0.4240  1.4370  0.5593
15820TIP3   OH268874   2.798   2.550  15.483 -0.2037 -0.0785 -0.2722
15820TIP3    H168875   2.757   2.565  15.398 -0.9278  0.2733  0.1303
15820TIP3    H268876   2.737   2.493  15.530 -0.1912  0.3579  0.2911
15821TIP3   OH268877   1.887   3.519  15.966 -0.5109  0.3667 -0.2192
15821TIP3    H168878   1.966   3.468  15.950  0.0512  1.1254  0.0770
15821TIP3    H268879   1.916   3.594  16.018 -1.8493 -0.6931  2.2264
15822TIP3   OH268880   4.957   3.134   3.830  0.3124 -0.0482  0.1423
15822TIP3    H168881   4.956   3.039   3.841 -2.6515  0.0217  1.3218
15822TIP3    H268882   4.939   3.147   3.736  0.9413 -0.6169 -0.0667
15823TIP3   OH268883   2.839   1.783   3.424 -0.1505  0.0139 -0.2228
15823TIP3    H168884   2.743   1.781   3.426 -0.1425 -0.7510  1.7017
15823TIP3    H268885   2.860   1.822   3.339 -2.1351 -1.8951 -1.7416
15824TIP3   OH268886   1.262   1.114   1.251 -0.1895 -0.3456 -0.3318
15824TIP3    H168887   1.321   1.042   1.272 -1.0789 -0.1876  3.4251
15824TIP3    H268888   1.182   1.093   1.300 -1.3324  2.0194 -1.0764
15825TIP3   OH268889   3.416   5.371   3.100  0.2226 -0.0994 -0.4939
15825TIP3    H168890   3.461   5.452   3.077  0.9659 -0.4563 -0.3552
15825TIP3    H268891   3.409   5.323   3.018 -0.8061  0.3743 -0.6974
15826TIP3   OH268892   3.995   2.737   5.919 -0.6199 -0.3393 -1.2936
15826TIP3    H168893   4.014   2.648   5.890 -0.5753 -0.0705 -2.1143
15826TIP3    H268894   3.924   2.727   5.983  0.3509 -1.0881 -0.2807
15827TIP3   OH268895   4.231   1.491  12.650  0.4483  0.2349 -0.4585
15827TIP3    H168896   4.271   1.465  12.733 -3.0692 -0.2828  1.2479
15827TIP3    H268897   4.244   1.586  12.645  0.9430  0.2292  0.5430
15828TIP3   OH268898   3.344   3.889  12.218  0.0756  0.0538  0.4870
15828TIP3    H168899   3.342   3.905  12.123  0.4424 -0.3206  0.4131
15828TIP3    H268900   3.398   3.810  12.228 -0.7454 -0.4610  0.9341
15829TIP3   OH268901   4.126   3.639  10.652 -0.6225  0.2601 -0.7512
15829TIP3    H168902   4.143   3.694  10.575 -0.2056 -0.1390 -0.9516
15829TIP3    H268903   4.123   3.700  10.725  0.0373  0.5356 -0.9461
15830TIP3   OH268904   5.800   5.444  10.840  0.1587  0.0689 -0.2802
15830TIP3    H168905   5.849   5.385  10.783  0.3600  1.2362 -1.3704
15830TIP3    H268906   5.720   5.463  10.792  0.3807  1.1485 -0.2548
15831TIP3   OH268907   4.532   1.705   1.851 -0.2540 -0.2579  0.4230
15831TIP3    H168908   4.549   1.794   1.819  1.7566 -0.9361 -0.5708
15831TIP3    H268909   4.541   1.712   1.946  1.5048  0.3335  0.2544
15832TIP3   OH268910   5.045   5.321  12.186  0.0107  0.1655  0.2618
15832TIP3    H168911   4.954   5.302  12.209  0.0077 -0.1724 -0.0301
15832TIP3    H268912   5.071   5.250  12.128  0.3958  0.3763  0.1715
15833TIP3   OH268913   6.037   3.563  11.990  0.1726 -0.2393  0.4751
15833TIP3    H168914   6.119   3.518  11.973  1.1442  0.9622  1.7448
15833TIP3    H268915   5.970   3.507  11.950  1.7590  0.0950 -3.0656
15834TIP3   OH268916   5.384   3.800   4.107  0.0001 -0.4241  0.5890
15834TIP3    H168917   5.456   3.847   4.064 -1.9724  1.3896 -0.9282
15834TIP3    H268918   5.397   3.708   4.083  1.0726  0.0512 -0.7547
15835TIP3   OH268919   0.512   5.163  15.761 -0.5687 -0.0040 -0.3220
15835TIP3    H168920   0.516   5.242  15.814 -2.6748  0.4151 -0.7057
15835TIP3    H268921   0.543   5.191  15.675  0.9406 -0.2078  0.1230
15836TIP3   OH268922   0.573   4.390   4.297  0.0637 -0.4361 -0.3245
15836TIP3    H168923   0.521   4.468   4.315 -0.2774 -0.2007 -2.2009
15836TIP3    H268924   0.645   4.421   4.242 -0.0735 -1.4190 -1.0893
15837TIP3   OH268925   1.562   5.297   3.336 -0.1749 -0.1845 -0.0415
15837TIP3    H168926   1.655   5.298   3.360  0.1046 -1.5987 -0.9632
15837TIP3    H268927   1.560   5.330   3.247 -0.6501  0.4744  0.2062
15838TIP3   OH268928   6.662   6.027  14.081 -0.6872 -0.0240  0.0019
15838TIP3    H168929   6.633   6.053  14.168  1.2032 -0.4559  0.8243
15838TIP3    H268930   6.624   6.092  14.022  0.3422  2.0365  1.4883
15839TIP3   OH268931   3.722   0.403   5.254  0.7393 -0.1528  0.3673
15839TIP3    H168932   3.640   0.369   5.289  0.7204  0.6250  1.1252
15839TIP3    H268933   3.701   0.428   5.164  0.1157  0.0910  0.5696
15840TIP3   OH268934   3.520   6.506   6.576  0.4288  0.5002  0.2031
15840TIP3    H168935   3.502   6.437   6.640 -1.3820  0.6622 -0.0809
15840TIP3    H268936   3.436   6.551   6.564  0.5238  0.1129 -2.6828
15841TIP3   OH268937   4.738   0.902  11.693 -0.0024  0.4090  0.0133
15841TIP3    H168938   4.687   0.953  11.630  0.2856  0.6515 -0.0306
15841TIP3    H268939   4.814   0.957  11.712  0.0586  0.2120  0.3545
15842TIP3   OH268940   5.983   5.287  12.953  0.2602 -0.4620 -0.2745
15842TIP3    H168941   6.019   5.250  12.872 -0.3073 -0.8483 -0.3586
15842TIP3    H268942   5.912   5.227  12.976 -0.2067  0.1867 -0.0156
15843TIP3   OH268943   3.784   5.797  16.631 -0.2296  0.1221 -0.0382
15843TIP3    H168944   3.818   5.854  16.562 -1.7695  1.6670  0.4113
15843TIP3    H268945   3.755   5.856  16.700  0.5789 -1.3456  1.6545
15844TIP3   OH268946   3.066   4.915   1.130  0.4159 -0.5661 -0.1370
15844TIP3    H168947   3.115   4.899   1.211  0.6530  3.6489  0.7538
15844TIP3    H268948   3.126   4.890   1.060  1.5570 -1.0027  0.9642
15845TIP3   OH268949   2.062   6.598  12.922 -0.0668  0.1376 -0.0381
15845TIP3    H168950   2.123   6.525  12.911 -1.4298 -0.9575 -0.4964
15845TIP3    H268951   2.112   6.662  12.974  0.7854 -1.5845  1.3894
15846TIP3   OH268952   0.363   6.094   5.209 -0.6716  0.3002  0.3634
15846TIP3    H168953   0.324   6.163   5.156  1.5822  0.7432 -0.8224
15846TIP3    H268954   0.337   6.012   5.166  0.3191  0.6150 -0.8665
15847TIP3   OH268955   5.831   5.636  13.415 -0.4546  0.8039 -0.1158
15847TIP3    H168956   5.783   5.554  13.403 -0.5137  0.7822  0.2616
15847TIP3    H268957   5.883   5.645  13.335 -1.0223  0.7891 -0.4878
15848TIP3   OH268958   1.814   1.936  10.822  0.1038 -0.0634 -0.1212
15848TIP3    H168959   1.895   1.886  10.814 -0.6268 -1.7458  2.1505
15848TIP3    H268960   1.755   1.898  10.757 -0.7883 -3.0881  2.2294
15849TIP3   OH268961   2.995   6.084   4.750  0.1970  0.3830 -0.1708
15849TIP3    H168962   2.977   6.175   4.776  0.0610 -0.2644  2.1829
15849TIP3    H268963   2.909   6.043   4.744  0.3445 -0.0160  0.4358
15850TIP3   OH268964   1.827   5.766  10.620 -0.5048 -0.0781  0.1542
15850TIP3    H168965   1.747   5.730  10.658 -1.0125  0.2871 -0.5404
15850TIP3    H268966   1.895   5.702  10.642 -1.1310 -0.7764  0.1076
15851TIP3   OH268967   4.753   5.140  16.717  0.5768 -0.3408  0.7579
15851TIP3    H168968   4.827   5.096  16.677 -0.7779 -1.9228 -0.1204
15851TIP3    H268969   4.687   5.144  16.648  0.2011  2.0655  1.1649
15852TIP3   OH268970   0.059   1.787  13.689  0.3306 -0.4053 -0.3255
15852TIP3    H168971   0.130   1.811  13.629 -0.1203 -2.2218 -1.6641
15852TIP3    H268972  -0.005   1.857  13.680  0.7291 -0.1477 -1.1999
15853TIP3   OH268973   1.474   1.975   2.214  1.0437 -0.1746  0.7658
15853TIP3    H168974   1.550   2.015   2.257  0.2443  3.2542 -0.6570
15853TIP3    H268975   1.512   1.918   2.147  2.3350 -0.0813  1.3763
15854TIP3   OH268976   5.571   6.451  15.929  0.2479 -0.2067  0.2242
15854TIP3    H168977   5.542   6.461  16.019  0.0595 -0.1067  0.1537
15854TIP3    H268978   5.511   6.506  15.878  1.8097  1.6961  0.3067
15855TIP3   OH268979   3.664   0.668   1.316  0.3704  0.1207 -0.0457
15855TIP3    H168980   3.639   0.674   1.408  0.8587 -0.2911  0.1165
15855TIP3    H268981   3.600   0.723   1.270  0.6598  1.0357  0.6334
15856TIP3   OH268982   1.971   1.809  14.722  0.2331 -0.3416 -0.4668
15856TIP3    H168983   1.898   1.794  14.781  0.3312  2.4774  0.5414
15856TIP3    H268984   1.957   1.747  14.650 -2.3236 -0.8762  0.3770
15857TIP3   OH268985   1.883   6.744  10.951 -0.0760 -0.3782 -0.4902
15857TIP3    H168986   1.964   6.794  10.943 -0.1428 -0.1395  0.2842
15857TIP3    H268987   1.910   6.658  10.982 -0.1836 -0.0395  0.5809
15858TIP3   OH268988   5.162   3.123  13.390  0.1928  0.2180 -0.3077
15858TIP3    H168989   5.067   3.113  13.385 -0.0874  1.6045  1.2461
15858TIP3    H268990   5.179   3.211  13.355  0.6513  0.7153  1.0635
15859TIP3   OH268991   5.356   1.458  13.173 -0.0582  0.1186 -0.2796
15859TIP3    H168992   5.323   1.525  13.232  0.7588  0.5421 -0.3000
15859TIP3    H268993   5.425   1.414  13.222 -0.0537 -0.1874 -0.5545
15860TIP3   OH268994   5.821   3.207   1.372 -0.2805 -0.7665 -0.1337
15860TIP3    H168995   5.738   3.181   1.333 -0.6293 -0.7205  0.5808
15860TIP3    H268996   5.883   3.205   1.298 -1.2876  1.0912 -1.0873
15861TIP3   OH268997   5.485   0.565  16.518 -0.0540  0.6277 -0.4366
15861TIP3    H168998   5.444   0.594  16.600  1.2969  1.9490 -0.1774
15861TIP3    H268999   5.569   0.528  16.545 -1.0412 -2.2438 -0.9369
15862TIP3   OH269000   5.862   5.343   5.306 -0.1841 -0.4482 -0.6615
15862TIP3    H169001   5.872   5.252   5.337  2.0482 -0.3010 -0.8031
15862TIP3    H269002   5.921   5.393   5.362 -0.3192  0.7109 -1.5365
15863TIP3   OH269003   3.185   1.008   1.993  0.2321  0.1173  0.8111
15863TIP3    H169004   3.156   0.916   1.994  0.1506  0.1298  0.0858
15863TIP3    H269005   3.104   1.058   1.984  0.3710  0.2042 -0.0013
15864TIP3   OH269006   1.104   0.968   0.447  0.2000  0.4357  0.5787
15864TIP3    H169007   1.145   0.999   0.528 -0.3069  0.3379  0.8728
15864TIP3    H269008   1.165   0.995   0.378  1.0706 -0.2412  1.0608
15865TIP3   OH269009   2.561   5.358   2.014  0.1800  0.1594  0.3924
15865TIP3    H169010   2.602   5.413   2.081  0.7534 -0.7077  0.7627
15865TIP3    H269011   2.490   5.412   1.980  1.1157  1.3675  0.3033
15866TIP3   OH269012   0.475   5.723   5.576 -0.4156 -0.3700 -0.2919
15866TIP3    H169013   0.440   5.799   5.529 -0.6001  0.9928  1.9142
15866TIP3    H269014   0.397   5.673   5.602 -0.3522 -0.7412 -0.8033
15867TIP3   OH269015   1.485   4.262  11.805 -0.4628  0.2277  0.2936
15867TIP3    H169016   1.469   4.242  11.897  0.4763 -0.7240  0.2839
15867TIP3    H269017   1.526   4.182  11.771  0.2613  0.9765 -0.6533
15868TIP3   OH269018   5.225   2.119   2.044  0.1478  0.2671 -0.1412
15868TIP3    H169019   5.140   2.119   2.089  0.1302 -0.4422 -0.1641
15868TIP3    H269020   5.287   2.152   2.109 -0.0982  0.5145 -0.0308
15869TIP3   OH269021   3.438   5.445  12.160  0.1533 -0.0568  0.1158
15869TIP3    H169022   3.475   5.531  12.140  1.6849 -0.7612 -0.2367
15869TIP3    H269023   3.349   5.463  12.189  1.0542  1.8211  1.9895
15870TIP3   OH269024   6.048   6.463   1.184  0.1136  0.0747  0.0093
15870TIP3    H169025   6.006   6.416   1.111 -0.2513  0.7671 -0.2303
15870TIP3    H269026   6.086   6.541   1.144 -2.5340  1.9709  0.9571
15871TIP3   OH269027   5.026   3.259  16.296  0.2126  0.0349  0.0571
15871TIP3    H169028   5.061   3.201  16.228  1.9869 -1.4261  2.0791
15871TIP3    H269029   5.000   3.338  16.248 -1.8534 -2.1307 -2.7597
15872TIP3   OH269030   3.794   3.775   2.539  0.0025 -0.0497 -0.3563
15872TIP3    H169031   3.768   3.693   2.496 -0.3437 -1.1968  1.9174
15872TIP3    H269032   3.883   3.790   2.508 -0.7567  0.0780 -2.6961
15873TIP3   OH269033   2.374   6.116  15.550  0.5986 -0.3645  0.6621
15873TIP3    H169034   2.445   6.105  15.614  0.5474 -1.2135  0.5849
15873TIP3    H269035   2.302   6.062  15.584  0.7048 -1.1483 -0.3027
15874TIP3   OH269036   4.125   5.558  11.494 -0.3376 -0.0961 -0.2023
15874TIP3    H169037   4.206   5.510  11.478 -0.3232 -0.0974 -0.1215
15874TIP3    H269038   4.119   5.620  11.421 -0.0872  0.1460 -0.0190
15875TIP3   OH269039   2.152   5.529   2.349  0.3967  0.4046  0.2879
15875TIP3    H169040   2.082   5.469   2.377  1.8298 -1.3946  0.1497
15875TIP3    H269041   2.231   5.494   2.389  1.4869  1.5237 -0.8014
15876TIP3   OH269042   0.185   0.096  14.134 -0.1158  0.3107  0.5621
15876TIP3    H169043   0.201   0.016  14.084  2.4966  0.0074  1.7012
15876TIP3    H269044   0.239   0.162  14.090 -1.2062  1.1537  0.4406
15877TIP3   OH269045   2.526   1.147  15.893  0.0089  0.3148 -0.0579
15877TIP3    H169046   2.601   1.203  15.872  0.6166  0.2244  1.7270
15877TIP3    H269047   2.526   1.081  15.823  1.6286  0.2773 -0.0714
15878TIP3   OH269048   5.432   5.515   3.327  0.2471 -0.5943  0.3805
15878TIP3    H169049   5.393   5.576   3.390 -1.3500 -1.0187 -0.1420
15878TIP3    H269050   5.510   5.561   3.295  0.4657  0.0955  1.8197
15879TIP3   OH269051   0.098   0.909   5.804  0.5801 -0.0326  0.0331
15879TIP3    H169052   0.160   0.888   5.734  0.6687  0.7884 -0.1467
15879TIP3    H269053   0.137   0.872   5.883  0.6495 -0.6665 -0.2929
15880TIP3   OH269054   3.955   1.022  14.142 -0.3688  0.4281 -0.4230
15880TIP3    H169055   3.985   1.030  14.232  1.3699  0.4247 -0.9605
15880TIP3    H269056   3.862   1.045  14.145  0.1613  2.6731  1.0032
15881TIP3   OH269057   1.017   4.768   4.227 -0.4460 -0.4984  0.4796
15881TIP3    H169058   0.951   4.827   4.265 -1.0500 -0.8097 -0.0660
15881TIP3    H269059   1.071   4.742   4.301 -0.9678 -0.2711  0.9498
15882TIP3   OH269060   3.655   5.090  16.962 -0.3016  0.8783  0.0394
15882TIP3    H169061   3.730   5.039  16.931 -1.4304 -1.1579  0.4800
15882TIP3    H269062   3.688   5.139  17.037  1.0478  1.5325 -0.9456
15883TIP3   OH269063   4.677   2.981   4.011 -0.1963  0.1825  0.7165
15883TIP3    H169064   4.583   2.980   4.031  0.1581  0.0125  2.5558
15883TIP3    H269065   4.718   2.944   4.089  1.4519  0.8531  0.2039
15884TIP3   OH269066   3.521   6.779  12.999 -0.1497  0.4039  0.2804
15884TIP3    H169067   3.565   6.821  12.925 -0.9138 -0.6393 -0.7891
15884TIP3    H269068   3.504   6.851  13.060  1.7110  1.0572  0.0820
15885TIP3   OH269069   3.227   4.937  14.799 -0.1744  0.1133  0.0615
15885TIP3    H169070   3.269   4.878  14.736 -0.1725 -0.4411  0.5705
15885TIP3    H269071   3.140   4.900  14.812 -0.3875  0.5638 -0.0559
15886TIP3   OH269072   1.389   6.261  12.799  0.1436  0.1043 -0.1193
15886TIP3    H169073   1.379   6.234  12.708  1.0476  1.2568 -0.5665
15886TIP3    H269074   1.481   6.283  12.809 -0.0323  0.4455  0.9532
15887TIP3   OH269075   2.282   6.212   3.324  0.4281 -0.0452  0.2985
15887TIP3    H169076   2.337   6.135   3.337  0.0580  0.0005  2.6572
15887TIP3    H269077   2.344   6.285   3.319  0.6779 -0.1567  1.4403
15888TIP3   OH269078   1.910   1.880  16.196  0.1183 -0.2304 -0.3586
15888TIP3    H169079   1.869   1.884  16.110 -0.7100  1.2629  0.0759
15888TIP3    H269080   1.920   1.971  16.223 -1.1553 -0.6374  1.7972
15889TIP3   OH269081   3.532   5.208  10.365 -0.1452  0.0847 -0.1141
15889TIP3    H169082   3.576   5.136  10.320  0.0076  0.1102 -0.0060
15889TIP3    H269083   3.505   5.170  10.449 -1.1769 -0.2049 -0.5664
15890TIP3   OH269084   2.069   4.554   2.401  1.2367  0.2092 -0.5872
15890TIP3    H169085   2.070   4.543   2.496 -0.2948  1.3635 -0.3906
15890TIP3    H269086   2.025   4.476   2.368  1.2544  0.0811 -0.3101
15891TIP3   OH269087   1.911   4.487   5.358 -0.5296  0.1734  0.2850
15891TIP3    H169088   1.968   4.545   5.408  1.3640 -1.0994 -0.2905
15891TIP3    H269089   1.944   4.491   5.268 -0.8478 -1.1718  0.0797
15892TIP3   OH269090   1.394   4.144   0.896  0.2161  0.1800 -0.1039
15892TIP3    H169091   1.385   4.124   0.989  1.9516  0.3479  0.1245
15892TIP3    H269092   1.445   4.071   0.861 -0.1951  0.2563 -0.8895
15893TIP3   OH269093   0.022   6.154  16.732  0.1617 -0.7619 -0.2112
15893TIP3    H169094   0.082   6.098  16.782  2.2072  1.0293 -0.4736
15893TIP3    H269095  -0.032   6.197  16.798 -0.7856 -2.2925  0.0457
15894TIP3   OH269096   1.930   6.168   2.948 -0.7301  0.0980  0.3708
15894TIP3    H169097   1.955   6.160   3.040  1.1801  0.1551 -0.0989
15894TIP3    H269098   1.974   6.095   2.905 -1.0594  0.4519 -0.5988
15895TIP3   OH269099   6.018   3.628   0.946  0.3480  0.0613  0.1057
15895TIP3    H169100   6.084   3.578   0.899  0.2086  0.3685 -0.4227
15895TIP3    H269101   5.937   3.613   0.897  0.7077  2.5723 -1.4178
15896TIP3   OH269102   6.766   6.677  13.299 -0.1841  0.3157 -0.2439
15896TIP3    H169103   6.820   6.753  13.275  0.4471  0.1755  0.6841
15896TIP3    H269104   6.689   6.715  13.340 -0.2499  0.4787 -0.5113
15897TIP3   OH269105   3.264   6.377   3.167  0.1631 -0.4466  0.8365
15897TIP3    H169106   3.342   6.335   3.131  1.2149  0.2484  2.2101
15897TIP3    H269107   3.267   6.467   3.133  0.0456 -0.3660  1.0385
15898TIP3   OH269108   2.498   3.065   4.252 -0.0759  0.1244 -0.2594
15898TIP3    H169109   2.432   3.077   4.184  2.9702 -0.4206 -3.6337
15898TIP3    H269110   2.551   3.145   4.250  1.2466 -0.6949  0.0216
15899TIP3   OH269111   6.662   2.638   2.788  0.2286  0.4671  0.3881
15899TIP3    H169112   6.655   2.723   2.831 -0.4710  0.2879  0.6464
15899TIP3    H269113   6.578   2.627   2.744 -0.0417 -0.4873  1.1106
15900TIP3   OH269114   5.790   5.212  11.829  0.2377  0.2471  0.1539
15900TIP3    H169115   5.855   5.143  11.846 -1.1971 -1.0665  0.4682
15900TIP3    H269116   5.835   5.293  11.854  1.0293 -0.8275  2.5279
15901TIP3   OH269117   6.681   1.287  15.988 -0.0671  0.1621 -0.2754
15901TIP3    H169118   6.699   1.364  16.042 -1.8775  0.3679  0.0943
15901TIP3    H269119   6.728   1.303  15.907  0.9243  0.8697  0.4203
15902TIP3   OH269120   4.556   4.032   1.713  0.0916  0.1544 -0.4556
15902TIP3    H169121   4.498   4.002   1.643  0.2197  0.0721 -0.5284
15902TIP3    H269122   4.539   4.126   1.720  0.8801  0.3805 -1.3694
15903TIP3   OH269123   6.696   4.337   3.315 -0.5735 -0.0981  0.0970
15903TIP3    H169124   6.729   4.320   3.226  1.3254  0.2452  0.6947
15903TIP3    H269125   6.605   4.362   3.302 -0.7964 -1.5784 -1.6188
15904TIP3   OH269126   1.442   1.297   0.638 -0.2525 -0.6309  0.6821
15904TIP3    H169127   1.405   1.384   0.651  0.0848  0.0520 -2.2552
15904TIP3    H269128   1.536   1.308   0.649  0.0208 -0.0772 -1.6716
15905TIP3   OH269129   1.016   3.644   5.378 -0.3630 -0.5640  0.4654
15905TIP3    H169130   0.998   3.648   5.284  2.0339 -1.8674 -0.1273
15905TIP3    H269131   1.037   3.734   5.403  2.3396 -0.6599 -1.0768
15906TIP3   OH269132   2.606   6.760  11.416  0.0462  0.6773 -0.5877
15906TIP3    H169133   2.699   6.762  11.438 -0.5030 -0.9840  2.2827
15906TIP3    H269134   2.598   6.818  11.340  3.4463  0.5762 -1.1477
15907TIP3   OH269135   1.220   4.897  11.688  0.1292 -0.1928 -0.0628
15907TIP3    H169136   1.205   4.961  11.758  1.1404  1.3493 -1.1833
15907TIP3    H269137   1.186   4.815  11.723 -0.7133  0.8252  1.6621
15908TIP3   OH269138   5.090   0.111  14.278  0.9147  0.2493 -0.3186
15908TIP3    H169139   5.054   0.057  14.348 -1.1265  2.1834  0.2166
15908TIP3    H269140   5.163   0.158  14.319  0.0725  0.9676  0.3845
15909TIP3   OH269141   6.637   1.376  13.218 -0.3885  0.4205 -0.2289
15909TIP3    H169142   6.683   1.314  13.274  0.3216  0.6015 -0.6000
15909TIP3    H269143   6.563   1.405  13.270  0.3680  0.7385  0.6944
15910TIP3   OH269144   6.312   5.490  16.706  0.2126 -0.3861 -0.0348
15910TIP3    H169145   6.279   5.487  16.616 -0.1656  2.0762 -0.0592
15910TIP3    H269146   6.238   5.524  16.757  0.8164 -0.5691  0.9830
15911TIP3   OH269147   0.314   0.019   3.558  0.0751 -0.1749 -0.2427
15911TIP3    H169148   0.399  -0.018   3.535  0.1460 -1.0347  1.2336
15911TIP3    H269149   0.315   0.023   3.654 -0.8565  1.5083 -0.2658
15912TIP3   OH269150   2.581   4.466   2.453  0.4207 -0.5002 -0.1877
15912TIP3    H169151   2.652   4.517   2.413  0.6834 -0.3258  0.4895
15912TIP3    H269152   2.501   4.512   2.427  0.6923  0.8152  1.1480
15913TIP3   OH269153   6.749   5.348   5.276  0.1415 -0.2280 -0.0152
15913TIP3    H169154   6.821   5.345   5.339  1.2183  3.1579 -0.8517
15913TIP3    H269155   6.776   5.414   5.212 -3.6500  1.1913 -0.4217
15914TIP3   OH269156   2.173   3.331   4.983  0.0420  0.7033  0.3435
15914TIP3    H169157   2.239   3.310   4.917 -1.2196 -1.7041 -0.2568
15914TIP3    H269158   2.200   3.282   5.060  0.2488  1.6680  0.8992
15915TIP3   OH269159   1.801   3.633   4.266  0.5363  0.2949 -0.0779
15915TIP3    H169160   1.713   3.655   4.297 -0.1966 -1.6443 -0.6436
15915TIP3    H269161   1.832   3.713   4.225 -1.1619  0.8863 -0.2997
15916TIP3   OH269162   1.248   2.835  15.147  0.7696  0.3322  0.0641
15916TIP3    H169163   1.279   2.918  15.111 -1.5453  0.8095 -1.0519
15916TIP3    H269164   1.230   2.854  15.239  4.0225 -0.1187  0.9236
15917TIP3   OH269165   3.117   4.058   0.346  0.1862  0.0674 -0.0107
15917TIP3    H169166   3.095   4.010   0.265 -1.0108 -0.1128  0.4139
15917TIP3    H269167   3.046   4.038   0.406  0.5021  1.1069  0.7281
15918TIP3   OH269168   2.515   3.679   1.541  0.3051 -0.3033 -0.1596
15918TIP3    H169169   2.591   3.624   1.522  2.0142  1.5234  1.0218
15918TIP3    H269170   2.520   3.694   1.635 -0.6605  1.0692 -0.3134
15919TIP3   OH269171   2.445   6.768  11.647 -0.0788  0.3987 -0.2282
15919TIP3    H169172   2.519   6.738  11.594  0.0337 -1.7118  0.9996
15919TIP3    H269173   2.486   6.811  11.723 -0.1777  1.1272 -0.5826
15920TIP3   OH269174   3.551   0.082  16.889 -0.1250 -0.0541  0.1092
15920TIP3    H169175   3.542   0.058  16.981 -0.0158  1.1791  0.4639
15920TIP3    H269176   3.572   0.000  16.844  0.2875 -0.5856  1.2454
15921TIP3   OH269177   2.617   5.902  10.904  0.5915  0.1572  0.4351
15921TIP3    H169178   2.694   5.936  10.949  0.5379  2.1429 -0.8677
15921TIP3    H269179   2.652   5.845  10.835  0.8843  0.6219  0.1939
15922TIP3   OH269180   5.892   2.917   5.916  0.0609 -0.3431  0.2160
15922TIP3    H169181   5.904   2.992   5.973 -0.2173 -0.7259  0.7862
15922TIP3    H269182   5.856   2.849   5.973 -0.0060 -0.8011 -0.3643
15923TIP3   OH269183   0.287   6.499   3.739 -0.4197  0.2646  0.2964
15923TIP3    H169184   0.201   6.465   3.763 -0.3319  0.4700  0.9342
15923TIP3    H269185   0.288   6.499   3.644 -1.1491  0.3267  0.2870
15924TIP3   OH269186   6.462   0.865   3.406  0.6757  0.3928 -0.0781
15924TIP3    H169187   6.536   0.804   3.411 -0.6249 -1.1557  1.0232
15924TIP3    H269188   6.411   0.835   3.331 -0.0255  0.0484  0.5311
15925TIP3   OH269189   2.539   6.413   5.380 -0.3461  0.3954 -0.1962
15925TIP3    H169190   2.548   6.495   5.428  0.6375 -0.1139  0.5242
15925TIP3    H269191   2.592   6.351   5.429 -0.0391 -0.3637 -1.4478
15926TIP3   OH269192   2.688   0.924  12.764  0.1246  0.1409 -0.6104
15926TIP3    H169193   2.619   0.905  12.828  0.5832 -1.0753 -0.4473
15926TIP3    H269194   2.675   1.016  12.741 -0.7740  0.2755  0.3542
15927TIP3   OH269195   1.527   5.312  11.448  0.4001 -0.3805 -0.4528
15927TIP3    H169196   1.503   5.221  11.468  0.8136 -0.6282 -1.0151
15927TIP3    H269197   1.516   5.318  11.353  2.3797 -0.4883 -0.7400
15928TIP3   OH269198   0.713   2.446   3.884  0.0399  0.1152  0.1032
15928TIP3    H169199   0.770   2.445   3.961 -0.2520  1.4630  0.3577
15928TIP3    H269200   0.670   2.360   3.885 -2.2764  1.1288  3.2366
15929TIP3   OH269201   2.241   4.137  15.190  0.1499 -0.1981  0.3733
15929TIP3    H169202   2.218   4.151  15.098  2.2745  0.6293 -0.0807
15929TIP3    H269203   2.308   4.068  15.188  0.5882  0.1830  1.2334
15930TIP3   OH269204   4.981   3.764  16.135  0.0591 -0.2436  0.2177
15930TIP3    H169205   4.950   3.823  16.203  0.0780 -0.0664  0.0728
15930TIP3    H269206   5.005   3.821  16.062  2.3212 -0.2344  0.9141
15931TIP3   OH269207   2.336   0.606  17.042  0.0235 -0.1445  0.0113
15931TIP3    H169208   2.307   0.668  17.108 -0.5498 -1.3907  0.9726
15931TIP3    H269209   2.383   0.539  17.092  0.6302 -0.4882 -0.9962
15932TIP3   OH269210   3.986   2.083   5.583  0.0050  0.0495 -0.8721
15932TIP3    H169211   3.930   2.124   5.518  0.6381  2.4526 -0.0106
15932TIP3    H269212   4.070   2.128   5.574  1.2456 -2.1354 -0.8460
15933TIP3   OH269213   0.754   3.398  13.029  0.3972  0.5685  0.4685
15933TIP3    H169214   0.722   3.430  12.945  1.0924  0.7482  0.2617
15933TIP3    H269215   0.677   3.398  13.086 -0.5223 -1.4421 -0.6917
15934TIP3   OH269216   5.476   3.197  12.753 -0.0766 -0.3702 -0.0682
15934TIP3    H169217   5.496   3.260  12.684 -1.1226 -0.0676 -0.1130
15934TIP3    H269218   5.409   3.140  12.716 -1.0904  0.1658  0.8747
15935TIP3   OH269219   6.586   0.350   2.325 -0.8325  0.0781 -0.3163
15935TIP3    H169220   6.546   0.392   2.249 -0.2392  1.1142 -0.0673
15935TIP3    H269221   6.514   0.305   2.369 -1.0444 -1.3239 -1.9775
15936TIP3   OH269222   3.627   2.482   0.394  0.5015  0.1574 -0.2239
15936TIP3    H169223   3.622   2.388   0.377  0.4650  0.2183 -0.5474
15936TIP3    H269224   3.721   2.500   0.403  0.4214 -0.3387  2.2717
15937TIP3   OH269225   6.455   6.202   0.398 -0.0635 -0.0971  0.4708
15937TIP3    H169226   6.551   6.198   0.402  0.1098 -1.4063 -2.2279
15937TIP3    H269227   6.437   6.282   0.348 -0.4076  0.2559  1.1487
15938TIP3   OH269228   0.308   2.037  16.883 -0.4153  0.2335  0.1059
15938TIP3    H169229   0.293   1.955  16.929 -0.2137 -0.3823 -0.8868
15938TIP3    H269230   0.343   2.011  16.798  0.8609  1.3861  0.2210
15939TIP3   OH269231   1.591   5.787   1.900 -0.9504 -0.1994  0.7191
15939TIP3    H169232   1.611   5.694   1.886 -1.8186 -0.5646  1.7334
15939TIP3    H269233   1.497   5.793   1.882 -1.1760  0.1974  1.9519
15940TIP3   OH269234   4.699   3.383  14.546  0.2409  0.1360 -0.1261
15940TIP3    H169235   4.644   3.404  14.470  0.6082  0.1347 -0.3967
15940TIP3    H269236   4.745   3.303  14.520 -0.3455 -0.4042  0.4738
15941TIP3   OH269237   5.581   2.922  13.010 -0.7495  0.9494 -0.1318
15941TIP3    H169238   5.641   2.914  12.936  0.7155 -1.9420  1.1873
15941TIP3    H269239   5.625   2.982  13.070  0.8060 -0.8946  0.6775
15942TIP3   OH269240   1.913   2.182   0.853 -0.0966 -0.0175  0.0996
15942TIP3    H169241   1.838   2.230   0.886  0.3128  0.8552 -0.2035
15942TIP3    H269242   1.896   2.172   0.759  0.9055  1.6503 -0.3009
15943TIP3   OH269243   3.477   6.081  13.370 -0.3610  0.3927  0.4961
15943TIP3    H169244   3.493   6.003  13.423 -2.1647  0.1739  0.7748
15943TIP3    H269245   3.446   6.147  13.432  0.5237  1.1476  0.1627
15944TIP3   OH269246   4.450   1.144  15.017 -0.4625  0.0942  0.1731
15944TIP3    H169247   4.539   1.128  14.984  0.0682  0.3067  1.4604
15944TIP3    H269248   4.460   1.150  15.112 -2.2210 -2.4264  0.6138
15945TIP3   OH269249   0.204   0.221   5.664  0.5679 -0.4661  0.4349
15945TIP3    H169250   0.238   0.155   5.603  1.7756  0.3416  0.2069
15945TIP3    H269251   0.158   0.283   5.608 -0.4120 -1.0042  0.6293
15946TIP3   OH269252   5.598   2.692  11.363 -0.2214 -0.0867 -0.2408
15946TIP3    H169253   5.633   2.624  11.305  2.4558 -1.0768  2.2941
15946TIP3    H269254   5.516   2.655  11.396 -0.6987 -0.4069 -1.6971
15947TIP3   OH269255   3.189   0.332   0.404  0.0897 -0.0950 -0.5383
15947TIP3    H169256   3.100   0.359   0.430 -0.2800 -1.8936  0.1954
15947TIP3    H269257   3.175   0.254   0.351  1.2612 -0.7288  0.0538
15948TIP3   OH269258   1.633   1.959   0.867 -0.0482  0.1388 -0.1082
15948TIP3    H169259   1.590   2.043   0.856 -0.2007  0.1281  0.4105
15948TIP3    H269260   1.588   1.901   0.806 -1.0522  0.0184  0.7393
15949TIP3   OH269261   3.548   2.883  13.242  0.2414 -0.1797  0.1601
15949TIP3    H169262   3.572   2.822  13.172 -0.9630 -0.1697 -0.2818
15949TIP3    H269263   3.529   2.966  13.197  1.4133  0.4168  0.7079
15950TIP3   OH269264   2.015   4.091   2.380 -0.1488 -0.3541 -0.4952
15950TIP3    H169265   1.968   4.052   2.454  0.0530 -0.5227 -0.4562
15950TIP3    H269266   2.106   4.093   2.407 -0.3142  1.4376  0.0747
15951TIP3   OH269267   3.843   1.163  16.738  0.3921 -0.4224 -0.1717
15951TIP3    H169268   3.894   1.171  16.657  0.2545  0.2322 -0.2061
15951TIP3    H269269   3.883   1.090  16.785  0.6355 -0.6445 -0.7162
15952TIP3   OH269270   6.313   4.244  15.890  0.8989  0.0611 -0.1196
15952TIP3    H169271   6.288   4.300  15.817  2.4632 -0.9163 -1.4897
15952TIP3    H269272   6.362   4.302  15.949  0.7226  0.5816 -0.4783
15953TIP3   OH269273   1.869   2.027   1.591  0.1034  0.7373  0.1737
15953TIP3    H169274   1.786   1.984   1.612 -0.6246  0.8858 -2.1241
15953TIP3    H269275   1.849   2.120   1.591  0.2559  0.7721 -0.4148
15954TIP3   OH269276   1.246   4.330   1.194  0.3373  0.2015  0.8403
15954TIP3    H169277   1.188   4.263   1.230  0.3037 -0.5159 -0.4721
15954TIP3    H269278   1.335   4.298   1.212  0.3702 -1.2640 -1.4674
15955TIP3   OH269279   3.224   5.642  15.815 -0.3793 -0.6106  0.0290
15955TIP3    H169280   3.260   5.650  15.904 -0.0971 -0.4094 -0.1013
15955TIP3    H269281   3.240   5.728  15.775 -1.1186 -0.4798  0.0107
15956TIP3   OH269282   2.334   0.290  16.099 -0.0868 -0.2518 -0.1979
15956TIP3    H169283   2.353   0.311  16.190  0.3673 -0.3036 -0.2755
15956TIP3    H269284   2.240   0.271  16.097 -0.4172  1.2518 -0.0319
15957TIP3   OH269285   0.490   0.475  13.898  1.0037 -0.0764 -0.0590
15957TIP3    H169286   0.564   0.469  13.959  0.6912 -0.4617  0.2840
15957TIP3    H269287   0.531   0.471  13.811  1.6205  2.1987  0.0706
15958TIP3   OH269288   4.005   1.534   4.352 -0.4582  0.8499  0.5736
15958TIP3    H169289   3.923   1.528   4.302  0.8899 -3.2536 -1.5446
15958TIP3    H269290   4.049   1.611   4.316 -1.1004  0.0320 -2.2537
15959TIP3   OH269291   1.218   0.702  16.562  0.1981 -0.0362  0.6607
15959TIP3    H169292   1.212   0.735  16.472 -0.8494 -0.3467  0.5970
15959TIP3    H269293   1.192   0.611  16.555 -1.0935  0.2513  1.4439
15960TIP3   OH269294   4.207   6.220  13.326  0.2268 -0.3363  0.3151
15960TIP3    H169295   4.253   6.137  13.312 -1.2218 -0.7871 -2.4921
15960TIP3    H269296   4.117   6.194  13.346 -0.5570  0.4747 -1.8750
15961TIP3   OH269297   1.936   2.221  14.909 -0.0822 -0.1071  0.5294
15961TIP3    H169298   2.004   2.277  14.946 -0.1996 -0.5115  1.3842
15961TIP3    H269299   1.978   2.179  14.834 -0.0347  1.2080 -0.1993
15962TIP3   OH269300   1.817   3.686  12.982  0.3354 -0.1892 -0.0068
15962TIP3    H169301   1.762   3.748  13.030  1.4274  0.5557  0.3218
15962TIP3    H269302   1.861   3.636  13.050  1.3933  0.4283 -0.2002
15963TIP3   OH269303   6.365   2.671   2.672  0.2530  0.3324 -0.5824
15963TIP3    H169304   6.351   2.753   2.624 -1.9332  0.4515  0.1650
15963TIP3    H269305   6.295   2.669   2.738  0.2483 -2.1352 -0.5662
15964TIP3   OH269306   2.743   1.888   4.288 -0.2310 -0.0248  0.1962
15964TIP3    H169307   2.815   1.932   4.332 -0.8463  0.3603  0.8282
15964TIP3    H269308   2.770   1.796   4.282  0.6390  0.2559 -0.2637
15965TIP3   OH269309   0.011   6.281  10.988 -0.5074  0.5935 -0.3707
15965TIP3    H169310   0.076   6.225  10.945  0.0964  0.8455  0.1914
15965TIP3    H269311   0.059   6.322  11.060 -1.0404  1.5237 -0.5245
15966TIP3   OH269312   0.645   4.192   1.861 -0.0561  0.3896  0.4185
15966TIP3    H169313   0.679   4.266   1.810  1.2292  0.4255  1.3082
15966TIP3    H269314   0.564   4.226   1.900  0.5668  1.3626  0.8894
15967TIP3   OH269315   5.727   3.325  15.518 -0.0007  0.6011 -0.1347
15967TIP3    H169316   5.697   3.343  15.429  0.9305 -2.7820 -1.2937
15967TIP3    H269317   5.768   3.406  15.547  0.3632  1.5763 -3.1152
15968TIP3   OH269318   2.343   3.203   5.182  0.4834  0.0519  0.0847
15968TIP3    H169319   2.384   3.181   5.266  0.3707 -0.1780  0.0794
15968TIP3    H269320   2.385   3.145   5.119  0.0252 -0.3105  0.1075
15969TIP3   OH269321   6.114   5.744   5.452  0.3325 -0.3622 -0.1964
15969TIP3    H169322   6.116   5.824   5.401  1.9670  0.7185  1.4419
15969TIP3    H269323   6.023   5.713   5.445  0.0271  0.8232 -2.0194
15970TIP3   OH269324   0.046   4.837  11.788  0.1643  0.1242 -0.0681
15970TIP3    H169325   0.085   4.879  11.865  0.1196  0.5417 -0.2753
15970TIP3    H269326   0.080   4.747  11.791  2.5505  0.8993 -1.1775
15971TIP3   OH269327   0.690   6.302  15.054 -0.5231  0.3176 -0.3585
15971TIP3    H169328   0.673   6.359  15.129  0.3979 -0.8553  0.7886
15971TIP3    H269329   0.783   6.314  15.035  0.4223 -2.7029  1.6598
15972TIP3   OH269330   0.395   6.490   1.430  0.0802  0.2698 -0.2158
15972TIP3    H169331   0.431   6.402   1.444  0.5888  0.6011  0.6389
15972TIP3    H269332   0.442   6.522   1.353  1.1818  0.4506  0.5106
15973TIP3   OH269333   4.553   1.472  12.590 -0.7864  0.2265  0.1388
15973TIP3    H169334   4.552   1.478  12.686 -1.4495  1.7914  0.0639
15973TIP3    H269335   4.600   1.550  12.562 -0.5456 -0.2536 -0.8284
15974TIP3   OH269336   4.758   5.789  12.160 -0.0628 -0.1814  0.1089
15974TIP3    H169337   4.669   5.796  12.125 -0.3830  0.1465  0.9592
15974TIP3    H269338   4.790   5.705  12.127  0.2143  0.7796 -2.2081
15975TIP3   OH269339   1.713   6.107   0.287  0.2007  0.3714 -0.3774
15975TIP3    H169340   1.674   6.183   0.243 -0.8260 -0.0839 -0.2794
15975TIP3    H269341   1.642   6.043   0.292  0.6093 -0.0136  0.9352
15976TIP3   OH269342   6.476   1.558   1.346 -0.6902 -0.0187 -0.2676
15976TIP3    H169343   6.550   1.616   1.326 -1.8956  1.6091 -0.2105
15976TIP3    H269344   6.507   1.470   1.324  0.8900  0.7505 -1.2543
15977TIP3   OH269345   5.779   3.899   5.628  0.3056  0.4478 -0.0097
15977TIP3    H169346   5.831   3.976   5.652 -1.0847  1.7967 -1.1358
15977TIP3    H269347   5.697   3.935   5.594 -1.6200 -1.5758  2.1052
15978TIP3   OH269348   2.283   4.084  11.734  0.4366 -0.1684 -0.0254
15978TIP3    H169349   2.230   4.011  11.767  0.2928 -0.3500 -0.6403
15978TIP3    H269350   2.343   4.104  11.805 -0.1693 -0.2474  0.5223
15979TIP3   OH269351   1.268   4.651  15.366 -0.7013 -0.0446  0.1368
15979TIP3    H169352   1.225   4.581  15.316  0.6342  0.3333 -1.6600
15979TIP3    H269353   1.348   4.611  15.398 -0.5217  0.3153  0.1352
15980TIP3   OH269354   2.969   0.572   6.172 -0.6550  0.4977  0.0171
15980TIP3    H169355   2.958   0.614   6.257 -0.1034  0.7113 -0.0182
15980TIP3    H269356   2.880   0.566   6.137 -0.8287  0.8655  0.3884
15981TIP3   OH269357   1.572   1.874  12.918 -0.3818 -0.1028 -0.2328
15981TIP3    H169358   1.555   1.794  12.867 -0.2946  0.2471 -0.8197
15981TIP3    H269359   1.637   1.922  12.867 -1.4483  0.9972 -0.5976
15982TIP3   OH269360   6.789   3.131  15.708  0.5086 -0.1023 -0.0965
15982TIP3    H169361   6.752   3.066  15.768  0.4780 -0.6147 -0.6592
15982TIP3    H269362   6.785   3.214  15.756 -0.0754 -0.3987  0.3710
15983TIP3   OH269363   6.680   3.878   5.678 -0.3731 -0.1409  0.5253
15983TIP3    H169364   6.653   3.927   5.756  1.0146  0.8542  0.4346
15983TIP3    H269365   6.729   3.803   5.713  1.4356  1.0309  0.6618
15984TIP3   OH269366   1.900   3.907  15.291  0.5987  0.0414  0.7682
15984TIP3    H169367   1.945   3.887  15.209 -1.1599  0.2598 -0.2939
15984TIP3    H269368   1.841   3.833  15.305  1.3439 -0.3132  2.2170
15985TIP3   OH269369   6.693   1.577  15.554  0.1035  0.0434  0.1451
15985TIP3    H169370   6.598   1.566  15.554  0.0640  0.3761  0.1135
15985TIP3    H269371   6.720   1.547  15.467  0.1254 -0.8469  0.4506
15986TIP3   OH269372   5.941   0.496   1.319 -0.0339  0.3939 -0.0219
15986TIP3    H169373   5.846   0.505   1.311 -0.1729 -1.3120 -0.8740
15986TIP3    H269374   5.977   0.559   1.256 -0.6943 -0.5872 -1.4308
15987TIP3   OH269375   4.652   5.498  11.519 -0.1889 -0.3210  0.2371
15987TIP3    H169376   4.712   5.424  11.517  0.6442  0.3124  1.1749
15987TIP3    H269377   4.647   5.527  11.428  1.2833 -0.1115  0.1968
15988TIP3   OH269378   2.828   5.094   5.846 -0.0575 -0.1980  0.1413
15988TIP3    H169379   2.891   5.155   5.886 -0.3755  0.4662 -0.3563
15988TIP3    H269380   2.745   5.116   5.887 -0.0636 -0.7193  0.4108
15989TIP3   OH269381   4.318   5.747  16.913  0.5271  0.0691  0.4172
15989TIP3    H169382   4.225   5.730  16.898  0.6882 -1.9758  1.3844
15989TIP3    H269383   4.358   5.737  16.826 -0.1434  1.1848 -0.0456
15990TIP3   OH269384   3.195   4.897   4.080  0.1958 -0.3644 -0.1980
15990TIP3    H169385   3.142   4.867   4.006  0.7207  0.2413 -0.8461
15990TIP3    H269386   3.250   4.966   4.042  2.2018 -1.6756  0.1803
15991TIP3   OH269387   4.879   2.030  14.565 -0.5815  0.2293  0.1210
15991TIP3    H169388   4.818   1.957  14.555 -2.8542  2.0335 -0.2047
15991TIP3    H269389   4.888   2.066  14.477 -0.2637  0.8921  0.4153
15992TIP3   OH269390   4.676   0.815   3.656 -0.2459  0.0732 -0.1645
15992TIP3    H169391   4.655   0.723   3.640 -0.7780  0.2481 -0.4663
15992TIP3    H269392   4.771   0.816   3.667 -0.3727 -0.7200  1.2253
15993TIP3   OH269393   4.594   1.776   4.103 -0.5555 -0.1545 -0.2656
15993TIP3    H169394   4.559   1.793   4.190 -1.2857 -0.2560 -0.5375
15993TIP3    H269395   4.648   1.853   4.084  0.7590 -0.7697  0.8450
15994TIP3   OH269396   1.332   4.719  11.527  0.4448  0.0735 -0.3737
15994TIP3    H169397   1.275   4.714  11.450  1.0329  0.1306 -0.8235
15994TIP3    H269398   1.308   4.802  11.568 -1.1435 -0.7850  0.5490
15995TIP3   OH269399   6.228   6.029   1.552  0.2815  0.2190 -0.0795
15995TIP3    H169400   6.311   6.065   1.584  0.4002 -0.8367  0.8661
15995TIP3    H269401   6.252   5.945   1.513 -0.3510 -0.1709  0.3533
15996TIP3   OH269402   1.847   6.614   0.934 -0.0387 -0.0682  0.8238
15996TIP3    H169403   1.935   6.641   0.958 -0.3080  0.3516  1.3600
15996TIP3    H269404   1.859   6.548   0.866  0.6577  0.7211  0.1752
15997TIP3   OH269405   2.993   6.148   0.200  0.0781 -0.0860 -0.7447
15997TIP3    H169406   2.918   6.092   0.182 -1.1138  1.0747  0.4370
15997TIP3    H269407   3.026   6.173   0.114 -0.1117 -1.5985 -1.2824
15998TIP3   OH269408   5.521   0.858   6.153  0.1403 -0.3932 -0.0801
15998TIP3    H169409   5.614   0.867   6.134  0.3957 -0.5157  1.0380
15998TIP3    H269410   5.479   0.932   6.108  0.8745  0.1101  0.0517
15999TIP3   OH269411   4.523   2.284   4.534  0.0008 -0.7387 -0.1481
15999TIP3    H169412   4.497   2.363   4.485 -1.7021 -0.2726  1.3871
15999TIP3    H269413   4.505   2.212   4.474  0.3325 -0.0625 -1.0963
16000TIP3   OH269414   4.297   4.401   3.747  0.4898 -0.1870 -0.1264
16000TIP3    H169415   4.360   4.329   3.738 -0.6004 -1.1915  0.0840
16000TIP3    H269416   4.222   4.375   3.694 -0.2930  0.3718  0.6725
16001TIP3   OH269417   4.661   5.600  11.250 -0.0755  0.4188  0.1335
16001TIP3    H169418   4.657   5.527  11.188 -1.6477 -1.0571  1.8370
16001TIP3    H269419   4.749   5.637  11.239  0.4395 -1.1506 -1.4170
16002TIP3   OH269420   0.711   6.737  11.068  0.2523  0.3559 -0.3740
16002TIP3    H169421   0.702   6.799  11.140 -0.8831  0.6984 -0.7747
16002TIP3    H269422   0.693   6.652  11.107  1.7149  0.2784  0.1584
16003TIP3   OH269423   2.358   3.592   5.689 -0.1461 -0.1013 -0.1260
16003TIP3    H169424   2.298   3.647   5.739 -0.1771 -0.0974 -0.1678
16003TIP3    H269425   2.345   3.617   5.598  1.9032  1.9041  0.0433
16004TIP3   OH269426   4.952   6.460  11.441  0.3772 -0.7122  0.3444
16004TIP3    H169427   4.910   6.425  11.362 -1.1769  0.7787  0.4418
16004TIP3    H269428   4.881   6.467  11.505  0.8352  1.3017  0.7239
16005TIP3   OH269429   3.573   0.973  11.791 -0.0021  0.2658  0.3064
16005TIP3    H169430   3.503   0.908  11.790 -0.7514  1.0255  1.1178
16005TIP3    H269431   3.587   0.991  11.884  1.4133 -0.0090  0.1626
16006TIP3   OH269432   3.875   4.789   2.344  0.1626 -0.3646 -0.8784
16006TIP3    H169433   3.941   4.723   2.323 -0.3713 -1.4974  0.8152
16006TIP3    H269434   3.836   4.759   2.426  1.3536  3.1307  1.2148
16007TIP3   OH269435   5.476   4.937   1.816  0.1904 -0.2752  0.0474
16007TIP3    H169436   5.533   4.921   1.892  1.3629  2.4606 -0.1367
16007TIP3    H269437   5.402   4.986   1.851 -0.4294 -0.9627 -0.2626
16008TIP3   OH269438   0.996   5.405   3.810 -0.1389  0.0071 -0.0761
16008TIP3    H169439   0.930   5.353   3.857  0.3699  0.8571  1.6387
16008TIP3    H269440   0.949   5.483   3.782 -0.5942 -0.7659 -1.5805
16009TIP3   OH269441   3.943   3.512   2.001 -0.2249 -0.1011 -0.2854
16009TIP3    H169442   3.870   3.521   1.939 -1.2173 -0.3054  0.8201
16009TIP3    H269443   3.916   3.442   2.060  0.4074  0.5026  0.7560
16010TIP3   OH269444   0.973   5.013  13.028  0.0361  0.4219  0.3079
16010TIP3    H169445   1.023   5.064  12.963  0.5548 -1.3008 -0.7113
16010TIP3    H269446   0.891   4.993  12.984 -1.0612  2.1093  1.4914
16011TIP3   OH269447   1.299   3.551   0.670 -0.4344  0.2933  0.3641
16011TIP3    H169448   1.319   3.463   0.703 -0.4004  0.3787  0.5766
16011TIP3    H269449   1.319   3.609   0.744  0.9308  0.6261 -0.2307
16012TIP3   OH269450   2.314   6.349  11.878 -0.5650 -0.4121 -0.7001
16012TIP3    H169451   2.358   6.335  11.795 -1.9017 -0.8621 -1.3507
16012TIP3    H269452   2.301   6.261  11.914 -0.0710 -0.2278 -0.0335
16013TIP3   OH269453   5.252   4.432  16.157  1.2356 -0.1852  0.2212
16013TIP3    H169454   5.257   4.436  16.062  2.4607 -0.8071  0.2378
16013TIP3    H269455   5.251   4.338  16.177  1.6666 -0.0661  0.8445
16014TIP3   OH269456   5.239   4.491   4.397  0.1715 -0.0592 -0.5806
16014TIP3    H169457   5.192   4.561   4.443  0.9961  0.4521 -0.4925
16014TIP3    H269458   5.239   4.518   4.305  1.0351  0.3933 -0.4611
16015TIP3   OH269459   6.466   3.654   4.439  0.0773  0.0884 -0.1614
16015TIP3    H169460   6.440   3.665   4.530 -1.7335 -0.9244 -0.5158
16015TIP3    H269461   6.450   3.562   4.419 -0.8232  0.5620 -1.8542
16016TIP3   OH269462   5.735   4.761  12.816 -0.0859  0.7169  0.1231
16016TIP3    H169463   5.657   4.725  12.774 -0.0059 -0.3289  0.8249
16016TIP3    H269464   5.741   4.713  12.899  1.2408  0.8524  0.1241
16017TIP3   OH269465   4.576   5.318  13.485  0.3226 -0.2117  0.2056
16017TIP3    H169466   4.596   5.227  13.506  1.2822  0.0085  0.2673
16017TIP3    H269467   4.572   5.321  13.390 -0.8993 -0.5487  0.2200
16018TIP3   OH269468   5.406   1.632   0.945  0.0564 -0.2415 -0.5879
16018TIP3    H169469   5.322   1.675   0.929  0.8253  1.1031 -1.1993
16018TIP3    H269470   5.468   1.677   0.887  1.5548  0.0185  1.1073
16019TIP3   OH269471   5.032   2.468   4.641 -0.2177 -0.0301 -0.0791
16019TIP3    H169472   5.067   2.556   4.641 -0.8814  0.2811  1.9019
16019TIP3    H269473   4.940   2.479   4.665 -0.7640 -1.1467 -1.4624
16020TIP3   OH269474   6.118   0.492  16.874  0.5048 -0.0339 -0.2871
16020TIP3    H169475   6.150   0.573  16.913 -0.9044  0.1654  0.5029
16020TIP3    H269476   6.040   0.469  16.924 -0.2439 -0.8436 -1.7305
16021TIP3   OH269477   0.681   3.842  10.399 -0.2994 -0.4079 -0.2599
16021TIP3    H169478   0.775   3.859  10.402 -0.1910 -0.8478 -0.9992
16021TIP3    H269479   0.668   3.790  10.320 -1.1307 -0.5780 -0.0243
16022TIP3   OH269480   0.447   4.816  15.421  0.1292 -0.3552 -0.2114
16022TIP3    H169481   0.481   4.866  15.347 -0.3387 -1.9507 -1.5496
16022TIP3    H269482   0.352   4.819  15.411  0.0632 -0.6419  0.2880
16023TIP3   OH269483   4.462   4.508  17.067  0.4465  0.0446 -0.8909
16023TIP3    H169484   4.450   4.414  17.086  1.2361 -0.2694 -1.8521
16023TIP3    H269485   4.520   4.509  16.991  3.4042  1.3427  1.1726
16024TIP3   OH269486   5.012   5.909   0.553  0.2662  0.1900  0.4577
16024TIP3    H169487   5.040   5.874   0.469 -0.8826 -2.5690  1.1241
16024TIP3    H269488   5.073   5.871   0.616 -0.1606  0.5219  1.0798
16025TIP3   OH269489   4.298   0.650  13.957  0.1696 -0.2718 -0.3837
16025TIP3    H169490   4.375   0.706  13.958  1.6286 -2.2171  0.4029
16025TIP3    H269491   4.230   0.702  14.001  0.8537  1.6097 -1.4148
16026TIP3   OH269492   3.142   3.851   3.667  0.2586  0.1469 -0.0827
16026TIP3    H169493   3.210   3.847   3.599  1.0598 -1.4446  0.7314
16026TIP3    H269494   3.095   3.768   3.658 -2.5787  1.8011 -1.5320
16027TIP3   OH269495   1.301   1.918  16.223  0.0002 -0.2445  0.1022
16027TIP3    H169496   1.259   1.846  16.271  0.8511 -0.6283  0.3059
16027TIP3    H269497   1.233   1.951  16.165 -0.3914 -1.2800 -0.0617
16028TIP3   OH269498   4.949   6.057   4.343  0.4982  0.7268 -0.1237
16028TIP3    H169499   4.954   6.053   4.438  1.8012 -1.0950 -0.2071
16028TIP3    H269500   4.872   6.005   4.321  0.9984 -0.0614 -0.0804
16029TIP3   OH269501   1.007   3.058   2.159  0.2444  0.0404 -0.0643
16029TIP3    H169502   1.074   3.052   2.227 -0.1804 -1.4189  0.2677
16029TIP3    H269503   0.924   3.053   2.206 -0.0830  0.4313 -0.5831
16030TIP3   OH269504   0.503   5.592  14.037 -0.2045 -0.1236 -0.0087
16030TIP3    H169505   0.481   5.505  14.070  0.1828 -0.5323 -0.7763
16030TIP3    H269506   0.421   5.624  13.999 -0.6122  0.2896  1.1800
16031TIP3   OH269507   0.758   0.838  13.964 -0.3720 -1.1365 -0.0633
16031TIP3    H169508   0.748   0.933  13.959  0.4499 -1.0537 -0.1443
16031TIP3    H269509   0.701   0.812  14.036 -1.0403 -0.6559 -0.3990
16032TIP3   OH269510   2.980   2.814   4.266  0.2158 -0.0669  0.7998
16032TIP3    H169511   3.002   2.870   4.340  1.9472  2.2418 -1.2928
16032TIP3    H269512   2.974   2.873   4.191 -1.1495 -2.3016 -1.0212
16033TIP3   OH269513   2.181   6.669  16.264 -0.5923 -0.5419  0.3030
16033TIP3    H169514   2.236   6.611  16.317  0.7464  1.9768  1.9264
16033TIP3    H269515   2.188   6.754  16.308 -3.9812  0.4614 -0.8013
16034TIP3   OH269516   4.580   4.124  13.962  0.3101 -0.8110 -0.2917
16034TIP3    H169517   4.556   4.049  14.016 -0.0204  0.0549  0.8186
16034TIP3    H269518   4.499   4.147  13.917 -0.0828 -0.0534  0.7480
16035TIP3   OH269519   1.268   0.550   2.529 -0.1756  0.1028  0.0424
16035TIP3    H169520   1.277   0.463   2.489 -0.1201  0.2631 -0.3020
16035TIP3    H269521   1.218   0.600   2.465 -2.2526 -0.3160  1.2322
16036TIP3   OH269522   2.108   1.240   1.892 -0.3218  0.3941 -0.3288
16036TIP3    H169523   2.021   1.209   1.918  0.9076 -1.7449  1.6293
16036TIP3    H269524   2.117   1.214   1.801 -0.3457 -2.9917  0.5103
16037TIP3   OH269525   3.317   5.621  13.175 -0.2401  0.0037 -0.6701
16037TIP3    H169526   3.286   5.664  13.095  0.4231  1.3160 -0.2513
16037TIP3    H269527   3.390   5.676  13.205  0.4269 -1.2486  0.0806
16038TIP3   OH269528   6.492   0.374   0.934 -0.3098 -0.0388 -0.0170
16038TIP3    H169529   6.464   0.456   0.893 -1.2771  0.3922  1.4189
16038TIP3    H269530   6.533   0.325   0.863 -1.2042  0.9854 -1.3020
16039TIP3   OH269531   5.807   4.139  13.413  0.1940  0.5959  0.2912
16039TIP3    H169532   5.847   4.156  13.327  2.0836 -0.6951  0.8411
16039TIP3    H269533   5.728   4.089  13.393  0.0185  1.2353 -0.7285
16040TIP3   OH269534   2.603   0.083   4.812 -0.4123  0.5888  0.2755
16040TIP3    H169535   2.655   0.159   4.787  0.4935 -0.3654 -0.8739
16040TIP3    H269536   2.594   0.091   4.907  0.3984  1.6705  0.2857
16041TIP3   OH269537   5.272   0.418   1.000 -0.5578 -0.3377  0.9071
16041TIP3    H169538   5.239   0.484   1.061 -3.2435  0.0128 -0.7426
16041TIP3    H269539   5.222   0.339   1.021  0.5764 -1.0551  1.0051
16042TIP3   OH269540   5.792   0.640  13.833 -0.3655  0.0592  0.0961
16042TIP3    H169541   5.795   0.736  13.825 -1.0888  0.1573  0.8813
16042TIP3    H269542   5.884   0.614  13.838 -0.1722  0.7484  0.2350
16043TIP3   OH269543   1.927   0.302   2.825 -0.6816  0.2529  0.1937
16043TIP3    H169544   1.841   0.320   2.863 -0.6202 -1.4617  1.2697
16043TIP3    H269545   1.918   0.323   2.732 -1.9973  0.8866  0.4470
16044TIP3   OH269546   6.376   4.052   2.460  0.1116  0.2687  0.1874
16044TIP3    H169547   6.288   4.076   2.489 -0.3438 -0.5766 -0.4497
16044TIP3    H269548   6.407   4.128   2.410  1.1952  2.0767  3.3421
16045TIP3   OH269549   0.979   3.955   5.359 -0.0163  0.0658  0.4331
16045TIP3    H169550   1.033   4.033   5.346 -0.8254  0.2376 -2.5872
16045TIP3    H269551   0.891   3.989   5.377 -0.3194 -0.1011 -0.6480
16046TIP3   OH269552   5.161   4.644   3.799  0.0405  0.5158 -0.1486
16046TIP3    H169553   5.119   4.694   3.870  0.0025  0.2951 -0.0157
16046TIP3    H269554   5.254   4.656   3.814  0.1231 -1.5610  1.4331
16047TIP3   OH269555   2.014   6.213  11.098  0.3727 -0.2158 -0.4665
16047TIP3    H169556   2.061   6.215  11.015  1.7072 -0.8651  0.2378
16047TIP3    H269557   1.971   6.127  11.100 -0.2150  0.0688 -0.7730
16048TIP3   OH269558   1.261   2.194   2.791 -0.0632 -0.0576  0.2588
16048TIP3    H169559   1.342   2.238   2.763 -0.3229  0.8933  0.9319
16048TIP3    H269560   1.211   2.184   2.710  0.6035 -0.4089 -0.1254
16049TIP3   OH269561   3.267   3.910   6.602 -0.0273  0.3182 -0.7333
16049TIP3    H169562   3.334   3.901   6.669  0.0424  2.8276 -0.3578
16049TIP3    H269563   3.315   3.934   6.523  0.0083 -3.6845 -2.1333
16050TIP3   OH269564   4.767   6.808  13.225  0.7192 -0.2870 -0.1406
16050TIP3    H169565   4.806   6.880  13.175  0.4477 -0.4663 -0.6198
16050TIP3    H269566   4.685   6.790  13.179  0.2884 -0.2150  0.5817
16051TIP3   OH269567   4.312   1.320  11.513 -0.9657 -0.1772  0.0752
16051TIP3    H169568   4.271   1.400  11.546  1.0994  0.6623  0.7371
16051TIP3    H269569   4.332   1.339  11.422 -1.2993 -0.2867 -0.0219
16052TIP3   OH269570   4.749   3.276   1.837 -0.7240  0.1219 -0.0879
16052TIP3    H169571   4.661   3.281   1.799 -0.6513  0.4453 -0.2189
16052TIP3    H269572   4.749   3.194   1.885 -0.9615 -0.0897 -0.4394
16053TIP3   OH269573   6.459   1.722  15.305 -0.3796  0.1631 -0.2526
16053TIP3    H169574   6.554   1.714  15.311 -0.5580 -2.2333  0.7176
16053TIP3    H269575   6.442   1.727  15.211  0.7107  1.1598 -0.4173
16054TIP3   OH269576   0.769   5.135  11.984 -0.3539  0.4047  0.7476
16054TIP3    H169577   0.705   5.161  11.917 -2.2884  1.9567  3.0051
16054TIP3    H269578   0.717   5.087  12.048  0.5534  2.2537  2.9795
16055TIP3   OH269579   0.133   4.934  13.989  0.4316 -0.0298  0.4765
16055TIP3    H169580   0.094   5.014  14.025  1.6890  1.3095 -0.9930
16055TIP3    H269581   0.103   4.864  14.048 -1.2306  1.4090  1.4309
16056TIP3   OH269582   3.440   1.794  16.974 -0.2190 -0.3270  0.3305
16056TIP3    H169583   3.418   1.838  17.056 -1.6625 -0.6311  0.1265
16056TIP3    H269584   3.375   1.826  16.911  1.8965  1.2706 -1.2051
16057TIP3   OH269585   0.584   6.089   1.560  0.2654 -0.1444  0.3926
16057TIP3    H169586   0.557   6.143   1.634  0.0933  0.7298 -0.2876
16057TIP3    H269587   0.505   6.079   1.507  0.2627 -1.1816  0.5698
16058TIP3   OH269588   1.012   4.594   1.163 -0.5310  0.1562 -0.4929
16058TIP3    H169589   0.983   4.544   1.240  1.4674  0.5558  0.5906
16058TIP3    H269590   1.084   4.543   1.127  0.0134  1.0792 -0.7513
16059TIP3   OH269591   2.791   2.355  14.002  0.5604 -0.8217 -0.0047
16059TIP3    H169592   2.869   2.379  14.053  1.1113 -1.6416 -0.4431
16059TIP3    H269593   2.720   2.404  14.043  1.2627 -0.2567  0.5646
16060TIP3   OH269594   4.782   3.875   4.856 -0.4063  0.2961 -0.2285
16060TIP3    H169595   4.790   3.906   4.947  0.9611  0.2770 -0.3155
16060TIP3    H269596   4.862   3.906   4.814  0.1009 -1.6951 -0.8102
16061TIP3   OH269597   5.967   2.842   0.760  0.3255 -0.3929 -0.1694
16061TIP3    H169598   6.054   2.882   0.762  0.8943 -1.5968  1.1894
16061TIP3    H269599   5.977   2.765   0.703 -0.3789  0.5092 -1.5718
16062TIP3   OH269600   5.160   0.908  12.097 -0.0526  0.4038  0.4404
16062TIP3    H169601   5.181   0.823  12.059  0.9611  0.6951  0.3028
16062TIP3    H269602   5.162   0.892  12.192 -0.2887  0.1806  0.4085
16063TIP3   OH269603   2.344   5.019  15.252 -0.1189 -0.0033  0.0656
16063TIP3    H169604   2.392   5.073  15.189 -2.6908  0.4175 -1.7050
16063TIP3    H269605   2.258   5.007  15.212 -1.0013 -2.0084  2.3260
16064TIP3   OH269606   2.440   2.062   5.681 -0.7625 -0.0201 -0.3006
16064TIP3    H169607   2.518   2.076   5.736 -0.7689  2.3562 -0.8058
16064TIP3    H269608   2.395   1.989   5.723 -0.6447  1.4935  2.8056
16065TIP3   OH269609   1.121   3.934   1.932 -1.2602  0.1719  1.2400
16065TIP3    H169610   1.118   4.002   1.866 -0.2297 -0.2928  0.6871
16065TIP3    H269611   1.164   3.860   1.889  1.6669  0.6214  3.0455
16066TIP3   OH269612   5.351   5.929   2.794 -0.0568  0.0074  0.0921
16066TIP3    H169613   5.260   5.901   2.792 -0.2264  0.5265  0.4305
16066TIP3    H269614   5.348   6.018   2.829  0.6618 -0.3079  0.9840
16067TIP3   OH269615   6.637   4.268  15.882  0.2057  0.0717 -0.7306
16067TIP3    H169616   6.687   4.201  15.929  0.3411  1.1265  0.6822
16067TIP3    H269617   6.563   4.288  15.939 -0.3129  0.5142 -1.5371
16068TIP3   OH269618   5.538   1.020  14.894 -0.0934  0.2382 -0.2213
16068TIP3    H169619   5.499   0.943  14.852 -1.2279  0.2631  0.7210
16068TIP3    H269620   5.620   1.035  14.847  0.1140 -1.5014 -0.4651
16069TIP3   OH269621   1.665   4.272  16.119 -0.0584  0.2326 -0.1242
16069TIP3    H169622   1.719   4.349  16.100  1.0085 -0.6311 -0.7073
16069TIP3    H269623   1.619   4.295  16.200 -1.0224  2.1189 -1.1256
16070TIP3   OH269624   2.498   4.227  13.229 -0.4895 -0.0822 -0.7009
16070TIP3    H169625   2.535   4.173  13.160  0.6892 -0.2632  0.0391
16070TIP3    H269626   2.518   4.317  13.203 -0.9591 -0.0936 -1.1008
16071TIP3   OH269627   0.063   3.477  16.315  0.5435  0.9180 -0.0483
16071TIP3    H169628   0.139   3.488  16.372  1.4006  1.2767 -1.2177
16071TIP3    H269629   0.052   3.563  16.275 -0.0600  0.6730 -0.4099
16072TIP3   OH269630   5.808   2.785   6.190 -0.4237  0.1731  0.0612
16072TIP3    H169631   5.806   2.766   6.284 -1.3014 -1.1619 -0.2043
16072TIP3    H269632   5.860   2.715   6.152  1.5285  1.7155 -0.2840
16073TIP3   OH269633   4.071   2.960  16.838  0.1976 -0.1856 -0.7377
16073TIP3    H169634   4.068   3.042  16.789 -0.6496  0.4771  0.3864
16073TIP3    H269635   4.096   2.986  16.927  2.2801 -1.4201 -0.8847
16074TIP3   OH269636   5.235   0.281  16.318 -0.3243  0.0704  0.3855
16074TIP3    H169637   5.218   0.187  16.310  1.0051 -0.2067  0.4780
16074TIP3    H269638   5.199   0.304  16.404  0.5395 -0.6713  0.9711
16075TIP3   OH269639   0.058   5.521   2.250 -0.4212 -0.1003  0.4014
16075TIP3    H169640   0.072   5.440   2.299 -0.0783 -0.4756 -0.2954
16075TIP3    H269641   0.147   5.553   2.232 -0.5555  0.6259  0.9764
16076TIP3   OH269642   3.053   2.753   1.809 -0.0166  0.3456 -0.4134
16076TIP3    H169643   2.960   2.755   1.832 -0.3326 -0.2567 -1.5591
16076TIP3    H269644   3.097   2.728   1.890 -0.9960 -0.9011 -0.2435
16077TIP3   OH269645   1.942   4.485   1.728 -0.3732 -0.3966  0.3964
16077TIP3    H169646   1.944   4.577   1.755 -0.8252 -0.3828  0.3872
16077TIP3    H269647   1.983   4.437   1.801  1.1075 -0.0543 -0.1798
16078TIP3   OH269648   3.444   3.424  16.683  0.4421 -0.4744 -0.7145
16078TIP3    H169649   3.473   3.511  16.708  1.0326 -0.9228  0.2417
16078TIP3    H269650   3.488   3.365  16.745 -0.1248 -1.4283 -1.1860
16079TIP3   OH269651   0.161   2.615  11.004 -0.1001 -0.3551 -0.2690
16079TIP3    H169652   0.223   2.578  10.942 -0.1766 -1.2188  0.1454
16079TIP3    H269653   0.200   2.597  11.090 -0.6890 -0.4865 -0.0222
16080TIP3   OH269654   6.068   6.133  11.735 -0.6516 -0.2359  0.1976
16080TIP3    H169655   6.115   6.067  11.786 -0.3824  0.3135  0.6711
16080TIP3    H269656   5.981   6.095  11.720 -0.5566 -0.6189  0.6185
16081TIP3   OH269657   6.663   1.482   0.082 -0.5499  0.3320  0.2092
16081TIP3    H169658   6.581   1.460   0.039  0.2330 -0.1106 -1.1284
16081TIP3    H269659   6.689   1.402   0.128 -1.3117  0.7596  1.4295
16082TIP3   OH269660   0.634   4.545   3.096 -0.0398 -0.4695 -0.2444
16082TIP3    H169661   0.714   4.553   3.045 -0.2531 -0.3012 -0.5533
16082TIP3    H269662   0.563   4.566   3.035 -0.4188 -1.9106 -0.3468
16083TIP3   OH269663   6.575   3.145   4.021  0.0356  0.3809  0.2752
16083TIP3    H169664   6.666   3.164   4.044 -0.2985  1.3972  0.8317
16083TIP3    H269665   6.532   3.231   4.018 -0.7646 -0.0333 -0.6109
16084TIP3   OH269666   4.188   4.332   1.751 -0.1405  0.1731  0.2264
16084TIP3    H169667   4.147   4.310   1.668 -0.9043  2.2601 -0.0033
16084TIP3    H269668   4.177   4.253   1.805  0.8518 -1.4413 -1.7506
16085TIP3   OH269669   2.350   3.565   1.161  0.2404 -0.1115  0.2178
16085TIP3    H169670   2.325   3.566   1.068 -0.4051  1.8730  0.3818
16085TIP3    H269671   2.393   3.480   1.172 -1.1551 -1.1336 -1.4913
16086TIP3   OH269672   0.439   1.633  14.116 -0.4022  0.3150  0.1554
16086TIP3    H169673   0.403   1.660  14.031 -0.7822  0.3222  0.3188
16086TIP3    H269674   0.459   1.715  14.161  2.0134  0.3621 -0.8354
16087TIP3   OH269675   3.846   5.834   0.413  0.2464 -0.0043  0.0365
16087TIP3    H169676   3.786   5.852   0.486  1.1660  0.0025  0.8123
16087TIP3    H269677   3.809   5.881   0.339 -1.9638 -1.8258 -0.1326
16088TIP3   OH269678   5.938   3.323   0.293 -0.1928 -0.9579  0.6456
16088TIP3    H169679   5.897   3.328   0.379  1.4917 -0.5735  1.4787
16088TIP3    H269680   5.868   3.297   0.234 -1.3167 -1.5785  2.1883
16089TIP3   OH269681   4.520   4.294  12.987 -0.6794  0.2239  0.4387
16089TIP3    H169682   4.471   4.281  12.906 -0.5519 -1.1220  0.5644
16089TIP3    H269683   4.535   4.206  13.021  1.5994  0.5934  0.5568
16090TIP3   OH269684   3.605   0.070   2.017  0.1529 -0.1718 -0.2496
16090TIP3    H169685   3.629   0.160   1.996  0.0283 -0.3058 -0.9872
16090TIP3    H269686   3.603   0.067   2.113  0.5128  0.5124 -0.2200
16091TIP3   OH269687   2.677   3.475  10.271 -0.0490  0.8003 -0.5288
16091TIP3    H169688   2.630   3.553  10.299  1.7430  1.2802  1.4843
16091TIP3    H269689   2.626   3.402  10.307  0.2449  1.2612  0.8854
16092TIP3   OH269690   2.565   4.400  16.441 -0.2476 -0.5943 -0.2886
16092TIP3    H169691   2.542   4.397  16.534 -0.3412 -2.1599 -0.3355
16092TIP3    H269692   2.657   4.374  16.438  0.0812  0.5209 -0.5680
16093TIP3   OH269693   4.075   0.339  12.019 -0.1011  0.1756  0.0815
16093TIP3    H169694   4.030   0.257  12.039  0.8029 -0.5490 -0.7720
16093TIP3    H269695   4.167   0.321  12.033  0.0675  1.2118  0.3826
16094TIP3   OH269696   3.656   0.841   5.760  0.5674 -0.6140 -0.7384
16094TIP3    H169697   3.719   0.911   5.775  0.5963 -0.3845 -1.8691
16094TIP3    H269698   3.604   0.838   5.841  0.3385  0.9421 -0.8098
16095TIP3   OH269699   5.322   3.577  15.856 -0.4728  0.3494 -1.1003
16095TIP3    H169700   5.402   3.528  15.841  0.6688  1.4732  0.9211
16095TIP3    H269701   5.299   3.613  15.770  1.8105  0.9022 -1.5458
16096TIP3   OH269702   0.924   1.261  11.369 -0.6693  0.1231  0.3110
16096TIP3    H169703   0.853   1.273  11.306 -1.3337  1.3788  1.2515
16096TIP3    H269704   0.934   1.347  11.409 -0.6873 -0.7732  2.3386
16097TIP3   OH269705   2.200   0.925   4.052 -0.1309  0.2336 -0.2654
16097TIP3    H169706   2.173   1.015   4.034 -1.9784 -0.4383 -1.1786
16097TIP3    H269707   2.283   0.914   4.006  0.8043  1.8356  0.9667
16098TIP3   OH269708   5.601   3.161  15.091 -0.9949 -0.3741 -0.7331
16098TIP3    H169709   5.645   3.154  15.176 -1.4540  0.1286 -0.4544
16098TIP3    H269710   5.509   3.174  15.112 -0.7612  2.8583 -1.2110
16099TIP3   OH269711   1.998   0.378   4.875  0.2584 -0.3233 -0.0987
16099TIP3    H169712   2.060   0.425   4.931 -0.0716  1.3722 -1.0874
16099TIP3    H269713   2.052   0.341   4.805  0.4579 -1.0582  0.4300
16100TIP3   OH269714   5.050   6.821  12.179 -0.1241  0.5476 -0.3691
16100TIP3    H169715   5.088   6.752  12.125  0.1816  0.1958  0.2899
16100TIP3    H269716   4.955   6.814  12.163 -0.0923 -0.0057 -0.3182
16101TIP3   OH269717   0.161   6.378  11.937 -0.0880  0.1429  0.1470
16101TIP3    H169718   0.239   6.336  11.972 -0.0771  0.3671  0.3926
16101TIP3    H269719   0.129   6.317  11.871  0.7790  0.4445 -0.5687
16102TIP3   OH269720   0.128   1.669   3.919  0.9044  0.2719  0.3516
16102TIP3    H169721   0.042   1.666   3.961  1.6352 -0.1975  1.8771
16102TIP3    H269722   0.137   1.584   3.876 -0.8215  1.5740 -2.9368
16103TIP3   OH269723   2.995   3.110   1.689 -0.8857 -0.5165 -0.1718
16103TIP3    H169724   3.069   3.072   1.737 -1.9314 -3.4638 -0.6644
16103TIP3    H269725   3.031   3.128   1.602 -0.4821 -0.8979 -0.0901
16104TIP3   OH269726   6.708   0.209  16.940 -0.7463 -0.1895 -0.4839
16104TIP3    H169727   6.795   0.207  16.979 -0.7482 -1.6448 -0.4939
16104TIP3    H269728   6.720   0.175  16.851 -1.2875 -0.1460 -0.5818
16105TIP3   OH269729   1.493   5.215  16.067 -0.4622 -0.8225 -0.1468
16105TIP3    H169730   1.508   5.122  16.051 -0.1544 -1.0390  1.2253
16105TIP3    H269731   1.502   5.225  16.162 -0.4511  0.6158 -0.2652
16106TIP3   OH269732   6.525   5.249  14.931  0.0113  0.2243  0.6559
16106TIP3    H169733   6.472   5.234  15.010 -0.9249  1.6095  0.3252
16106TIP3    H269734   6.462   5.245  14.859  0.7583 -0.3800  0.0214
16107TIP3   OH269735   4.117   4.245   0.779  0.3207  0.0018  0.3726
16107TIP3    H169736   4.143   4.324   0.731  0.4572 -0.2577  0.0254
16107TIP3    H269737   4.149   4.172   0.726 -0.7532 -0.3184  0.1388
16108TIP3   OH269738   2.849   3.888  13.767  0.4354 -0.1859 -0.3326
16108TIP3    H169739   2.908   3.812  13.759 -0.1890 -0.7630  0.3659
16108TIP3    H269740   2.792   3.866  13.841 -0.6102  0.3910 -0.9468
16109TIP3   OH269741   3.537   5.403   1.950 -0.4703 -0.3932  0.7429
16109TIP3    H169742   3.582   5.325   1.918 -1.2176 -0.9390  0.9802
16109TIP3    H269743   3.517   5.384   2.042  0.0908  0.4346  1.0462
16110TIP3   OH269744   1.154   6.403  12.843 -0.1182  0.0052 -0.5171
16110TIP3    H169745   1.243   6.393  12.810 -0.0862 -0.8691 -0.1986
16110TIP3    H269746   1.109   6.322  12.818 -1.2621  1.0213 -1.9338
16111TIP3   OH269747   6.821   3.817   3.187 -0.0276  0.4367 -0.1913
16111TIP3    H169748   6.777   3.886   3.237 -0.4179  0.2128 -0.2147
16111TIP3    H269749   6.855   3.861   3.110 -0.2410  0.6128 -0.1864
16112TIP3   OH269750   0.992   0.680   1.142  0.0414 -0.2269  0.0035
16112TIP3    H169751   1.055   0.616   1.107 -0.1950 -1.3409  1.5302
16112TIP3    H269752   1.033   0.765   1.125  1.9683 -0.9067  0.8843
16113TIP3   OH269753   3.805   5.489   1.724  0.2266 -0.1889  0.1749
16113TIP3    H169754   3.803   5.584   1.710 -1.5707  0.2191  2.4702
16113TIP3    H269755   3.897   5.469   1.738  0.4222  1.7753  2.3773
16114TIP3   OH269756   1.174   6.218   1.820 -0.2646  0.3297 -0.3895
16114TIP3    H169757   1.128   6.288   1.773 -0.0244  0.7621  0.0066
16114TIP3    H269758   1.219   6.169   1.752  1.7249  2.1434 -0.4989
16115TIP3   OH269759   0.430   1.904  15.979  0.2180  0.1600  0.3263
16115TIP3    H169760   0.487   1.831  16.005 -1.4675 -1.6488 -0.7562
16115TIP3    H269761   0.360   1.862  15.929  0.0420  2.7444 -1.7788
16116TIP3   OH269762   1.221   0.516   1.095 -0.1135  0.3294 -0.0628
16116TIP3    H169763   1.255   0.557   1.016  1.4639  0.9692  0.9020
16116TIP3    H269764   1.292   0.460   1.126 -0.8824 -0.2870  0.6348
16117TIP3   OH269765   5.189   3.273   0.777 -0.1162  0.6983 -0.6195
16117TIP3    H169766   5.241   3.211   0.726 -0.9816 -0.1252 -0.5301
16117TIP3    H269767   5.161   3.223   0.854  1.3260  1.9613  0.8011
16118TIP3   OH269768   2.555   5.191  10.487  0.0399 -0.1765 -0.1110
16118TIP3    H169769   2.525   5.254  10.552  1.5328 -0.0857  0.5356
16118TIP3    H269770   2.646   5.172  10.512  1.1206  0.7995 -2.8095
16119TIP3   OH269771   6.646   6.202   3.017  0.3104 -0.5318 -0.3663
16119TIP3    H169772   6.563   6.243   3.041  0.1630 -0.4587 -0.9752
16119TIP3    H269773   6.693   6.193   3.099 -0.7965 -1.7109  0.1840
16120TIP3   OH269774   1.562   4.102   6.140  0.7631 -0.0155 -0.0390
16120TIP3    H169775   1.496   4.036   6.159 -0.0496  0.8663  0.2240
16120TIP3    H269776   1.643   4.051   6.126  0.1326 -1.0642  0.0361
16121TIP3   OH269777   1.863   0.563  13.180 -0.2811 -0.2188  0.0985
16121TIP3    H169778   1.839   0.486  13.128  0.9863 -1.7714  1.6812
16121TIP3    H269779   1.931   0.607  13.129 -1.6587  0.4349 -1.2575
16122TIP3   OH269780   4.272   3.173  12.654  0.1339 -0.3886 -0.3775
16122TIP3    H169781   4.328   3.097  12.673  0.2804 -0.1959 -0.0183
16122TIP3    H269782   4.258   3.170  12.560 -0.0253 -0.9743 -0.3370
16123TIP3   OH269783   6.692   5.684   4.604  0.3923  0.3806  0.7545
16123TIP3    H169784   6.782   5.662   4.629  0.5711  0.7077  0.3963
16123TIP3    H269785   6.699   5.726   4.519 -0.2230 -0.7703  0.0994
16124TIP3   OH269786   1.704   6.490  13.293  0.0999 -0.5154  0.3225
16124TIP3    H169787   1.777   6.438  13.327 -0.0322 -1.7211 -1.1046
16124TIP3    H269788   1.744   6.570  13.261  0.9409 -1.4230 -1.0069
16125TIP3   OH269789   4.330   5.636   0.371  0.5859  0.4322 -0.6717
16125TIP3    H169790   4.401   5.675   0.319 -0.0897  0.3904 -1.6567
16125TIP3    H269791   4.352   5.544   0.376  1.2283  0.6172  0.0780
16126TIP3   OH269792   1.602   0.019   0.621  0.2726 -0.1547  0.4270
16126TIP3    H169793   1.529  -0.038   0.643 -1.4009  1.0970 -1.5285
16126TIP3    H269794   1.616   0.072   0.699  0.2899 -1.5640  1.4216
16127TIP3   OH269795   5.009   3.462   0.470 -0.5556  0.2475  0.5374
16127TIP3    H169796   5.064   3.418   0.535 -0.3096  1.5906  1.2901
16127TIP3    H269797   4.959   3.526   0.521  0.1027  1.7812 -0.6579
16128TIP3   OH269798   4.775   3.552   1.957  0.1280  0.6842 -0.3630
16128TIP3    H169799   4.801   3.471   2.002 -0.9224  0.1736 -0.6494
16128TIP3    H269800   4.721   3.523   1.884  0.0294  1.6378 -0.6825
16129TIP3   OH269801   6.023   4.264   3.025  0.1113 -0.3604  0.5367
16129TIP3    H169802   6.009   4.219   2.942 -1.4317  0.2276  0.4402
16129TIP3    H269803   6.093   4.215   3.067  1.6410 -0.0514 -1.5279
16130TIP3   OH269804   0.978   1.895   4.725  0.0393 -0.0166  0.3450
16130TIP3    H169805   1.023   1.960   4.671 -1.1214  1.5410  1.1452
16130TIP3    H269806   0.952   1.944   4.803 -0.5858 -1.5585  1.1391
16131TIP3   OH269807   3.697   0.122  11.492 -0.4534 -0.2141 -0.3886
16131TIP3    H169808   3.654   0.038  11.508 -0.7122  0.2013  1.3077
16131TIP3    H269809   3.758   0.132  11.565  2.7432 -0.8254 -2.7543
16132TIP3   OH269810   3.906   0.989  13.411  0.2664  0.1064  0.1403
16132TIP3    H169811   3.970   1.057  13.388 -0.3092  0.8865  0.7935
16132TIP3    H269812   3.883   1.007  13.502 -2.0449  0.8459 -0.5167
16133TIP3   OH269813   4.110   4.046   5.862 -0.0386 -0.6341  0.0052
16133TIP3    H169814   4.016   4.050   5.875 -0.3465 -1.7874 -1.4952
16133TIP3    H269815   4.145   4.121   5.909 -1.9828  1.4615 -1.6698
16134TIP3   OH269816   5.788   0.227  11.658 -0.3515  0.3271 -0.1992
16134TIP3    H169817   5.707   0.186  11.626  0.1070 -1.1802  0.5129
16134TIP3    H269818   5.841   0.239  11.580  1.2732 -4.4406 -0.0974
16135TIP3   OH269819   4.898   0.823  16.657 -0.3710  0.3811 -0.3425
16135TIP3    H169820   4.910   0.829  16.751  1.9308  2.2046 -0.6868
16135TIP3    H269821   4.927   0.907  16.622 -1.9856  0.0967 -2.6403
16136TIP3   OH269822   0.518   0.784  16.279  0.3330  0.6338  0.3039
16136TIP3    H169823   0.544   0.873  16.300  0.6499  0.3144  1.3384
16136TIP3    H269824   0.588   0.750  16.223 -0.1913  1.2814 -0.7876
16137TIP3   OH269825   6.313   2.705   0.438  0.0961 -0.1273 -0.1477
16137TIP3    H169826   6.303   2.620   0.481  0.8535 -0.3860 -0.4622
16137TIP3    H269827   6.318   2.768   0.509  1.0659 -0.5221  0.1573
16138TIP3   OH269828   3.994   5.318   5.917 -0.0388  0.0497  0.4683
16138TIP3    H169829   4.069   5.335   5.973  0.4657 -0.7496  0.0501
16138TIP3    H269830   3.921   5.362   5.960  0.0917 -1.4650  2.3610
16139TIP3   OH269831   5.016   1.066   0.910 -0.1227  1.1436  0.0322
16139TIP3    H169832   4.943   1.061   0.848  0.0651 -0.4185 -0.0898
16139TIP3    H269833   5.093   1.078   0.854 -0.0477  0.5575  0.0011
16140TIP3   OH269834   5.323   0.686   4.153  0.0349 -0.8155 -0.1746
16140TIP3    H169835   5.353   0.595   4.159  0.6582 -0.6181 -0.2646
16140TIP3    H269836   5.376   0.733   4.216 -1.7146 -0.8573  1.4039
16141TIP3   OH269837   4.950   3.009   5.191  0.3711  0.1211 -0.0107
16141TIP3    H169838   4.878   3.037   5.248  0.5702  0.7155 -0.0515
16141TIP3    H269839   4.911   3.008   5.104  0.4189  0.4770 -0.0375
16142TIP3   OH269840   6.616   5.431  10.224 -0.0159 -0.3935  0.2781
16142TIP3    H169841   6.656   5.510  10.187  1.2420 -0.8083  0.6938
16142TIP3    H269842   6.685   5.391  10.277 -1.6267  0.0203  2.9011
16143TIP3   OH269843   3.530   6.371  15.485 -0.2918 -0.2045 -0.1030
16143TIP3    H169844   3.580   6.431  15.540 -0.1995 -0.1391 -0.2571
16143TIP3    H269845   3.585   6.293  15.477  1.0429  0.8692 -2.4814
16144TIP3   OH269846   1.237   2.080  10.632 -0.2604 -0.1196 -0.3643
16144TIP3    H169847   1.286   2.158  10.607 -3.3750  2.1277 -0.1137
16144TIP3    H269848   1.205   2.045  10.549  1.3371 -1.3445 -0.4962
16145TIP3   OH269849   1.731   4.906  14.726  0.5984 -0.1900 -0.4055
16145TIP3    H169850   1.816   4.862  14.728  0.0943 -1.1694  0.2523
16145TIP3    H269851   1.710   4.920  14.819 -1.9257 -3.9375 -0.1886
16146TIP3   OH269852   5.356   4.474  14.205  0.2279 -0.1798 -0.1501
16146TIP3    H169853   5.448   4.463  14.229  0.5859  1.4649 -0.6655
16146TIP3    H269854   5.320   4.386  14.210  1.4956 -0.6559  1.3771
16147TIP3   OH269855   2.607   2.244  13.187  0.2321 -0.4324 -0.4380
16147TIP3    H169856   2.621   2.192  13.267  0.6044 -1.1362 -0.9437
16147TIP3    H269857   2.696   2.260  13.154  0.0834 -0.0698 -0.6635
16148TIP3   OH269858   0.131   2.962  10.271  0.5529  0.2237  0.1762
16148TIP3    H169859   0.202   3.015  10.233  0.7371 -0.3982 -0.3732
16148TIP3    H269860   0.076   2.939  10.196  0.2591 -0.0353  0.4689
16149TIP3   OH269861   6.365   6.096  11.468 -0.6589 -0.4424  0.1637
16149TIP3    H169862   6.304   6.024  11.486 -0.0896 -0.8260  0.6298
16149TIP3    H269863   6.311   6.174  11.467 -1.1678 -0.7849  0.5106
16150TIP3   OH269864   6.205   0.092  11.328 -0.3497 -0.1200  0.1301
16150TIP3    H169865   6.210   0.030  11.256 -1.6868 -0.7385  0.5300
16150TIP3    H269866   6.276   0.066  11.387  1.2820  0.8930 -1.2761
16151TIP3   OH269867   5.098   0.882   0.597  0.2095 -0.1310  0.0468
16151TIP3    H169868   5.071   0.970   0.570  0.8441 -0.2521 -1.0273
16151TIP3    H269869   5.020   0.845   0.638  0.1841  1.2268  1.3153
16152TIP3   OH269870   4.273   2.854  16.105  0.0971 -0.2605 -0.2706
16152TIP3    H169871   4.348   2.805  16.140  0.7376  0.2296 -0.9051
16152TIP3    H269872   4.308   2.941  16.087 -0.8973  0.2830  0.3562
16153TIP3   OH269873   4.927   1.693  14.609  0.2049 -0.1550  0.0110
16153TIP3    H169874   4.862   1.752  14.647  1.3683  0.0782  1.7532
16153TIP3    H269875   5.007   1.745  14.605  0.8890 -1.1476  0.2133
16154TIP3   OH269876   6.267   1.728   6.039 -0.3590  0.4709  0.3113
16154TIP3    H169877   6.332   1.798   6.034 -0.2539  0.3103 -1.3531
16154TIP3    H269878   6.183   1.774   6.044 -0.2945  0.7462 -0.8360
16155TIP3   OH269879   6.632   5.695  10.805  0.1344  0.1176  0.2949
16155TIP3    H169880   6.591   5.612  10.829 -1.0990 -0.3120 -2.8776
16155TIP3    H269881   6.571   5.735  10.744  0.6378  3.4959  1.7813
16156TIP3   OH269882   1.512   0.584  12.374  0.1685  0.3956  0.2168
16156TIP3    H169883   1.501   0.675  12.402  2.2173  0.2917  1.5417
16156TIP3    H269884   1.599   0.560  12.404 -0.6019 -2.2545  0.5838
16157TIP3   OH269885   5.963   0.152  16.368  0.0213 -0.1925 -0.7298
16157TIP3    H169886   6.034   0.198  16.324  1.1099 -0.2701  0.8776
16157TIP3    H269887   6.006   0.096  16.432 -1.3734 -2.0476 -1.3162
16158TIP3   OH269888   4.235   3.572   5.875 -0.5145 -0.1575 -0.1055
16158TIP3    H169889   4.277   3.645   5.830 -2.7466  1.3139  0.0657
16158TIP3    H269890   4.303   3.537   5.933  1.4722 -0.1283 -2.2917
16159TIP3   OH269891   4.924   0.445   3.536 -0.2748 -0.0849 -0.0111
16159TIP3    H169892   4.958   0.518   3.484  0.1377 -1.2202 -1.3798
16159TIP3    H269893   4.830   0.446   3.519 -0.5618  1.1506  1.3547
16160TIP3   OH269894   2.230   1.760  16.149 -0.4674 -0.2462  0.0601
16160TIP3    H169895   2.161   1.721  16.094  0.3373  1.6161 -2.4447
16160TIP3    H269896   2.311   1.726  16.112  0.0667 -1.2467  2.0443
16161TIP3   OH269897   3.519   4.653  14.421  0.0864  0.3324  0.4590
16161TIP3    H169898   3.541   4.626  14.331  0.7084 -0.7765  0.9174
16161TIP3    H269899   3.596   4.700  14.451  0.5810 -0.7559  0.9641
16162TIP3   OH269900   3.389   4.667   3.151 -0.2097  0.0580  0.5114
16162TIP3    H169901   3.311   4.630   3.190 -0.1417  0.5388  1.1300
16162TIP3    H269902   3.367   4.759   3.135  0.6035  0.5197  1.8213
16163TIP3   OH269903   3.231   2.394  11.787  0.2792 -1.0001  0.0224
16163TIP3    H169904   3.324   2.417  11.783  0.1012  0.0181  1.1882
16163TIP3    H269905   3.228   2.300  11.770  1.4739 -0.9719 -0.4063
16164TIP3   OH269906   1.682   3.014  13.696 -0.6411  0.1559  0.1619
16164TIP3    H169907   1.615   3.025  13.629 -1.8637  1.4050  1.5292
16164TIP3    H269908   1.708   2.922  13.689 -3.0161 -0.5530  0.0332
16165TIP3   OH269909   6.349   1.012  14.945 -0.3895 -0.7427  0.0303
16165TIP3    H169910   6.274   1.047  14.897 -0.7677  2.1476  2.4182
16165TIP3    H269911   6.317   0.931  14.985 -2.4969  0.6853  1.3976
16166TIP3   OH269912   2.634   6.382  12.445 -0.1412 -0.0913  0.2543
16166TIP3    H169913   2.659   6.310  12.503  0.4226 -0.7624 -0.7977
16166TIP3    H269914   2.678   6.363  12.362  1.4881  2.3826  0.4399
16167TIP3   OH269915   1.404   2.657   3.850  0.2350  0.6084  0.5524
16167TIP3    H169916   1.329   2.647   3.791 -1.2714  1.3878  2.2396
16167TIP3    H269917   1.467   2.590   3.821 -0.5869  0.7207 -1.6516
16168TIP3   OH269918   1.963   5.961   4.881  0.1416  0.2212  0.0475
16168TIP3    H169919   1.931   5.871   4.887  0.2885  0.0852 -1.0268
16168TIP3    H269920   2.039   5.963   4.939  0.2411 -0.3922 -0.0558
16169TIP3   OH269921   5.514   4.504  10.752  0.6094  0.8757  0.0502
16169TIP3    H169922   5.459   4.478  10.678 -0.5625 -0.4275  1.2967
16169TIP3    H269923   5.597   4.528  10.713 -0.4643  1.7950 -1.8241
16170TIP3   OH269924   5.765   1.841   5.038 -0.0962  0.6030 -0.4476
16170TIP3    H169925   5.702   1.785   5.083  0.2728  1.5434  1.3146
16170TIP3    H269926   5.827   1.780   4.997 -0.0607 -0.2883  0.8985
16171TIP3   OH269927   0.219   5.492  16.947  0.2274 -0.0571  0.2250
16171TIP3    H169928   0.206   5.438  17.025  1.2766 -0.1093  0.3813
16171TIP3    H269929   0.314   5.505  16.943  0.0148  1.7112  0.1408
16172TIP3   OH269930   0.768   0.155   1.499 -0.6217  0.7152 -0.6897
16172TIP3    H169931   0.773   0.068   1.461  0.4897  1.3129 -2.0035
16172TIP3    H269932   0.859   0.185   1.502 -0.8636  1.3956  0.8151
16173TIP3   OH269933   6.525   3.554   0.131  0.6361  0.4504  0.2347
16173TIP3    H169934   6.535   3.496   0.055 -0.3273  0.2340  0.2578
16173TIP3    H269935   6.520   3.494   0.205 -0.5169  0.5336  0.2448
16174TIP3   OH269936   3.187   4.863   3.763  0.7734  0.4612 -0.3411
16174TIP3    H169937   3.200   4.958   3.753  1.3214  0.4808  0.4221
16174TIP3    H269938   3.101   4.855   3.804  1.1955  0.7149  0.6547
16175TIP3   OH269939   1.521   3.052  14.974 -0.2211 -0.5042 -0.2796
16175TIP3    H169940   1.552   3.027  14.886 -0.5014 -1.6647 -0.0728
16175TIP3    H269941   1.436   3.095  14.958 -1.1797 -2.3545 -0.4984
16176TIP3   OH269942   4.528   6.320  11.959 -0.0621 -0.5728 -0.2789
16176TIP3    H169943   4.477   6.241  11.942 -0.4201 -0.5380  0.5960
16176TIP3    H269944   4.527   6.330  12.054  2.0488 -0.8915 -0.1595
16177TIP3   OH269945   5.365   5.324   1.786 -0.1205  0.0957  0.2325
16177TIP3    H169946   5.411   5.380   1.848  0.6702 -0.1306 -0.1339
16177TIP3    H269947   5.433   5.269   1.748 -1.0700 -2.2896  1.7602
16178TIP3   OH269948   4.788   5.425   3.911  0.5936  0.4519  0.9301
16178TIP3    H169949   4.872   5.469   3.923  1.5392 -1.1894  0.5909
16178TIP3    H269950   4.795   5.345   3.962 -0.9187  0.4485  1.1880
16179TIP3   OH269951   4.998   4.037   0.149 -0.9443  0.1152 -0.4442
16179TIP3    H169952   4.951   3.956   0.129 -1.2409  0.2380 -0.2447
16179TIP3    H269953   4.987   4.049   0.243  2.2529 -1.6192  0.3083
16180TIP3   OH269954   1.529   2.290   1.509 -0.2070 -0.0278 -0.0092
16180TIP3    H169955   1.516   2.199   1.538 -0.1922 -0.8214 -2.2886
16180TIP3    H269956   1.616   2.290   1.469 -0.5578  0.7527 -0.8142
16181TIP3   OH269957   5.296   2.681   2.630  0.6339 -0.3540  0.5322
16181TIP3    H169958   5.213   2.705   2.590  0.3530  0.7685  1.7346
16181TIP3    H269959   5.273   2.611   2.692  0.5998 -0.1436  0.7595
16182TIP3   OH269960   0.734   3.375  15.093 -0.0369  0.0705  0.1193
16182TIP3    H169961   0.781   3.384  15.010 -0.9294  0.2127 -0.3783
16182TIP3    H269962   0.664   3.440  15.088 -0.7618 -0.6688  0.5274
16183TIP3   OH269963   5.820   4.157  12.342  0.1814  0.5877 -0.5695
16183TIP3    H169964   5.864   4.161  12.427 -1.2984  1.5548  0.2001
16183TIP3    H269965   5.730   4.186  12.360 -0.4814 -0.2454 -2.2698
16184TIP3   OH269966   6.044   0.281   1.077  0.2423 -0.2234 -0.1914
16184TIP3    H169967   5.970   0.342   1.073 -0.5215 -1.1362 -0.1436
16184TIP3    H269968   6.121   0.338   1.077 -0.4687  0.8537  2.2645
16185TIP3   OH269969   5.548   0.276   0.581  0.0290  0.2472  0.6345
16185TIP3    H169970   5.620   0.239   0.632  0.6136 -2.2616 -1.7718
16185TIP3    H269971   5.580   0.279   0.491 -2.6051 -0.2900 -0.4310
16186TIP3   OH269972   3.969   4.463   5.657 -0.1810 -0.2637 -0.0778
16186TIP3    H169973   3.955   4.491   5.748 -2.2975  0.0977 -0.4814
16186TIP3    H269974   3.895   4.406   5.637 -1.6638  2.2626 -2.5747
16187TIP3   OH269975   2.503   1.480   2.611 -0.0416 -0.4006 -0.2419
16187TIP3    H169976   2.418   1.524   2.605 -0.0639 -0.5611 -1.3057
16187TIP3    H269977   2.482   1.393   2.643 -0.1701 -0.1699  0.3302
16188TIP3   OH269978   1.674   3.693   1.307 -0.3084  0.0859  0.0985
16188TIP3    H169979   1.707   3.778   1.277 -1.0092 -0.0543 -1.1515
16188TIP3    H269980   1.620   3.662   1.235 -0.1403 -1.3903  0.5733
16189TIP3   OH269981   0.326   1.913  14.516  0.2001 -0.1145 -0.7122
16189TIP3    H169982   0.368   1.996  14.495  1.5626 -0.4286  0.6190
16189TIP3    H269983   0.285   1.885  14.434  2.0376  0.5381 -1.9074
16190TIP3   OH269984   6.197   6.041  14.959  0.1408 -0.4660  0.5612
16190TIP3    H169985   6.241   5.956  14.958 -0.8133 -0.9985  1.7613
16190TIP3    H269986   6.147   6.043  14.877  3.3733  0.7586 -1.5712
16191TIP3   OH269987   2.421   0.054   1.160 -0.6492 -0.2196 -0.5785
16191TIP3    H169988   2.461   0.084   1.079 -0.2383  0.2201 -0.2172
16191TIP3    H269989   2.487  -0.004   1.200  0.1942  1.4889  0.6360
16192TIP3   OH269990   0.182   6.444  14.522 -0.3122 -0.0387 -0.2301
16192TIP3    H169991   0.217   6.487  14.600  0.5006  1.8391 -1.5605
16192TIP3    H269992   0.088   6.456  14.528 -0.0777  2.9198 -1.0101
16193TIP3   OH269993   6.804   4.469   1.731 -0.0140 -0.5103 -0.2074
16193TIP3    H169994   6.878   4.479   1.671 -0.8356 -0.3420 -1.2137
16193TIP3    H269995   6.727   4.497   1.680 -0.8698 -1.3705  0.5711
16194TIP3   OH269996   5.662   4.513  12.233 -0.1940  0.4963  0.0395
16194TIP3    H169997   5.587   4.457  12.250 -0.4483  1.2347  1.5187
16194TIP3    H269998   5.717   4.504  12.311  0.8096  0.6813 -0.6243
16195TIP3   OH269999   6.692   5.563   5.865  0.2465  0.3450 -0.3930
16195TIP3    H170000   6.722   5.474   5.884  3.1774  0.8864 -1.9829
16195TIP3    H270001   6.702   5.609   5.948  0.6391 -0.3186 -0.0576
16196TIP3   OH270002   4.914   4.098  15.981 -0.1977  0.2095 -0.1474
16196TIP3    H170003   4.931   4.068  16.070  3.6193 -0.4927 -0.9243
16196TIP3    H270004   4.922   4.193  15.985 -1.0779  0.2773  0.3757
16197TIP3   OH270005   0.147   5.593  10.894  0.2357 -0.3747 -0.2402
16197TIP3    H170006   0.160   5.688  10.889 -0.8682 -0.1751  0.3575
16197TIP3    H270007   0.233   5.556  10.876  0.4600  0.7147 -1.5560
16198TIP3   OH270008   6.201   1.397   5.449 -0.0873  0.4872 -0.0411
16198TIP3    H170009   6.294   1.420   5.444 -0.0895  0.2661 -1.4972
16198TIP3    H270010   6.158   1.454   5.385 -0.7722 -0.2664 -0.2690
16199TIP3   OH270011   1.433   3.225  10.873  1.2192 -0.7355  0.0127
16199TIP3    H170012   1.416   3.153  10.812  0.4385 -1.2727  0.8294
16199TIP3    H270013   1.528   3.228  10.881  1.4155  0.0658 -2.0444
16200TIP3   OH270014   3.816   3.019  15.676  0.5653  0.2761  0.7352
16200TIP3    H170015   3.733   3.057  15.649 -0.1588 -1.0110  1.1048
16200TIP3    H270016   3.872   3.026  15.598 -0.9630 -1.8845 -0.6610
16201TIP3   OH270017   3.176   0.608  16.715 -0.1075  0.2102 -0.5351
16201TIP3    H170018   3.238   0.612  16.643 -0.0002  0.3487 -0.4347
16201TIP3    H270019   3.226   0.574  16.789  0.0671  1.0894 -0.2301
16202TIP3   OH270020   3.634   2.968  12.740  0.0152  0.3934 -0.2597
16202TIP3    H170021   3.651   2.997  12.650 -0.2508  0.8154 -0.1792
16202TIP3    H270022   3.556   3.017  12.766 -0.9924 -1.0816 -0.4317
16203TIP3   OH270023   0.469   3.652   3.549  0.1022 -0.4273  0.0227
16203TIP3    H170024   0.536   3.602   3.596 -0.0343 -0.2613  0.3970
16203TIP3    H270025   0.393   3.594   3.546  0.4013 -0.7850 -0.7859
16204TIP3   OH270026   0.884   6.605  13.226  0.0820  0.3473 -0.6803
16204TIP3    H170027   0.811   6.660  13.255 -0.9796 -0.9505 -0.7849
16204TIP3    H270028   0.857   6.574  13.139  1.5574  1.2105 -1.5076
16205TIP3   OH270029   2.552   1.819   3.427 -0.1594 -0.1384 -0.6269
16205TIP3    H170030   2.471   1.857   3.394 -0.6888 -1.0527 -0.4183
16205TIP3    H270031   2.549   1.728   3.398  1.5402  0.1771 -1.9610
16206TIP3   OH270032   2.834   3.317   4.817 -0.1209 -0.0907  0.5466
16206TIP3    H170033   2.879   3.359   4.891  2.1502  1.0601 -1.3446
16206TIP3    H270034   2.896   3.250   4.787 -0.2260  0.5955 -1.3138
16207TIP3   OH270035   1.322   5.809   0.931  0.3413  0.2481 -0.3082
16207TIP3    H170036   1.365   5.885   0.971  0.9946 -0.8275  1.1128
16207TIP3    H270037   1.390   5.767   0.879  0.9453 -1.1662  1.5319
16208TIP3   OH270038   3.482   2.846   4.427  0.1378 -0.5346  0.4220
16208TIP3    H170039   3.423   2.906   4.472  1.5472  1.6237 -0.4763
16208TIP3    H270040   3.443   2.759   4.442 -2.1372  0.5793  1.5137
16209TIP3   OH270041   2.757   0.993   0.010 -0.3775  0.9824 -0.0589
16209TIP3    H170042   2.794   1.013  -0.076 -2.7296  0.9824 -1.1397
16209TIP3    H270043   2.707   0.913  -0.004  0.4497  0.1087  1.7226
16210TIP3   OH270044   4.724   5.368   0.704 -0.1525  0.1420  0.5651
16210TIP3    H170045   4.647   5.314   0.723 -1.8824  2.3806  0.3968
16210TIP3    H270046   4.708   5.449   0.753  1.9970  0.7818  0.2935
16211TIP3   OH270047   1.822   6.091   5.373  0.0546 -0.5587  0.2442
16211TIP3    H170048   1.776   6.175   5.367 -0.3771 -0.7750  0.4657
16211TIP3    H270049   1.826   6.060   5.282  1.4807  0.3537 -0.0437
16212TIP3   OH270050   2.066   2.123   1.240  0.6965  0.2055 -0.3275
16212TIP3    H170051   1.972   2.135   1.232  0.0418 -3.7189 -0.5878
16212TIP3    H270052   2.099   2.131   1.150 -0.2159 -2.7482 -1.0484
16213TIP3   OH270053   5.065   3.570  14.805 -0.0349 -0.0401 -0.2019
16213TIP3    H170054   5.068   3.567  14.900 -0.2609  1.0628 -0.1472
16213TIP3    H270055   4.976   3.544  14.782  0.0735 -0.4867 -0.1345
16214TIP3   OH270056   4.756   3.758  15.488  0.6499 -0.0987 -0.1213
16214TIP3    H170057   4.761   3.663  15.477  2.5275 -0.0359 -0.1045
16214TIP3    H270058   4.844   3.784  15.516  0.1244  1.6322  0.0604
16215TIP3   OH270059   0.244   3.984  11.412  0.0822  0.0589 -0.6587
16215TIP3    H170060   0.310   4.051  11.429  0.4605 -0.5145  0.2140
16215TIP3    H270061   0.173   4.030  11.368  0.1785  1.1095  0.2608
16216TIP3   OH270062   0.114   1.310   2.208  0.4454  0.0871  0.4898
16216TIP3    H170063   0.062   1.383   2.172 -0.3276 -0.6753  0.0078
16216TIP3    H270064   0.049   1.242   2.225  1.1955 -0.5846  0.6740
16217TIP3   OH270065   6.736   6.487  11.649  0.6039  0.4870  0.1639
16217TIP3    H170066   6.705   6.419  11.589 -0.9137  2.2517 -1.1457
16217TIP3    H270067   6.827   6.462  11.667  0.3035 -1.5210 -0.7531
16218TIP3   OH270068   0.098   1.517   2.762 -0.0886  0.6175 -0.5868
16218TIP3    H170069   0.051   1.584   2.811  0.1297  0.9188 -0.7834
16218TIP3    H270070   0.151   1.566   2.699 -0.7816  0.2216 -1.5109
16219TIP3   OH270071   2.319   4.114   4.222  0.3608 -0.3078  0.3008
16219TIP3    H170072   2.237   4.125   4.173  0.1091  2.9981  1.2268
16219TIP3    H270073   2.291   4.100   4.312  0.7850  0.4313  0.5553
16220TIP3   OH270074   0.634   5.378  16.436  0.5493  0.7484 -0.2319
16220TIP3    H170075   0.691   5.344  16.505  0.0943 -1.1434 -0.7262
16220TIP3    H270076   0.548   5.386  16.478  0.1261 -1.0019 -0.6765
16221TIP3   OH270077   4.274   3.439   1.939  0.2480 -0.0486  0.2456
16221TIP3    H170078   4.209   3.505   1.914  0.8619  0.0204 -1.2147
16221TIP3    H270079   4.356   3.469   1.899  1.1260 -0.3296  1.7557
16222TIP3   OH270080   2.486   5.694   3.462 -0.4374  0.5193 -0.3658
16222TIP3    H170081   2.405   5.643   3.464 -0.8392  0.9984 -2.4721
16222TIP3    H270082   2.458   5.785   3.469 -0.0659  0.6825 -0.9793
16223TIP3   OH270083   4.384   2.205   0.648 -0.0212  0.0076 -0.2092
16223TIP3    H170084   4.307   2.219   0.593  0.4622  1.2364 -0.6070
16223TIP3    H270085   4.441   2.278   0.627  2.7467 -2.5138 -2.3785
16224TIP3   OH270086   0.214   3.279  15.502  0.3746  0.3990  0.1479
16224TIP3    H170087   0.128   3.237  15.501 -0.1844  1.5145 -0.1491
16224TIP3    H270088   0.265   3.230  15.438 -0.6472  0.8955 -1.1164
16225TIP3   OH270089   2.725   6.550  12.647 -0.1324  0.1838 -0.2601
16225TIP3    H170090   2.643   6.589  12.677  0.3434  0.7492  0.3333
16225TIP3    H270091   2.700   6.499  12.570 -1.1941 -0.3863  0.4278
16226TIP3   OH270092   1.413   2.035   0.194  0.2508 -0.2876 -0.1164
16226TIP3    H170093   1.337   2.075   0.153  1.0157 -0.0332 -1.3320
16226TIP3    H270094   1.427   1.953   0.146 -1.0529 -1.9444  2.0764
16227TIP3   OH270095   2.527   4.957  12.487 -0.2629 -0.3194 -0.1449
16227TIP3    H170096   2.463   4.923  12.425 -0.8096  1.3625 -0.5590
16227TIP3    H270097   2.611   4.949  12.441 -0.7779  1.9804 -1.7081
16228TIP3   OH270098   3.572   2.902   3.648  0.0636 -0.5749  0.6823
16228TIP3    H170099   3.586   2.996   3.638  2.3774 -0.7218  1.7353
16228TIP3    H270100   3.509   2.895   3.720  1.4864  0.2071  2.0741
16229TIP3   OH270101   6.595   3.716  10.254 -0.0012 -0.6140  0.4946
16229TIP3    H170102   6.559   3.627  10.254  0.7953 -0.9485  0.1692
16229TIP3    H270103   6.679   3.707  10.299  1.1670 -0.5097 -1.5241
16230TIP3   OH270104   6.144   4.791  12.700 -0.3324  0.0977  0.1225
16230TIP3    H170105   6.198   4.854  12.747  0.3888  1.1608 -2.0069
16230TIP3    H270106   6.086   4.844  12.646 -1.2066 -1.0654 -0.1249
16231TIP3   OH270107   1.842   3.846   5.304  0.1938 -0.5419  0.0012
16231TIP3    H170108   1.801   3.918   5.352 -0.0177 -0.2640 -0.5922
16231TIP3    H270109   1.779   3.774   5.308  0.0280 -0.4053 -0.1556
16232TIP3   OH270110   3.390   3.819  13.821  0.2097  0.3974 -0.7081
16232TIP3    H170111   3.484   3.806  13.808 -0.3686 -1.4212 -4.6593
16232TIP3    H270112   3.370   3.774  13.903  2.5202 -0.7394 -0.6850
16233TIP3   OH270113   6.220   0.355   3.643  0.0113  0.1164  0.1400
16233TIP3    H170114   6.147   0.314   3.688 -0.3542 -0.8171 -1.2489
16233TIP3    H270115   6.295   0.297   3.661  0.4518  1.0567  1.5391
16234TIP3   OH270116   3.415   4.717   0.344  0.0631 -0.5907  0.4763
16234TIP3    H170117   3.375   4.631   0.329  0.6596 -0.8247  0.2126
16234TIP3    H270118   3.503   4.710   0.307  1.1022 -0.7357  2.8249
16235TIP3   OH270119   3.123   1.751  10.514  0.5581  0.4023 -0.3733
16235TIP3    H170120   3.115   1.816  10.445  0.6512  1.8014  0.8742
16235TIP3    H270121   3.043   1.761  10.566  0.1073 -1.1814 -0.7114
16236TIP3   OH270122   0.816   1.804   3.293 -0.1121  0.2088  0.2777
16236TIP3    H170123   0.878   1.816   3.364  0.9464  1.4932 -0.8048
16236TIP3    H270124   0.808   1.709   3.284 -1.3433 -0.0373  2.9409
16237TIP3   OH270125   1.198   1.070  14.959  0.2537  0.0710  0.0315
16237TIP3    H170126   1.244   1.060  15.042  1.1097  2.3031 -0.1194
16237TIP3    H270127   1.168   1.161  14.959  0.9169  0.3521 -2.4205
16238TIP3   OH270128   5.589   0.592  14.582  0.4008 -0.2344 -0.4412
16238TIP3    H170129   5.649   0.529  14.622  0.4296  0.9244  1.4715
16238TIP3    H270130   5.637   0.625  14.506  0.8858 -1.5630 -0.7516
16239TIP3   OH270131   1.013   2.216   5.477 -0.2288  0.3185  0.0864
16239TIP3    H170132   0.979   2.204   5.388 -0.9199  0.3675  0.3398
16239TIP3    H270133   1.084   2.152   5.483 -1.4322 -1.0830  0.1418
16240TIP3   OH270134   6.164   1.285  16.298 -0.3095  0.2543 -0.1893
16240TIP3    H170135   6.190   1.323  16.214 -0.4411  3.7232  1.1882
16240TIP3    H270136   6.093   1.224  16.276 -1.3758  2.1711 -2.4757
16241TIP3   OH270137   1.752   1.981   3.248 -0.1295  0.1938 -0.0844
16241TIP3    H170138   1.668   1.981   3.295 -0.3316 -2.2788 -0.3393
16241TIP3    H270139   1.736   1.928   3.170  1.9173 -1.2504  0.3970
16242TIP3   OH270140   0.646   5.366   3.058 -0.7135 -0.0417  0.3408
16242TIP3    H170141   0.614   5.284   3.020 -0.0279 -0.5295  0.7975
16242TIP3    H270142   0.735   5.375   3.024 -0.4771  0.0665  0.9756
16243TIP3   OH270143   5.567   2.104  14.883  0.1768 -0.5966 -0.1194
16243TIP3    H170144   5.539   2.017  14.909 -0.6139  0.4657  2.9410
16243TIP3    H270145   5.505   2.130  14.815 -0.3170 -1.9294 -0.2064
16244TIP3   OH270146   2.422   6.259  14.544  0.5691 -0.6717  0.0879
16244TIP3    H170147   2.474   6.324  14.589  0.0320  0.1283 -0.4281
16244TIP3    H270148   2.366   6.309  14.485 -0.6394 -1.5036  0.4730
16245TIP3   OH270149   4.034   1.967  14.527  0.3614  0.8888  0.1722
16245TIP3    H170150   3.946   2.003  14.530 -0.3849 -0.8534  0.9605
16245TIP3    H270151   4.082   2.024  14.467 -1.1309  2.2082  0.1693
16246TIP3   OH270152   0.081   4.134  12.688  0.3391  0.9965 -0.4439
16246TIP3    H170153   0.003   4.119  12.635 -0.6854 -1.1490  1.5007
16246TIP3    H270154   0.049   4.146  12.777  2.2020 -1.8494  0.7592
16247TIP3   OH270155   3.723   6.100  13.201 -0.1436 -0.1113 -0.1735
16247TIP3    H170156   3.657   6.097  13.271  1.2465 -2.0080  1.1342
16247TIP3    H270157   3.784   6.168  13.228 -2.0334  2.4982 -1.9679
16248TIP3   OH270158   1.507   4.486  13.675  0.4768 -0.6066  0.2787
16248TIP3    H170159   1.480   4.493  13.767  0.5940  1.1745  0.2195
16248TIP3    H270160   1.569   4.413  13.673 -0.2611 -1.2943  1.4196
16249TIP3   OH270161   5.265   1.633   2.254 -0.0280  0.8691 -0.4491
16249TIP3    H170162   5.347   1.621   2.302  0.2571  1.5842 -0.7532
16249TIP3    H270163   5.285   1.698   2.187 -0.5545  0.2278 -1.2386
16250TIP3   OH270164   4.517   0.525  12.613  0.1065 -0.2268  0.5943
16250TIP3    H170165   4.580   0.596  12.609  0.6603 -0.5627  2.4600
16250TIP3    H270166   4.457   0.549  12.684 -0.9965 -0.6247 -0.1620
16251TIP3   OH270167   0.375   5.597  11.875  0.0814  0.0770 -0.7345
16251TIP3    H170168   0.440   5.642  11.821  1.6451 -0.0510  0.9338
16251TIP3    H270169   0.422   5.522  11.912 -1.1774 -0.3582  0.0623
16252TIP3   OH270170   5.327   6.156   0.060 -0.7696  0.6165  0.5000
16252TIP3    H170171   5.334   6.195  -0.027  1.1569  0.6669  0.6374
16252TIP3    H270172   5.289   6.226   0.114 -0.9794  0.9506 -0.0715
16253TIP3   OH270173   3.001   4.692   4.817  0.1804  0.3569 -0.1364
16253TIP3    H170174   3.085   4.714   4.775  1.1411  0.0062  1.5324
16253TIP3    H270175   2.966   4.621   4.762  1.3654 -0.0531 -0.4076
16254TIP3   OH270176   0.063   0.754  14.012  0.0195  0.4082  0.1923
16254TIP3    H170177   0.035   0.826  13.957 -0.6473  0.1023  0.1144
16254TIP3    H270178   0.103   0.796  14.088 -2.9175  1.0005  1.5503
16255TIP3   OH270179   0.178   0.989   3.904 -0.1917  0.7439 -0.8100
16255TIP3    H170180   0.165   0.896   3.919  0.2165  0.6711 -0.8794
16255TIP3    H270181   0.198   1.025   3.990  0.6238  0.5926 -0.9255
16256TIP3   OH270182   1.139   3.041   4.247  0.2834 -0.6366  0.2292
16256TIP3    H170183   1.169   2.952   4.266  0.9465 -0.8296 -1.5836
16256TIP3    H270184   1.046   3.039   4.268  0.5633 -1.3242  1.5784
16257TIP3   OH270185   0.382   4.519   0.890 -0.7761 -0.1799  0.4226
16257TIP3    H170186   0.319   4.555   0.828 -0.6396 -0.1703  0.2885
16257TIP3    H270187   0.347   4.433   0.912 -1.5011  0.3207  1.3253
16258TIP3   OH270188   0.253   5.039   4.140 -0.0575 -0.2287  0.3333
16258TIP3    H170189   0.321   4.978   4.167 -0.3983 -0.4584  0.6702
16258TIP3    H270190   0.251   5.032   4.044 -1.7656 -2.5567  0.4777
16259TIP3   OH270191   3.196   2.735   3.287 -0.0967 -0.0565 -0.1106
16259TIP3    H170192   3.118   2.791   3.289  0.1463  0.2601  0.5202
16259TIP3    H270193   3.261   2.781   3.340  0.6412 -0.1468 -0.9121
16260TIP3   OH270194   1.391   5.910  11.390 -0.9363  0.1161  0.4885
16260TIP3    H170195   1.389   5.973  11.462  0.8723  0.2765  0.4312
16260TIP3    H270196   1.387   5.825  11.433  1.0394  0.1868  0.8786
16261TIP3   OH270197   2.244   2.533   0.296 -0.5688 -0.1894 -0.5019
16261TIP3    H170198   2.176   2.498   0.353 -0.0976 -0.7622 -0.2797
16261TIP3    H270199   2.205   2.533   0.209 -1.6213  1.5592 -0.0734
16262TIP3   OH270200   1.684   4.802  13.538 -0.0836  0.7963 -0.3028
16262TIP3    H170201   1.684   4.862  13.464  1.0181 -0.1075 -1.0733
16262TIP3    H270202   1.699   4.857  13.615  0.0451  1.5975 -0.8979
16263TIP3   OH270203   2.439   0.333   2.819 -0.6567  1.0640 -0.1427
16263TIP3    H170204   2.381   0.310   2.747  0.1365 -0.0284 -0.4637
16263TIP3    H270205   2.420   0.270   2.888 -0.3762  1.1717  0.0400
16264TIP3   OH270206   2.098   5.552   4.614 -0.0137 -0.1464 -0.4134
16264TIP3    H170207   2.187   5.558   4.649  0.2702  0.2748 -1.1882
16264TIP3    H270208   2.055   5.487   4.670  0.1537  1.1459  1.2844
16265TIP3   OH270209   2.165   2.050   3.389 -0.1320  0.2230  0.1663
16265TIP3    H170210   2.225   2.115   3.427 -0.1260  0.3674 -0.0870
16265TIP3    H270211   2.089   2.051   3.447 -0.7967  1.5845 -0.6865
16266TIP3   OH270212   5.724   0.597   2.639  0.8639  0.1328 -0.2851
16266TIP3    H170213   5.636   0.561   2.630  0.6091  0.5823  0.3717
16266TIP3    H270214   5.732   0.659   2.566  0.9190 -0.4658 -0.7948
16267TIP3   OH270215   2.886   2.414   2.900 -0.3331 -0.4873 -0.2122
16267TIP3    H170216   2.904   2.467   2.822 -0.1107 -0.4078 -0.1090
16267TIP3    H270217   2.871   2.478   2.970  1.2134 -0.5284  0.2074
16268TIP3   OH270218   6.228   4.945  16.301  0.5451  0.0294 -0.0942
16268TIP3    H170219   6.207   4.952  16.394  0.2645 -0.2045 -0.1371
16268TIP3    H270220   6.143   4.930  16.259  0.8587 -1.7273 -0.1927
16269TIP3   OH270221   1.627   0.634  16.057  0.3793  0.3288 -0.3446
16269TIP3    H170222   1.595   0.712  16.013 -2.3385 -0.9042 -0.7464
16269TIP3    H270223   1.666   0.666  16.139  0.7116  2.1772 -1.1990
16270TIP3   OH270224   3.472   4.366   2.770 -0.5704 -0.0786  0.7438
16270TIP3    H170225   3.523   4.294   2.732 -1.4040 -0.6968  0.7660
16270TIP3    H270226   3.381   4.340   2.757 -0.9226  1.5035 -0.2718
16271TIP3   OH270227   3.617   5.863   3.271 -0.1063  0.3456  0.0362
16271TIP3    H170228   3.544   5.924   3.258 -0.4615  0.1968  1.1773
16271TIP3    H270229   3.581   5.777   3.248 -0.5979  0.1434  1.4620
16272TIP3   OH270230   3.120   4.671   3.192 -0.7082 -0.1443 -0.3325
16272TIP3    H170231   3.100   4.747   3.138 -0.9784 -0.9009 -1.3412
16272TIP3    H270232   3.065   4.601   3.156 -0.9400 -0.6670  0.9694
16273TIP3   OH270233   4.880   4.377   5.233 -0.2597  0.3794 -0.1210
16273TIP3    H170234   4.834   4.332   5.305  2.5300  0.8117  2.1047
16273TIP3    H270235   4.869   4.470   5.253  2.3741  0.4962  1.1253
16274TIP3   OH270236   5.482   2.715   4.200  0.6313  0.0413 -0.0883
16274TIP3    H170237   5.482   2.670   4.115  1.0246 -0.9001  0.3945
16274TIP3    H270238   5.573   2.714   4.227  0.2209 -1.9984  1.5078
16275TIP3   OH270239   2.708   2.670  12.293  0.1464 -0.4280 -0.0976
16275TIP3    H170240   2.751   2.658  12.208 -1.0824 -0.5286 -0.7362
16275TIP3    H270241   2.632   2.725  12.274 -0.4031 -0.8294  0.8479
16276TIP3   OH270242   1.182   6.157  12.023  0.4827 -0.1217  0.1627
16276TIP3    H170243   1.210   6.154  11.931 -1.8084 -1.4151 -0.5878
16276TIP3    H270244   1.096   6.200  12.020  0.9262  0.9536  1.9008
16277TIP3   OH270245   2.726   2.725   4.133  0.2888  0.1206  0.0164
16277TIP3    H170246   2.770   2.806   4.157  1.2170 -0.1915 -0.5897
16277TIP3    H270247   2.715   2.678   4.215  1.0014  0.2497  0.1939
16278TIP3   OH270248   3.349   1.314   5.700  0.2617 -0.0742 -0.1178
16278TIP3    H170249   3.440   1.341   5.709  0.1330  0.7766 -1.1731
16278TIP3    H270250   3.353   1.221   5.678  0.9178  0.1551 -1.0022
16279TIP3   OH270251   0.818   4.842  11.915  0.6447 -0.2294 -0.6988
16279TIP3    H170252   0.885   4.873  11.854  1.2580  2.6463  1.1923
16279TIP3    H270253   0.738   4.839  11.863  1.8075 -1.8552 -2.5437
16280TIP3   OH270254   4.379   1.028   5.430 -0.0806 -0.0823  0.3849
16280TIP3    H170255   4.400   1.036   5.523 -1.4516 -0.6707  0.7798
16280TIP3    H270256   4.283   1.032   5.428 -0.1413 -1.4430 -0.8492
16281TIP3   OH270257   2.750   4.410   4.443 -0.1760  0.2636 -0.0018
16281TIP3    H170258   2.728   4.501   4.425  1.3979  0.2130 -2.8290
16281TIP3    H270259   2.688   4.360   4.390  0.6176 -0.1790 -0.5333
16282TIP3   OH270260   4.947   3.778   3.544 -0.4705  1.2166  0.4660
16282TIP3    H170261   4.923   3.792   3.636 -2.5234  1.2363 -0.0350
16282TIP3    H270262   4.885   3.832   3.495  0.3834  0.9325 -0.9618
16283TIP3   OH270263   0.171   0.670   3.170  0.3078 -0.1169 -0.8657
16283TIP3    H170264   0.126   0.587   3.184  0.9172 -0.6465 -1.9237
16283TIP3    H270265   0.225   0.682   3.249 -0.5906 -0.1792 -0.2283
16284TIP3   OH270266   3.782   1.504  15.031  0.8750  0.0301 -0.1166
16284TIP3    H170267   3.802   1.441  14.961  0.4416 -0.5618  0.2773
16284TIP3    H270268   3.867   1.525  15.069  0.8753 -2.3743  1.4622
16285TIP3   OH270269   4.537   3.043   4.748  0.4684 -0.4392  0.1897
16285TIP3    H170270   4.503   3.121   4.705  0.8252 -0.2390  0.2642
16285TIP3    H270271   4.618   3.022   4.701  1.6624  0.6514  1.6614
16286TIP3   OH270272   5.254   3.669   0.409  0.0802 -0.1016 -0.3972
16286TIP3    H170273   5.198   3.593   0.425  0.8982 -0.5880  0.1902
16286TIP3    H270274   5.326   3.635   0.356  0.0759  0.4233 -0.7498
16287TIP3   OH270275   4.381   2.785  13.427 -0.0882 -0.2906 -0.1125
16287TIP3    H170276   4.312   2.745  13.374 -0.8587  0.0325  0.6311
16287TIP3    H270277   4.341   2.862  13.466 -0.1875 -1.5798  2.5240
16288TIP3   OH270278   6.711   4.141   5.593  0.0537 -0.2687  0.0253
16288TIP3    H170279   6.726   4.050   5.616  1.1081 -1.0222 -3.0789
16288TIP3    H270280   6.617   4.147   5.577 -0.0542 -0.7468  0.4598
16289TIP3   OH270281   3.748   2.734  16.322  0.6299  0.3546 -0.7902
16289TIP3    H170282   3.813   2.667  16.345  2.0096  1.7778 -0.3440
16289TIP3    H270283   3.770   2.757  16.232 -0.4287 -0.3957 -1.2629
16290TIP3   OH270284   4.990   3.838   2.451 -0.4099 -0.7551  0.0039
16290TIP3    H170285   5.009   3.801   2.365  0.2053 -1.4225  0.4153
16290TIP3    H270286   5.072   3.880   2.477 -0.5051 -0.7975  0.3774
16291TIP3   OH270287   1.968   3.135   2.811  0.8252  0.1190  0.4672
16291TIP3    H170288   2.051   3.163   2.775  0.4090 -0.7943 -1.2964
16291TIP3    H270289   1.943   3.059   2.759 -0.1807 -0.8389  2.2337
16292TIP3   OH270290   3.869   5.547   0.388 -0.2489  0.3685  0.1103
16292TIP3    H170291   3.813   5.535   0.465  0.7438  3.4833  1.4801
16292TIP3    H270292   3.887   5.641   0.386  2.8451 -0.1327 -1.7656
16293TIP3   OH270293   6.084   0.481  12.147 -0.0148 -0.1029 -0.4540
16293TIP3    H170294   6.157   0.431  12.182 -0.2115  0.1463  0.3379
16293TIP3    H270295   6.018   0.415  12.126 -0.3377 -0.1910  0.7445
16294TIP3   OH270296   2.210   6.348   1.666 -0.0080  0.3066 -0.0367
16294TIP3    H170297   2.231   6.396   1.745 -0.6167  1.1700 -0.3860
16294TIP3    H270298   2.220   6.256   1.690  0.8674  0.5925  0.7243
16295TIP3   OH270299   1.464   3.092   2.714  0.0323 -0.3202 -0.4860
16295TIP3    H170300   1.422   3.115   2.797  0.8810  0.8163 -0.3468
16295TIP3    H270301   1.393   3.055   2.661 -0.7129 -0.2330  0.4235
16296TIP3   OH270302   3.500   0.855   5.524 -0.2408  0.1968 -0.1407
16296TIP3    H170303   3.534   0.861   5.613 -0.8282  0.2436  0.0851
16296TIP3    H270304   3.569   0.810   5.475 -0.4938 -1.1110  0.6517
16297TIP3   OH270305   4.652   0.448   2.632  0.2138  0.3903  0.6467
16297TIP3    H170306   4.595   0.403   2.569 -0.4899  1.9195  0.1521
16297TIP3    H270307   4.733   0.465   2.584 -0.1883  1.2321  0.2505
16298TIP3   OH270308   3.943   2.942   2.116  0.1678 -0.3184 -0.3560
16298TIP3    H170309   4.000   2.893   2.057 -0.3839 -0.9989 -0.3360
16298TIP3    H270310   3.854   2.914   2.093 -0.0626 -0.5146  0.7101
16299TIP3   OH270311   0.731   3.679  10.932 -0.3747  0.2316  0.5638
16299TIP3    H170312   0.770   3.693  10.845  1.7901 -0.4387  1.3564
16299TIP3    H270313   0.668   3.751  10.941  0.7267  1.4525 -0.8052
16300TIP3   OH270314   2.196   2.082   3.754 -0.1871 -0.8257 -0.2199
16300TIP3    H170315   2.163   2.172   3.760 -0.6701 -1.0233  0.1834
16300TIP3    H270316   2.117   2.027   3.761  0.2762 -1.3338  1.5338
16301TIP3   OH270317   2.960   5.788   1.948 -0.2929  0.4993  0.8234
16301TIP3    H170318   2.976   5.730   2.023 -0.8350 -2.0363 -0.9057
16301TIP3    H270319   2.868   5.776   1.928  0.2132 -0.1885 -1.2574
16302TIP3   OH270320   6.271   3.624   4.948 -0.7430 -0.1568 -0.3788
16302TIP3    H170321   6.190   3.659   4.985 -1.0335 -1.3808  0.1973
16302TIP3    H270322   6.275   3.661   4.860 -0.2298  2.5587  0.6833
16303TIP3   OH270323   6.676   4.131  11.122 -0.1866  0.1893 -0.0274
16303TIP3    H170324   6.723   4.106  11.042  1.4138  0.0174  0.9424
16303TIP3    H270325   6.744   4.149  11.186 -1.4194  1.4016  1.0092
16304TIP3   OH270326   1.221   2.092  14.051 -0.1139  0.6069  0.2059
16304TIP3    H170327   1.185   2.104  14.139  0.3088 -1.1309  0.6461
16304TIP3    H270328   1.163   2.142  13.994 -0.6767  1.3673  1.4072
16305TIP3   OH270329   6.235   4.923   1.341 -0.3977  0.4481  0.2405
16305TIP3    H170330   6.256   4.993   1.403  0.5559  0.0452  0.3908
16305TIP3    H270331   6.281   4.947   1.261 -1.4050  0.8266 -0.2384
16306TIP3   OH270332   4.138   2.256   6.446 -0.3156  0.2598 -0.6093
16306TIP3    H170333   4.058   2.292   6.485  0.5852  0.8999  0.7332
16306TIP3    H270334   4.168   2.324   6.386 -0.4944  0.2510 -0.7084
16307TIP3   OH270335   6.322   2.701   1.733 -0.2610 -0.1944 -0.1043
16307TIP3    H170336   6.332   2.609   1.708  0.2306 -0.0752 -0.3618
16307TIP3    H270337   6.278   2.698   1.818 -0.3519 -0.6637 -0.1641
16308TIP3   OH270338   1.735   0.724   1.628  0.1355 -0.1359  0.7668
16308TIP3    H170339   1.827   0.740   1.651 -0.0138 -0.0918  1.3483
16308TIP3    H270340   1.703   0.808   1.596  0.5126 -0.3465 -0.2058
16309TIP3   OH270341   3.584   1.698  11.334 -0.1337  0.1724 -0.0008
16309TIP3    H170342   3.572   1.787  11.369  1.9908  0.6395 -0.3202
16309TIP3    H270343   3.644   1.656  11.396 -1.0967 -1.0640  0.1361
16310TIP3   OH270344   6.755   4.849   1.395 -0.5108  0.5801 -0.5912
16310TIP3    H170345   6.713   4.771   1.359  1.4773  0.0244 -1.8184
16310TIP3    H270346   6.682   4.902   1.429 -1.9952 -1.2326 -0.8221
16311TIP3   OH270347   6.196   6.540   4.316 -0.7656 -0.2446  0.1464
16311TIP3    H170348   6.230   6.578   4.235 -0.5682  0.2256  0.4451
16311TIP3    H270349   6.249   6.580   4.385  0.5988 -2.2921  0.3724
16312TIP3   OH270350   3.362   6.728  12.190  0.2559 -0.2336  0.4288
16312TIP3    H170351   3.395   6.640  12.205 -0.2348 -1.0450 -2.5418
16312TIP3    H270352   3.438   6.776  12.155 -0.3350 -0.6142 -1.4852
16313TIP3   OH270353   3.389   1.198   4.563 -0.5892 -0.2058 -0.1813
16313TIP3    H170354   3.407   1.104   4.567 -1.7066 -0.5122 -1.5004
16313TIP3    H270355   3.309   1.205   4.511 -0.3260  1.5087 -0.4224
16314TIP3   OH270356   4.987   5.179   5.546 -0.2792  0.0002  0.4466
16314TIP3    H170357   5.046   5.173   5.471  0.0605  0.3499  0.6787
16314TIP3    H270358   4.901   5.196   5.508  0.0562  1.1837  0.1620
16315TIP3   OH270359   2.822   3.818   2.986  1.0238 -0.1416  0.4046
16315TIP3    H170360   2.785   3.767   3.058  0.5555  1.5778  1.4377
16315TIP3    H270361   2.863   3.893   3.029  0.6368  0.9782 -1.1283
16316TIP3   OH270362   3.913   0.706   5.488 -0.1121 -0.1867 -0.0355
16316TIP3    H170363   3.986   0.653   5.458  1.2622  1.0671  0.9834
16316TIP3    H270364   3.846   0.642   5.514  0.9347 -1.3700 -0.1745
16317TIP3   OH270365   2.942   6.455  12.875  0.0126 -0.5467 -0.1113
16317TIP3    H170366   3.035   6.445  12.896  0.3325  2.6034  0.5469
16317TIP3    H270367   2.942   6.511  12.797 -1.2943  0.9069  0.8720
16318TIP3   OH270368   0.740   0.820   0.203  0.2508 -0.8003  0.0587
16318TIP3    H170369   0.776   0.866   0.127 -0.2417  0.6746  0.6641
16318TIP3    H270370   0.708   0.737   0.168 -1.0300  0.3133 -1.5990
16319TIP3   OH270371   4.497   6.203   4.514 -0.2487  0.0467 -0.0294
16319TIP3    H170372   4.516   6.231   4.604  0.2383  0.3017 -0.2112
16319TIP3    H270373   4.517   6.279   4.460 -0.9431  0.0260 -0.3147
16320TIP3   OH270374   3.540   6.641  10.813 -0.0344 -0.2412  0.1260
16320TIP3    H170375   3.566   6.613  10.725  0.9645  0.2017  0.2736
16320TIP3    H270376   3.453   6.680  10.800  0.2345  0.0964 -0.7229
16321TIP3   OH270377   4.580   4.125   3.288  0.3695 -0.2835 -0.1673
16321TIP3    H170378   4.576   4.126   3.192  1.7063 -0.0048 -0.2433
16321TIP3    H270379   4.499   4.169   3.316  1.1443  1.9909 -1.2316
16322TIP3   OH270380   1.921   0.847   3.166  0.1003 -0.7250  0.2845
16322TIP3    H170381   1.838   0.854   3.213 -1.0353 -1.0639 -1.5632
16322TIP3    H270382   1.920   0.760   3.127 -0.2539  0.3865 -2.4396
16323TIP3   OH270383   4.713   2.320  15.766  0.1816  0.5947  0.0073
16323TIP3    H170384   4.643   2.264  15.799  0.5519 -0.2845 -0.6324
16323TIP3    H270385   4.778   2.322  15.836  1.2168 -1.7049 -0.7747
16324TIP3   OH270386   6.392   0.542  13.008 -0.5819  0.7233 -0.4129
16324TIP3    H170387   6.368   0.635  13.009 -0.9147  0.7080 -2.6913
16324TIP3    H270388   6.484   0.542  12.982 -0.1539  0.4335  0.9977
16325TIP3   OH270389   6.444   0.600   5.888 -0.3543  0.5193  0.3856
16325TIP3    H170390   6.514   0.647   5.844  0.1919  0.1524  0.8458
16325TIP3    H270391   6.474   0.593   5.979 -0.4483 -0.6496  0.3386
16326TIP3   OH270392   5.121   0.791  16.271  0.5818 -0.1928 -0.3675
16326TIP3    H170393   5.160   0.710  16.304 -0.0416 -0.5195 -0.4308
16326TIP3    H270394   5.027   0.773  16.268  0.4755  0.4142 -0.7160
16327TIP3   OH270395   0.132   5.229  13.868  0.4165 -0.5252  0.6072
16327TIP3    H170396   0.210   5.250  13.816  0.5017 -1.8843  0.1593
16327TIP3    H270397   0.082   5.311  13.870  2.6664  0.9463  2.4155
16328TIP3   OH270398   3.561   2.858  14.556 -0.1598  0.1087  0.2934
16328TIP3    H170399   3.636   2.844  14.614  0.5572  0.8042 -0.4443
16328TIP3    H270400   3.487   2.870  14.615  0.7067  1.7364  1.1081
16329TIP3   OH270401   3.271   6.513   2.223  0.5089  0.0769 -0.2794
16329TIP3    H170402   3.179   6.488   2.236  0.2481  1.1482  0.0511
16329TIP3    H270403   3.318   6.469   2.294 -0.1685  1.7024  1.2591
16330TIP3   OH270404   2.947   1.136  14.528  0.5333 -0.4078 -0.4198
16330TIP3    H170405   2.912   1.120  14.440 -0.1846 -1.8219  0.1008
16330TIP3    H270406   2.870   1.160  14.580  0.9878  0.6538 -0.2077
16331TIP3   OH270407   4.189   6.751   0.419 -0.1741 -0.8776 -0.6715
16331TIP3    H170408   4.281   6.726   0.407 -0.2321 -1.0238 -0.8111
16331TIP3    H270409   4.190   6.807   0.497  0.0206 -0.9505 -0.6202
16332TIP3   OH270410   6.748   2.485   5.994  0.5335  0.3908 -0.2659
16332TIP3    H170411   6.666   2.503   5.947  0.9954  0.3594 -1.0851
16332TIP3    H270412   6.726   2.503   6.086 -0.3916  0.3948 -0.4723
16333TIP3   OH270413   4.809   6.646   4.102  0.1065 -0.8595 -0.7306
16333TIP3    H170414   4.862   6.703   4.158 -0.8483 -2.3766  1.9120
16333TIP3    H270415   4.871   6.610   4.038  1.6472 -0.3583  0.4298
16334TIP3   OH270416   4.774   3.363  13.900  0.1857 -0.5747  0.4760
16334TIP3    H170417   4.853   3.371  13.953 -1.1443 -0.9439  2.6520
16334TIP3    H270418   4.764   3.448  13.857  1.4541 -0.3548  0.5872
16335TIP3   OH270419   3.069   4.082  13.388  0.6365 -0.7893 -0.4183
16335TIP3    H170420   2.979   4.100  13.416  1.1520 -0.6247  1.2641
16335TIP3    H270421   3.091   3.999  13.432  2.0615  0.3515  1.1453
16336TIP3   OH270422   1.013   3.319   5.415  0.1390  0.4949  0.5170
16336TIP3    H170423   1.070   3.272   5.476  0.9396  0.0910 -0.5081
16336TIP3    H270424   0.924   3.296   5.442  0.4425  0.9836  2.0297
16337TIP3   OH270425   3.486   6.616   5.567 -0.5478  0.0591  0.1014
16337TIP3    H170426   3.403   6.628   5.613  0.1870  0.9825  1.2478
16337TIP3    H270427   3.527   6.703   5.567  0.7856 -0.5406  0.2978
16338TIP3   OH270428   4.799   2.320   3.693 -0.0563 -0.3549  0.2576
16338TIP3    H170429   4.875   2.263   3.682 -0.2165 -0.6165  0.4956
16338TIP3    H270430   4.801   2.378   3.617  0.2700 -0.4892  0.1623
16339TIP3   OH270431   4.692   1.642  13.820 -0.4101 -0.2917 -0.0359
16339TIP3    H170432   4.670   1.566  13.767 -0.1193 -0.6861  0.3938
16339TIP3    H270433   4.738   1.605  13.896  2.0903  0.5068 -1.0826
16340TIP3   OH270434   0.807   2.938   3.540  0.2537  0.3160 -0.4967
16340TIP3    H170435   0.869   2.951   3.612  0.4822  0.1742 -0.6691
16340TIP3    H270436   0.820   2.848   3.513 -0.0528  0.2735 -0.5133
16341TIP3   OH270437   6.652   3.364   2.251 -0.5783  0.3223 -0.1080
16341TIP3    H170438   6.584   3.357   2.318  0.4505 -0.0836  0.9394
16341TIP3    H270439   6.667   3.458   2.241 -1.7016  0.4470 -0.8120
16342TIP3   OH270440   0.444   2.557  14.350 -0.2831  0.1957 -0.6148
16342TIP3    H170441   0.422   2.643  14.313 -0.2406  0.1092 -0.8451
16342TIP3    H270442   0.376   2.500  14.315 -0.5345  0.2098 -0.1523
16343TIP3   OH270443   6.661   5.359   2.908 -0.1658 -0.2677 -0.4051
16343TIP3    H170444   6.668   5.401   2.994 -1.1085  2.4212 -1.5353
16343TIP3    H270445   6.734   5.395   2.858 -1.9510  1.4783 -1.9211
16344TIP3   OH270446   0.916   2.354   1.945  0.0597  0.3169 -0.2514
16344TIP3    H170447   0.913   2.404   1.863  1.9758  2.8288  1.0563
16344TIP3    H270448   0.988   2.395   1.994  0.5131 -2.6174  1.7416
16345TIP3   OH270449   5.195   1.180   1.994  0.4722 -0.0787 -0.9636
16345TIP3    H170450   5.132   1.252   1.989  0.9509  0.5438  0.9208
16345TIP3    H270451   5.141   1.101   1.995 -0.1309  0.3145 -1.8047
16346TIP3   OH270452   1.160   1.522   0.249 -0.4518 -0.2179  0.2939
16346TIP3    H170453   1.238   1.479   0.212 -0.4970 -1.0984  1.1846
16346TIP3    H270454   1.192   1.569   0.325 -1.0639 -2.3591  1.9854
16347TIP3   OH270455   4.805   0.205   3.177 -0.0347  0.3885 -0.5023
16347TIP3    H170456   4.802   0.301   3.172  0.8545  0.5361  1.0759
16347TIP3    H270457   4.775   0.186   3.266  0.4905 -0.7638 -0.5644
16348TIP3   OH270458   0.942   3.305   4.967 -0.2905  0.2542  0.0431
16348TIP3    H170459   0.920   3.368   4.898 -1.5345  0.2869  0.4474
16348TIP3    H270460   1.021   3.341   5.007  0.1090  0.5513 -0.9684
16349TIP3   OH270461   0.840   4.283   2.122  0.8545 -0.0566  0.1318
16349TIP3    H170462   0.928   4.259   2.152  1.7755  2.2716 -0.4638
16349TIP3    H270463   0.842   4.266   2.028  0.6115 -0.1479  0.1437
16350TIP3   OH270464   3.672   1.544   5.934  0.0993 -0.1734  0.0917
16350TIP3    H170465   3.701   1.636   5.937 -1.7331  0.4648 -0.6071
16350TIP3    H270466   3.610   1.537   6.007 -0.8461 -0.4549 -0.7307
16351TIP3   OH270467   1.045   5.421  12.642 -0.7468  0.2946  0.0071
16351TIP3    H170468   1.006   5.491  12.694  0.3372  0.8526  0.1211
16351TIP3    H270469   1.068   5.353  12.705  2.0534  1.6492  0.5951
16352TIP3   OH270470   0.071   4.183  11.270 -0.1359 -0.0820  0.2130
16352TIP3    H170471   0.096   4.265  11.228 -1.5440 -0.3487 -1.2309
16352TIP3    H270472   0.027   4.209  11.351  0.4222  0.5310  0.3265
16353TIP3   OH270473   0.846   4.338  11.751  0.1121 -0.2414  0.0011
16353TIP3    H170474   0.835   4.404  11.819 -0.5167 -0.9410  0.5834
16353TIP3    H270475   0.916   4.281  11.783  0.7215  0.1804 -0.5458
16354TIP3   OH270476   2.443   6.293  14.857  0.3765 -0.5130 -0.1093
16354TIP3    H170477   2.366   6.284  14.914  0.3210  0.2030 -0.0619
16354TIP3    H270478   2.448   6.387  14.839 -0.7031 -0.8875 -2.8064
16355TIP3   OH270479   5.485   1.291   4.031  0.0452  0.1031  0.1213
16355TIP3    H170480   5.539   1.363   3.997  1.2612  0.4403  2.5312
16355TIP3    H270481   5.547   1.232   4.073 -1.1259 -1.4964 -0.3006
16356TIP3   OH270482   0.428   2.708   1.986 -0.5885 -0.3394 -0.6467
16356TIP3    H170483   0.360   2.643   1.972 -0.7518 -0.1285 -0.8522
16356TIP3    H270484   0.477   2.677   2.062 -0.7817 -0.6022 -0.6307
16357TIP3   OH270485   6.542   2.646   2.428  0.1832 -0.1773 -0.1680
16357TIP3    H170486   6.498   2.670   2.346 -0.2790  3.0123  0.8766
16357TIP3    H270487   6.470   2.620   2.486  0.2406 -0.0375 -0.0346
16358TIP3   OH270488   6.714   0.923   0.605  0.3630 -0.3021  0.1483
16358TIP3    H170489   6.671   0.879   0.532 -0.1238  0.9435 -0.3529
16358TIP3    H270490   6.661   1.001   0.620  2.0541  0.9413 -0.0376
16359TIP3   OH270491   4.304   1.876  16.729 -0.3889 -0.3684  0.0972
16359TIP3    H170492   4.386   1.888  16.777  0.2608 -0.1475 -1.0129
16359TIP3    H270493   4.318   1.923  16.647 -1.3830 -0.8842 -0.3829
16360TIP3   OH270494   0.284   3.921   4.373  0.1360 -0.4729  0.0193
16360TIP3    H170495   0.363   3.880   4.338 -0.4397  0.2394 -2.2570
16360TIP3    H270496   0.279   4.005   4.328 -1.2788  0.0340  1.0582
16361TIP3   OH270497   3.499   0.062   4.892  0.1816 -0.0880  0.2608
16361TIP3    H170498   3.409   0.091   4.880  0.6379  2.0240  1.3378
16361TIP3    H270499   3.493  -0.014   4.949 -0.9024  0.1242  0.4474
16362TIP3   OH270500   5.165   1.407   1.807 -0.4020 -0.2876  0.4696
16362TIP3    H170501   5.231   1.397   1.876  0.4275  1.1009 -0.0663
16362TIP3    H270502   5.138   1.499   1.814 -0.0810 -0.0296 -1.2036
16363TIP3   OH270503   3.685   5.355  13.491  0.1276  0.3283  0.0658
16363TIP3    H170504   3.688   5.261  13.474  0.5983  0.2958  0.3142
16363TIP3    H270505   3.617   5.388  13.433  0.9375  0.0465 -1.0785
16364TIP3   OH270506   0.267   2.252  17.070  0.3362 -0.1702  0.0630
16364TIP3    H170507   0.239   2.260  16.979 -1.8888  0.1847  0.7222
16364TIP3    H270508   0.254   2.160  17.092  0.1721 -0.1078  0.2297
16365TIP3   OH270509   3.285   5.963  14.955 -0.0598 -0.5325  0.7755
16365TIP3    H170510   3.248   5.892  14.901 -2.5047 -1.5318  3.4775
16365TIP3    H270511   3.380   5.950  14.950 -0.2116 -1.2499 -2.2317
16366TIP3   OH270512   4.848   5.218  11.540 -0.2532  0.0755 -0.1976
16366TIP3    H170513   4.855   5.249  11.450 -1.1109 -1.3441 -0.7857
16366TIP3    H270514   4.914   5.148  11.546  0.6779  0.9883  0.6778
16367TIP3   OH270515   2.801   0.720  11.881 -0.6808 -0.2801 -0.3052
16367TIP3    H170516   2.823   0.795  11.935  4.2157 -0.7491 -1.1757
16367TIP3    H270517   2.818   0.749  11.791 -4.0216 -0.9560 -1.3007
16368TIP3   OH270518   5.303   3.803  13.897 -0.2841  0.0591  0.2608
16368TIP3    H170519   5.361   3.871  13.933 -0.0185 -0.3196  0.5691
16368TIP3    H270520   5.290   3.742  13.970 -0.7930 -0.0439  0.0884
16369TIP3   OH270521   1.762   0.837  16.986  0.1846 -0.1050 -0.1677
16369TIP3    H170522   1.746   0.751  16.946 -1.2145  0.1873 -0.3112
16369TIP3    H270523   1.688   0.891  16.956 -1.0733  0.1007  2.8964
16370TIP3   OH270524   2.535   0.107  11.199  0.2264 -0.3119  0.4608
16370TIP3    H170525   2.442   0.086  11.189  0.3159  0.3151 -2.6454
16370TIP3    H270526   2.539   0.167  11.273 -1.5541 -1.8722  1.8928
16371TIP3   OH270527   1.441   3.881  16.888  0.0915  0.2054 -0.2165
16371TIP3    H170528   1.369   3.822  16.863 -0.3444  0.6153  0.0456
16371TIP3    H270529   1.401   3.968  16.888  0.1600  0.2725  1.5737
16372TIP3   OH270530   3.880   4.451   0.069  0.8136 -0.1115  0.4143
16372TIP3    H170531   3.878   4.433  -0.025 -0.9897  1.3383  0.1119
16372TIP3    H270532   3.795   4.422   0.101  0.7091  1.0244  1.2373
16373TIP3   OH270533   1.563   2.638   2.060  0.3475 -0.1775  0.3746
16373TIP3    H170534   1.641   2.676   2.020  0.1069 -1.0312 -0.9396
16373TIP3    H270535   1.507   2.615   1.987 -1.1206  0.3333  1.2980
16374TIP3   OH270536   0.196   4.446   0.575 -0.2013  0.1088  0.1149
16374TIP3    H170537   0.173   4.412   0.661  0.1002 -1.4740 -0.3989
16374TIP3    H270538   0.217   4.538   0.590  3.0578 -0.8296  2.3508
16375TIP3   OH270539   5.170   0.672   1.131  0.5729  0.3708 -0.9024
16375TIP3    H170540   5.247   0.729   1.127  0.1052  1.0878  0.0201
16375TIP3    H270541   5.102   0.721   1.085  0.1636  0.5750 -0.0926
16376TIP3   OH270542   4.896   6.776  11.248  0.4095  0.3963  0.6471
16376TIP3    H170543   4.835   6.709  11.216 -0.3619  0.4904  1.8540
16376TIP3    H270544   4.870   6.855  11.201 -1.7958  0.9277  2.5710
16377TIP3   OH270545   5.925   1.988   2.861  0.2211  0.3371 -0.1139
16377TIP3    H170546   6.001   2.014   2.810  1.7354 -1.2613  1.1874
16377TIP3    H270547   5.942   1.896   2.884 -3.1601 -0.8145 -1.6229
16378TIP3   OH270548   4.067   0.632   0.463 -0.0822 -0.6866  0.2943
16378TIP3    H170549   4.021   0.624   0.546 -1.3930  1.5139 -0.1437
16378TIP3    H270550   4.107   0.546   0.449 -0.4412 -1.3382  2.8057
16379TIP3   OH270551   3.296   6.159  15.154 -0.4269  0.2781 -0.6497
16379TIP3    H170552   3.236   6.232  15.135 -0.1388  0.7661  0.2704
16379TIP3    H270553   3.266   6.088  15.096 -1.0413  0.9511 -1.1791
16380TIP3   OH270554   3.946   5.399  15.743  0.2969  0.2840  0.3347
16380TIP3    H170555   4.023   5.409  15.799 -0.9078 -0.0025  2.1071
16380TIP3    H270556   3.899   5.482  15.751 -0.5920 -0.2505  0.8874
16381TIP3   OH270557   0.069   6.029   1.241  0.7555  0.3738  0.0352
16381TIP3    H170558   0.084   5.973   1.165  0.8568  0.0508  0.2919
16381TIP3    H270559   0.021   6.104   1.206 -1.5376 -0.9652  0.0444
16382TIP3   OH270560   0.652   2.825  15.074 -0.4792  0.1105 -0.0033
16382TIP3    H170561   0.664   2.905  15.125 -1.9861  0.6775 -0.4779
16382TIP3    H270562   0.577   2.844  15.017 -1.1978 -1.8227  0.2242
16383TIP3   OH270563   3.756   3.563   5.317  0.0742  0.0198  0.1381
16383TIP3    H170564   3.844   3.592   5.293  0.9423 -2.1939  0.3788
16383TIP3    H270565   3.698   3.628   5.278  1.7737  1.0637 -0.7951
16384TIP3   OH270566   6.068   6.796  15.957  0.6775 -0.0398  0.2928
16384TIP3    H170567   6.111   6.712  15.972  0.1267 -0.6003 -1.1284
16384TIP3    H270568   6.136   6.852  15.919  0.7425 -0.2068  0.1649
16385TIP3   OH270569   0.434   4.098   0.471 -0.2831  0.6306  0.5945
16385TIP3    H170570   0.366   4.081   0.536 -1.3494  2.0060 -0.0997
16385TIP3    H270571   0.432   4.193   0.459 -0.4964  0.3972 -1.7929
16386TIP3   OH270572   5.978   0.972   1.178  0.0200 -0.4330 -0.3058
16386TIP3    H170573   5.910   1.037   1.158 -0.1063 -0.3370  0.4238
16386TIP3    H270574   6.060   1.014   1.152 -0.1429 -0.3406 -0.6835
16387TIP3   OH270575   6.779   6.544  15.532  0.1603 -0.3600  0.2171
16387TIP3    H170576   6.817   6.614  15.584  0.1471  0.9709 -1.4713
16387TIP3    H270577   6.708   6.509  15.586  0.2793  0.8015  1.1555
16388TIP3   OH270578   5.274   1.362   5.934 -0.1156  0.8447 -0.0355
16388TIP3    H170579   5.347   1.320   5.887 -0.3638  0.5191 -0.1326
16388TIP3    H270580   5.283   1.330   6.024 -0.9881 -0.3634 -0.3465
16389TIP3   OH270581   2.559   1.516   1.736  0.5421  0.1218  0.3449
16389TIP3    H170582   2.540   1.609   1.746  1.2343  0.1500  1.7657
16389TIP3    H270583   2.475   1.472   1.747  0.4272  0.5172  1.0810
16390TIP3   OH270584   2.559   5.124  15.087  0.3565 -0.0637  0.5686
16390TIP3    H170585   2.599   5.168  15.012 -1.5037 -1.1949 -1.1942
16390TIP3    H270586   2.623   5.134  15.157  1.0124  3.3993 -0.3230
16391TIP3   OH270587   6.625   1.433   4.113  0.3710  0.5487 -0.3863
16391TIP3    H170588   6.553   1.406   4.056 -0.2200  2.0305 -0.3880
16391TIP3    H270589   6.667   1.351   4.139 -2.2689 -0.5135  0.8831
16392TIP3   OH270590   6.093   4.660  11.048  0.6259  0.4870 -0.1997
16392TIP3    H170591   6.090   4.582  11.104 -0.3281  0.7783  0.1755
16392TIP3    H270592   6.093   4.733  11.110 -2.2599  0.8713 -0.5467
16393TIP3   OH270593   4.586   2.127   1.109  0.2978  0.4014 -0.0907
16393TIP3    H170594   4.672   2.125   1.067  0.1011 -1.0218 -0.4797
16393TIP3    H270595   4.531   2.070   1.054 -0.0646 -1.2485  1.8697
16394TIP3   OH270596   5.194   2.833  13.891  0.2240 -0.1873 -0.0735
16394TIP3    H170597   5.100   2.818  13.880  0.4417 -1.2008 -0.7336
16394TIP3    H270598   5.200   2.915  13.940 -1.0326 -0.8257  1.2307
16395TIP3   OH270599   0.935   0.122   2.119 -0.1810  0.2815 -0.5937
16395TIP3    H170600   0.959   0.056   2.053 -0.8543 -3.4994  2.5234
16395TIP3    H270601   0.842   0.138   2.104 -0.1583  0.0234 -1.0415
16396TIP3   OH270602   1.789   0.811  11.338  0.4765  0.5859  0.7806
16396TIP3    H170603   1.835   0.752  11.398 -0.6307  1.1726  2.2659
16396TIP3    H270604   1.701   0.819  11.375 -0.1114  1.3372 -0.6919
16397TIP3   OH270605   3.253   2.523  12.895 -0.2483 -0.6175 -0.0140
16397TIP3    H170606   3.317   2.590  12.868 -0.8857  1.4701  3.0561
16397TIP3    H270607   3.172   2.572  12.906 -1.5082 -2.5376 -0.3626
16398TIP3   OH270608   5.288   5.763  15.979 -0.5786  0.3611 -0.3519
16398TIP3    H170609   5.374   5.735  16.011  0.6800  1.2670 -2.6332
16398TIP3    H270610   5.279   5.853  16.011 -1.4260 -0.2111  1.1346
16399TIP3   OH270611   5.417   1.551   3.540 -0.1384  0.6187  0.7356
16399TIP3    H170612   5.331   1.534   3.503 -0.2829  0.1851  1.2583
16399TIP3    H270613   5.439   1.471   3.587  0.2282  0.9973  1.2152
16400TIP3   OH270614   4.126   5.832  16.344  0.5767 -0.6911  0.7083
16400TIP3    H170615   4.171   5.916  16.351 -1.6394  0.5052  1.2852
16400TIP3    H270616   4.189   5.775  16.299  1.5643  1.7164 -1.1654
16401TIP3   OH270617   4.304   4.721   2.538  0.4824  0.3137 -0.6049
16401TIP3    H170618   4.275   4.753   2.623 -0.2807  0.2470 -0.8303
16401TIP3    H270619   4.298   4.626   2.545  0.4688  0.3057 -0.7208
16402TIP3   OH270620   6.347   1.172  16.053 -0.6255  0.3404  0.1394
16402TIP3    H170621   6.325   1.262  16.029 -2.2088  0.2759  1.1777
16402TIP3    H270622   6.395   1.180  16.135 -3.5232  0.1941  2.0053
16403TIP3   OH270623   2.398   1.175  11.014 -0.2559 -0.0918 -0.0392
16403TIP3    H170624   2.343   1.253  11.009 -2.2752 -1.3939  0.5754
16403TIP3    H270625   2.441   1.180  11.100  0.3780  0.7820 -0.3963
16404TIP3   OH270626   1.344   4.755   3.086 -0.3679  0.1954 -0.8535
16404TIP3    H170627   1.280   4.822   3.064 -0.6016 -0.0003 -0.7691
16404TIP3    H270628   1.298   4.672   3.073 -0.5049  0.0629  0.3138
16405TIP3   OH270629   3.058   0.320  12.584 -0.0982 -0.1784  0.5793
16405TIP3    H170630   3.006   0.398  12.601  0.8854  0.2368  1.9155
16405TIP3    H270631   3.000   0.262  12.536 -1.0624  1.1176  0.1223
16406TIP3   OH270632   3.294   4.692  15.301 -0.1975 -0.4003  0.0722
16406TIP3    H170633   3.251   4.629  15.244  0.2111  0.4113 -1.1646
16406TIP3    H270634   3.387   4.683  15.281 -0.2583  2.0663 -1.7653
16407TIP3   OH270635   3.955   4.719   4.740 -0.3342 -0.9076  0.1286
16407TIP3    H170636   3.921   4.661   4.671 -0.5205 -1.1169  0.3885
16407TIP3    H270637   3.967   4.661   4.815  0.3293 -0.7758  0.1311
16408TIP3   OH270638   5.353   3.021  10.411 -0.1033 -0.1677 -0.1748
16408TIP3    H170639   5.435   2.974  10.397  0.0880 -0.3755  1.4494
16408TIP3    H270640   5.287   2.967  10.366  0.6816  0.3074 -1.9971
16409TIP3   OH270641   3.476   2.250  16.245 -0.4991  0.0510 -0.2863
16409TIP3    H170642   3.509   2.325  16.294 -0.6130 -0.2680  0.2804
16409TIP3    H270643   3.431   2.197  16.309 -0.7520 -0.3156 -0.7598
16410TIP3   OH270644   3.623   6.448  10.565 -0.2178  0.3617 -0.2039
16410TIP3    H170645   3.674   6.445  10.485 -0.5956  5.1014 -0.8712
16410TIP3    H270646   3.540   6.406  10.542  1.0310 -1.8211 -0.9785
16411TIP3   OH270647   6.171   5.536   0.755  0.2006 -0.2698 -0.1500
16411TIP3    H170648   6.240   5.590   0.716 -0.7382  1.2442  0.2209
16411TIP3    H270649   6.103   5.532   0.688  0.4419 -1.4137 -0.3523
16412TIP3   OH270650   4.295   3.779   5.503  0.3113  0.1249 -0.4331
16412TIP3    H170651   4.309   3.800   5.595  1.2872  0.7998 -0.7195
16412TIP3    H270652   4.245   3.853   5.468 -0.2770 -0.2484 -0.3981
16413TIP3   OH270653   4.266   2.903   5.329  0.0279 -0.2281 -0.3790
16413TIP3    H170654   4.262   2.867   5.418  1.3218 -0.1852 -0.2797
16413TIP3    H270655   4.178   2.891   5.294 -0.9608  1.1657  1.4557
16414TIP3   OH270656   2.319   4.777  14.299  0.0013 -0.0761 -0.1154
16414TIP3    H170657   2.285   4.804  14.384 -1.2107  0.3987 -0.7269
16414TIP3    H270658   2.241   4.761  14.246  0.7340 -0.4238 -1.1225
16415TIP3   OH270659   6.112   2.983  12.031  0.3440 -0.5283 -0.2765
16415TIP3    H170660   6.070   2.910  12.078  0.4372 -0.3340  0.1114
16415TIP3    H270661   6.078   2.976  11.941  0.9000 -1.4797 -0.4222
16416TIP3   OH270662   3.781   6.157  11.166 -0.1812  0.0091 -0.3385
16416TIP3    H170663   3.783   6.155  11.070  1.7195 -1.0052 -0.3404
16416TIP3    H270664   3.842   6.227  11.190  1.4439 -1.4829  0.0873
16417TIP3   OH270665   0.882   4.474  13.337  0.4217  0.8276 -0.3151
16417TIP3    H170666   0.905   4.545  13.397 -2.7333  1.8805 -0.1355
16417TIP3    H270667   0.858   4.519  13.256 -3.4992  0.3895  0.3740
16418TIP3   OH270668   0.690   1.620  13.515  0.1806 -0.0714  0.5087
16418TIP3    H170669   0.703   1.549  13.451  1.6920  0.7013 -0.0893
16418TIP3    H270670   0.720   1.584  13.598 -2.7954 -1.4575  1.1035
16419TIP3   OH270671   4.832   0.611  12.756  0.3168  0.2427  0.0917
16419TIP3    H170672   4.780   0.672  12.705  0.7639 -0.8396 -1.7322
16419TIP3    H270673   4.919   0.650  12.759  0.2467  0.3942  0.2222
16420TIP3   OH270674   2.168   3.207   1.240  0.6094 -0.5916  0.1009
16420TIP3    H170675   2.089   3.256   1.217  0.1754 -1.1678  0.3525
16420TIP3    H270676   2.187   3.155   1.162  0.8853 -0.2649 -0.0501
16421TIP3   OH270677   5.996   4.543   1.694  0.3162  0.5610  0.7708
16421TIP3    H170678   6.007   4.461   1.647  0.0372 -0.4851  2.4484
16421TIP3    H270679   5.967   4.605   1.627 -1.5624 -1.2225 -0.1680
16422TIP3   OH270680   0.994   3.627   1.864 -0.8568  0.4690 -0.1607
16422TIP3    H170681   1.034   3.601   1.781  0.3048  0.4390  0.3839
16422TIP3    H270682   0.933   3.556   1.884  1.3361 -1.3167  0.6630
16423TIP3   OH270683   4.565   6.131   4.011  0.5495 -0.1489 -0.2868
16423TIP3    H170684   4.607   6.046   3.999  1.5086 -0.0036  1.5876
16423TIP3    H270685   4.638   6.193   4.017 -0.0610  0.5539 -0.0031
16424TIP3   OH270686   3.799   5.534   0.663  0.5133  0.1596  0.2732
16424TIP3    H170687   3.790   5.615   0.714 -2.3167 -0.1540  0.4129
16424TIP3    H270688   3.727   5.479   0.692  1.4018 -1.7903 -1.0110
16425TIP3   OH270689   4.895   3.491  11.318  0.2193 -0.3437  0.0810
16425TIP3    H170690   4.811   3.517  11.355 -0.1107  1.5216 -1.7398
16425TIP3    H270691   4.918   3.410  11.363 -2.9293 -1.3603  0.0497
16426TIP3   OH270692   1.608   1.583   2.279 -0.3880 -0.0903  0.0462
16426TIP3    H170693   1.552   1.645   2.234  0.4209  0.3757 -0.3422
16426TIP3    H270694   1.689   1.632   2.297  0.7414 -1.3338 -1.3347
16427TIP3   OH270695   6.539   6.579   4.020  0.1769  0.4855 -0.1157
16427TIP3    H170696   6.620   6.528   4.023  0.7275  1.3959  1.2549
16427TIP3    H270697   6.551   6.640   3.947  0.5944  0.4397 -0.0842
16428TIP3   OH270698   6.062   4.725  13.249 -0.1809  0.1071  0.2434
16428TIP3    H170699   6.143   4.683  13.218 -0.7213 -0.5734 -0.2805
16428TIP3    H270700   6.060   4.705  13.343  0.2147  0.0540  0.2456
16429TIP3   OH270701   5.033   0.951  13.807  0.2223  0.2473  0.3362
16429TIP3    H170702   4.983   1.021  13.765 -1.0563 -1.0115 -0.2953
16429TIP3    H270703   4.973   0.877  13.811  0.9044 -0.2796  2.6942
16430TIP3   OH270704   2.508   0.778   4.476 -0.4745  0.9940 -0.3684
16430TIP3    H170705   2.437   0.842   4.474 -1.0830  0.3784  0.6580
16430TIP3    H270706   2.465   0.695   4.496  0.6437  0.7842  1.3536
16431TIP3   OH270707   5.830   3.543  15.607  0.0723 -0.2876  0.4475
16431TIP3    H170708   5.819   3.636  15.584  0.0959 -0.5598 -0.7123
16431TIP3    H270709   5.925   3.530  15.605  0.1356 -0.1114  1.5942
16432TIP3   OH270710   3.464   5.419   4.373  0.3680 -0.0039 -0.0949
16432TIP3    H170711   3.534   5.354   4.364  0.0967 -0.2600 -0.4146
16432TIP3    H270712   3.424   5.399   4.458 -1.4251 -2.0160 -1.2898
16433TIP3   OH270713   2.155   0.390  14.328 -0.2958  0.6012  0.5278
16433TIP3    H170714   2.191   0.345  14.404 -1.8602  1.9651  2.1625
16433TIP3    H270715   2.173   0.482  14.344  0.9174  0.8119 -1.6883
16434TIP3   OH270716   6.785   3.940   3.999 -0.2013  0.1214  0.0702
16434TIP3    H170717   6.789   3.983   4.085 -1.0976  1.3651 -0.4850
16434TIP3    H270718   6.831   4.000   3.940 -0.4590 -0.2506 -0.5117
16435TIP3   OH270719   1.195   1.997  15.807  0.0039  0.4666 -0.5216
16435TIP3    H170720   1.188   1.902  15.794  0.9846 -0.3058  3.4428
16435TIP3    H270721   1.280   2.020  15.769 -0.0927 -0.2602 -1.2168
16436TIP3   OH270722   5.965   5.740   4.695 -0.0771  0.4840  0.0716
16436TIP3    H170723   5.902   5.669   4.707 -1.1642  1.4400  0.2198
16436TIP3    H270724   6.027   5.708   4.630 -0.5522 -0.5849  0.1360
16437TIP3   OH270725   0.190   5.773  12.840  0.1568  0.3781 -0.1750
16437TIP3    H170726   0.186   5.678  12.830  0.8085  0.3528 -0.2927
16437TIP3    H270727   0.190   5.807  12.751 -1.0329  0.5497 -0.1227
16438TIP3   OH270728   1.842   1.534  13.112  0.3165 -0.3559  0.3640
16438TIP3    H170729   1.870   1.459  13.059  0.6988  0.1671 -0.1749
16438TIP3    H270730   1.894   1.526  13.193  0.2503 -0.7458  0.3742
16439TIP3   OH270731   5.150   4.250  14.758 -0.9573  0.7316 -0.1660
16439TIP3    H170732   5.177   4.256  14.667  2.3283 -1.9370  0.4599
16439TIP3    H270733   5.160   4.340  14.792  2.4033  0.9394 -1.3681
16440TIP3   OH270734   6.698   2.615   5.338  0.1903 -0.1218 -0.6571
16440TIP3    H170735   6.629   2.617   5.271 -0.8036  1.4846  0.3541
16440TIP3    H270736   6.755   2.688   5.315  2.5953 -2.3227 -2.3964
16441TIP3   OH270737   0.185   0.383   3.299  0.1151  0.2836 -0.1035
16441TIP3    H170738   0.226   0.435   3.367 -3.7155  3.1417  0.3590
16441TIP3    H270739   0.108   0.344   3.341 -2.1647  1.8003 -2.5314
16442TIP3   OH270740   3.132   3.450  13.707 -0.6332 -0.1767 -0.2908
16442TIP3    H170741   3.196   3.457  13.636 -0.9053  1.0139 -0.4241
16442TIP3    H270742   3.064   3.393  13.671  0.4600 -1.6990 -0.0466
16443TIP3   OH270743   0.318   4.981   4.879 -0.1802  0.0391 -0.1899
16443TIP3    H170744   0.400   4.945   4.846  0.5438 -0.4912  2.0381
16443TIP3    H270745   0.344   5.050   4.940 -1.4315  0.5554 -0.2063
16444TIP3   OH270746   3.903   2.459  14.043  0.3434 -0.4249 -0.3009
16444TIP3    H170747   3.942   2.537  14.082 -0.4395  0.4375 -1.1883
16444TIP3    H270748   3.822   2.446  14.093 -0.0474 -0.0348 -0.8126
16445TIP3   OH270749   0.636   4.412   1.596 -0.2309  0.0322 -0.0413
16445TIP3    H170750   0.599   4.483   1.650 -1.9895 -2.2937  2.0489
16445TIP3    H270751   0.633   4.447   1.507  0.6914  3.2221  1.0180
16446TIP3   OH270752   5.324   3.527  12.988 -0.1871 -0.0079 -0.4389
16446TIP3    H170753   5.363   3.603  12.946 -0.1790 -0.0593 -0.5239
16446TIP3    H270754   5.230   3.545  12.989 -0.0966  0.4570  0.4362
16447TIP3   OH270755   3.479   6.452   2.442 -0.3076 -0.8189  0.2351
16447TIP3    H170756   3.455   6.404   2.522  0.3431  0.3733  1.1870
16447TIP3    H270757   3.487   6.543   2.471  2.9114 -0.7663 -0.5147
16448TIP3   OH270758   4.061   0.491   6.159  0.5580 -0.6135  0.2701
16448TIP3    H170759   4.076   0.494   6.254  1.5826  0.5943  0.0965
16448TIP3    H270760   3.982   0.542   6.145  0.0914 -1.2506  0.5103
16449TIP3   OH270761   2.646   4.639  16.653 -0.3671  0.7633 -0.3725
16449TIP3    H170762   2.576   4.701  16.631  0.3866  1.0048 -2.2316
16449TIP3    H270763   2.694   4.681  16.724 -1.4272  1.0818  0.1848
16450TIP3   OH270764   1.845   1.597   3.190 -0.2231  0.7737  0.1915
16450TIP3    H170765   1.842   1.650   3.270 -1.2265  2.5433 -0.9727
16450TIP3    H270766   1.909   1.641   3.134  1.2542 -1.0416  0.3538
16451TIP3   OH270767   4.975   2.612   1.714 -0.0614  0.2725  0.1874
16451TIP3    H170768   4.900   2.632   1.770 -0.7510  3.4062 -1.6253
16451TIP3    H270769   5.034   2.562   1.770 -1.7079  1.2293  2.9676
16452TIP3   OH270770   2.473   3.270   2.086  0.3799  0.2971 -0.1772
16452TIP3    H170771   2.424   3.351   2.098 -0.1026  0.0917 -0.6811
16452TIP3    H270772   2.432   3.229   2.010  1.6575  0.3448 -0.9126
16453TIP3   OH270773   3.267   2.738  11.722 -0.0261  0.8104  0.1287
16453TIP3    H170774   3.192   2.679  11.727  0.0290  0.7382  0.1080
16453TIP3    H270775   3.319   2.704  11.649  0.4347  0.3806  0.6478
16454TIP3   OH270776   0.399   5.397  16.576 -0.0819  0.4544  0.1919
16454TIP3    H170777   0.319   5.345  16.573 -0.8993  1.7124 -1.9784
16454TIP3    H270778   0.381   5.472  16.520  1.8553  1.9263  1.4079
16455TIP3   OH270779   0.957   4.510  16.436  0.2319  0.0327  0.2262
16455TIP3    H170780   0.910   4.500  16.519  0.3105 -1.4595  0.1238
16455TIP3    H270781   0.889   4.527  16.371 -0.0839 -1.0720  0.2492
16456TIP3   OH270782   4.886   0.386   1.179  0.4501  0.5270 -0.0650
16456TIP3    H170783   4.954   0.430   1.231 -2.3091  2.0796  2.5293
16456TIP3    H270784   4.842   0.458   1.134  0.4616 -0.4659 -1.7184
16457TIP3   OH270785   2.319   5.661  16.377 -0.0103  0.4055 -0.2212
16457TIP3    H170786   2.275   5.602  16.316 -0.1590  0.1117  0.1722
16457TIP3    H270787   2.357   5.604  16.443 -2.5159  0.8526  1.7598
16458TIP3   OH270788   5.944   5.325   5.048 -0.1179  0.1684  0.7530
16458TIP3    H170789   5.918   5.330   5.140  1.8641  0.8705  1.3343
16458TIP3    H270790   5.921   5.236   5.021  0.8939 -0.6639  2.4771
16459TIP3   OH270791   5.583   5.844  11.156  0.4987 -0.4779 -0.1522
16459TIP3    H170792   5.677   5.858  11.171  0.6569  1.1899 -2.1539
16459TIP3    H270793   5.579   5.767  11.099  1.0631  1.5374 -3.1560
16460TIP3   OH270794   6.788   4.628  16.445 -0.7699  0.3157 -0.0141
16460TIP3    H170795   6.782   4.705  16.502  0.9495  1.4278 -1.2182
16460TIP3    H270796   6.739   4.653  16.367 -3.1890 -1.2267  0.9067
16461TIP3   OH270797   4.013   2.428  11.689  0.3707 -0.2311 -0.3115
16461TIP3    H170798   3.988   2.413  11.781 -0.1007  1.2825 -0.1627
16461TIP3    H270799   3.948   2.491  11.657  0.8982 -0.2753 -1.5149
16462TIP3   OH270800   2.685   2.869   1.462  0.1723  0.4152  0.1671
16462TIP3    H170801   2.642   2.947   1.498 -0.0533  0.3395  0.0666
16462TIP3    H270802   2.648   2.860   1.374 -0.6239 -0.4224  0.5593
16463TIP3   OH270803   0.086   1.491   5.259 -0.3521 -0.0152 -0.9249
16463TIP3    H170804   0.063   1.505   5.351 -0.2565  3.2995 -1.2654
16463TIP3    H270805   0.011   1.443   5.223 -2.3279  2.1004  0.0768
16464TIP3   OH270806   1.164   6.094   3.816 -0.1433  0.1296 -0.4565
16464TIP3    H170807   1.071   6.087   3.793 -0.3124  1.6710 -0.3767
16464TIP3    H270808   1.187   6.185   3.793  0.9860  0.1781  0.7776
16465TIP3   OH270809   1.866   1.787   1.981 -0.2097 -0.0234  0.0200
16465TIP3    H170810   1.822   1.817   2.060 -0.1880  1.4299 -0.5032
16465TIP3    H270811   1.940   1.735   2.013 -0.5929 -0.0173  0.9303
16466TIP3   OH270812   5.130   2.492  13.800 -0.4629  0.1100  0.2363
16466TIP3    H170813   5.206   2.544  13.826 -0.7611  0.0713  1.2209
16466TIP3    H270814   5.057   2.529  13.850 -1.2494  0.6056 -1.2246
16467TIP3   OH270815   4.137   3.189  12.912  0.2633  0.0320 -0.1318
16467TIP3    H170816   4.097   3.106  12.886  3.4834 -1.4642 -0.7938
16467TIP3    H270817   4.136   3.243  12.833  0.3897 -0.3567 -0.3994
16468TIP3   OH270818   0.888   2.109   2.263 -0.3570  0.8192 -0.7345
16468TIP3    H170819   0.860   2.126   2.353  1.5312  1.9924 -0.3149
16468TIP3    H270820   0.833   2.166   2.210 -0.7656  0.9033 -0.2285
16469TIP3   OH270821   5.319   1.068  11.668 -0.5055  0.2269 -0.0273
16469TIP3    H170822   5.287   1.153  11.636  2.2137  1.1666 -0.5347
16469TIP3    H270823   5.283   1.004  11.607 -1.6678  1.1459 -0.3327
16470TIP3   OH270824   1.568   6.815  16.332  0.1069  0.0199 -0.2387
16470TIP3    H170825   1.589   6.826  16.239 -0.2457 -1.4139 -0.5203
16470TIP3    H270826   1.593   6.724  16.351 -0.7030  0.0032  0.8256
16471TIP3   OH270827   5.095   1.191  14.355 -0.7169  0.0925  0.0371
16471TIP3    H170828   5.075   1.281  14.383 -0.0403 -0.1299  1.3394
16471TIP3    H270829   5.042   1.136  14.413 -0.4776 -0.3684 -0.1770
16472TIP3   OH270830   1.884   5.319  16.088 -0.3268  0.0613  0.3610
16472TIP3    H170831   1.929   5.401  16.068 -1.0651  0.6753  1.1430
16472TIP3    H270832   1.924   5.255  16.030 -1.1937  1.3883 -1.8504
16473TIP3   OH270833   4.483   5.468   3.884  0.0058 -0.0729  0.6664
16473TIP3    H170834   4.484   5.375   3.905 -1.3057  0.6868  5.2906
16473TIP3    H270835   4.563   5.502   3.923 -0.7225  1.0330  1.2608
16474TIP3   OH270836   5.661   4.035  14.617 -0.2826 -0.9336 -0.2278
16474TIP3    H170837   5.696   3.997  14.536 -2.1148  0.9788 -2.0397
16474TIP3    H270838   5.727   4.098  14.644 -1.2222  1.1501 -2.4525
16475TIP3   OH270839   4.898   4.439   3.506  0.2395 -0.0690  0.1275
16475TIP3    H170840   4.983   4.426   3.548  0.6434  1.0720 -0.3028
16475TIP3    H270841   4.897   4.377   3.433  0.7101 -0.0711  0.1252
16476TIP3   OH270842   2.540   5.604  13.433 -0.3956  0.6075  0.2644
16476TIP3    H170843   2.573   5.694  13.442 -1.7685  1.1304  0.2848
16476TIP3    H270844   2.580   5.557  13.506  0.6334  1.0983  0.0432
16477TIP3   OH270845   0.459   0.180   6.097  0.2155 -0.0493 -0.5709
16477TIP3    H170846   0.477   0.118   6.168  1.9463 -0.4995 -1.3446
16477TIP3    H270847   0.529   0.164   6.033 -0.1801  1.6594 -1.4917
16478TIP3   OH270848   5.142   5.847   3.506 -0.0307  0.2516  0.0915
16478TIP3    H170849   5.215   5.815   3.559 -0.3489 -0.0034  0.3819
16478TIP3    H270850   5.139   5.789   3.430 -1.1886 -1.0306  1.0706
16479TIP3   OH270851   0.969   1.733  14.327 -0.1419 -0.5472 -0.0956
16479TIP3    H170852   0.911   1.671  14.371 -0.5779  1.5005  2.4792
16479TIP3    H270853   0.929   1.748  14.242 -1.6646 -1.5392  0.4077
16480TIP3   OH270854   1.636   5.087  15.684 -0.3767 -0.0309  0.3603
16480TIP3    H170855   1.600   5.044  15.606 -0.7369  0.1707  0.4111
16480TIP3    H270856   1.589   5.170  15.689 -1.5801 -0.7581  1.7470
16481TIP3   OH270857   4.316   2.344   6.247 -0.4184  0.0888  0.3890
16481TIP3    H170858   4.402   2.386   6.245 -1.6805  2.8662 -0.3309
16481TIP3    H270859   4.332   2.255   6.216  2.1874  0.4825  0.3815
16482TIP3   OH270860   0.652   3.105  15.144  0.0370  0.1006  0.4826
16482TIP3    H170861   0.608   3.097  15.060 -2.9590  0.2598  1.9158
16482TIP3    H270862   0.692   3.192  15.142  0.0692  0.0744 -0.7786
16483TIP3   OH270863   4.422   4.205  12.748  0.1785  0.0323  0.8151
16483TIP3    H170864   4.459   4.117  12.749 -0.4095 -0.2714  3.9904
16483TIP3    H270865   4.346   4.199  12.690  1.3922 -0.9202 -0.7532
16484TIP3   OH270866   1.216   3.854   0.638 -0.6949  0.0844  0.2750
16484TIP3    H170867   1.209   3.774   0.586  0.4181  1.0135 -1.4008
16484TIP3    H270868   1.310   3.869   0.648 -0.8816  0.2170  2.1732
16485TIP3   OH270869   6.735   4.223   1.854 -0.4459 -0.1847 -0.5217
16485TIP3    H170870   6.723   4.231   1.949  1.7078 -1.1488 -0.1165
16485TIP3    H270871   6.774   4.306   1.828  1.5360 -0.9030 -0.0361
16486TIP3   OH270872   6.168   2.280   0.025  0.6761 -0.0254  0.5019
16486TIP3    H170873   6.132   2.199  -0.013  0.5894 -0.2638  1.0764
16486TIP3    H270874   6.221   2.250   0.099 -0.2471  0.4957  1.4078
16487TIP3   OH270875   5.678   3.772   0.503  0.2764  0.0119 -0.2633
16487TIP3    H170876   5.688   3.783   0.409  1.0636  1.4798 -0.0377
16487TIP3    H270877   5.628   3.849   0.531  0.1771 -0.3357  0.5439
16488TIP3   OH270878   6.362   0.002  16.688  0.3631 -0.4150 -0.0374
16488TIP3    H170879   6.333  -0.063  16.751  1.3352 -0.6411  0.1947
16488TIP3    H270880   6.417  -0.046  16.626  1.6071  0.2643  0.4952
16489TIP3   OH270881   4.727   5.093   2.458 -0.0232 -0.3286  0.3628
16489TIP3    H170882   4.700   5.185   2.460  1.0577  0.0403 -0.7649
16489TIP3    H270883   4.645   5.044   2.457 -0.6177  0.6338  0.4693
16490TIP3   OH270884   1.374   4.118   5.775 -0.2568 -0.1498  0.1706
16490TIP3    H170885   1.282   4.099   5.758 -1.1675  0.7059  3.4606
16490TIP3    H270886   1.374   4.166   5.858  3.2481 -1.4639  1.1308
16491TIP3   OH270887   2.805   2.725   1.181  0.1741 -0.1722 -0.3349
16491TIP3    H170888   2.759   2.702   1.101 -0.1891 -0.5265 -0.0267
16491TIP3    H270889   2.761   2.675   1.250  0.0656  0.6135  0.1795
16492TIP3   OH270890   6.762   6.368  16.389 -0.1181  0.0577  0.2141
16492TIP3    H170891   6.691   6.423  16.355  0.1479  0.3041  0.0568
16492TIP3    H270892   6.801   6.419  16.459 -0.3342 -0.2356  0.5536
16493TIP3   OH270893   1.059   2.167  11.488 -0.5058 -0.4228 -0.3067
16493TIP3    H170894   1.056   2.187  11.582 -2.0869 -1.4086 -0.1201
16493TIP3    H270895   0.994   2.225  11.449 -1.2837 -1.4193 -0.5056
16494TIP3   OH270896   3.873   6.317  13.286  0.0854  0.2103 -0.5638
16494TIP3    H170897   3.929   6.261  13.340 -0.1753 -0.0184 -0.5314
16494TIP3    H270898   3.890   6.406  13.319  0.1876  0.1079 -0.3386
16495TIP3   OH270899   5.879   2.766  13.094  0.1039 -0.1800 -0.4430
16495TIP3    H170900   5.906   2.674  13.089  0.7055  0.0505 -2.0090
16495TIP3    H270901   5.803   2.766  13.152 -0.3632 -1.7834 -1.0151
16496TIP3   OH270902   4.162   1.414   2.639 -0.4423 -0.0528 -0.1445
16496TIP3    H170903   4.238   1.357   2.649 -0.0404  0.6339  0.9214
16496TIP3    H270904   4.101   1.385   2.707 -0.7352  0.0136 -0.3771
16497TIP3   OH270905   4.524   6.120   1.524 -0.3716  0.0662 -0.2026
16497TIP3    H170906   4.452   6.153   1.469 -1.9691 -1.2518  1.0015
16497TIP3    H270907   4.510   6.026   1.527  0.9926 -0.1304  0.6693
16498TIP3   OH270908   5.518   2.810  12.675 -0.0012 -0.0537 -0.0406
16498TIP3    H170909   5.514   2.714  12.675  0.0705 -0.1207 -2.5449
16498TIP3    H270910   5.599   2.830  12.721 -0.2682 -1.1476  0.9733
16499TIP3   OH270911   4.675   4.495   3.746  0.5421 -0.1284  0.8110
16499TIP3    H170912   4.753   4.514   3.694  1.9437 -0.7914  2.5648
16499TIP3    H270913   4.678   4.400   3.761  0.6032  0.1180  2.6464
16500TIP3   OH270914   2.930   4.187   4.761  0.5537  0.2101  0.3787
16500TIP3    H170915   2.954   4.177   4.853  0.4064  0.2077  0.4163
16500TIP3    H270916   2.899   4.100   4.735  0.8778  0.1339  0.2462
16501TIP3   OH270917   3.488   2.863   6.703 -0.2072  0.0943  0.6075
16501TIP3    H170918   3.570   2.814   6.704 -1.4240 -2.0928  1.9405
16501TIP3    H270919   3.456   2.855   6.613  1.0552  1.0843  0.0412
16502TIP3   OH270920   0.998   3.363  11.019 -0.2873  0.3802 -0.0092
16502TIP3    H170921   0.933   3.331  11.081 -0.7723 -0.3248 -0.8679
16502TIP3    H270922   0.989   3.306  10.943 -0.2328  1.7175 -1.0374
16503TIP3   OH270923   2.322   4.975   4.886 -0.3420 -0.5480 -0.3457
16503TIP3    H170924   2.320   5.042   4.954 -0.3763 -0.3351 -0.5549
16503TIP3    H270925   2.404   4.928   4.901  0.6388  0.7703 -1.3609
16504TIP3   OH270926   6.226   0.209  15.896 -0.3941 -0.6815 -0.2469
16504TIP3    H170927   6.281   0.215  15.818  0.3414 -3.2110 -0.0160
16504TIP3    H270928   6.247   0.287  15.947  3.2189 -1.5898 -0.0686
16505TIP3   OH270929   6.724   5.390  15.061  0.3354  0.0999  0.3634
16505TIP3    H170930   6.687   5.447  15.128  1.6595  1.9541 -0.4102
16505TIP3    H270931   6.648   5.345  15.023 -0.4872 -0.5860  2.6767
16506TIP3   OH270932   2.508   5.596  10.902  0.0189  0.3752 -0.0311
16506TIP3    H170933   2.514   5.529  10.834  0.1041 -0.0179  0.3601
16506TIP3    H270934   2.579   5.575  10.963 -0.8162 -0.0169  0.8349
16507TIP3   OH270935   6.549   3.286   0.286 -0.4110 -0.6312 -0.5509
16507TIP3    H170936   6.595   3.240   0.216  0.7111 -1.0722  0.4377
16507TIP3    H270937   6.613   3.349   0.320 -1.8334  1.6169 -1.7371
16508TIP3   OH270938   0.350   5.599   4.885 -0.0266  0.2413 -0.1303
16508TIP3    H170939   0.428   5.577   4.936  0.1538  1.3877  0.1220
16508TIP3    H270940   0.277   5.586   4.945  0.1258  0.8539  0.2046
16509TIP3   OH270941   6.297   4.260  15.325  0.1529 -0.1352 -0.1842
16509TIP3    H170942   6.286   4.349  15.291 -1.0558  0.4629  1.5854
16509TIP3    H270943   6.212   4.218  15.308  0.1574 -0.4039  0.4387
16510TIP3   OH270944   4.891   0.301   3.806  0.4068 -0.3152 -0.1854
16510TIP3    H170945   4.800   0.332   3.811  0.3385 -0.6545  0.8323
16510TIP3    H270946   4.943   0.381   3.802 -0.0238 -0.0313 -4.1542
16511TIP3   OH270947   3.226   1.673  13.699  0.7994 -0.0137  1.1274
16511TIP3    H170948   3.237   1.579  13.689  1.4574  0.0298  1.3816
16511TIP3    H270949   3.313   1.709  13.683  0.1394  0.7571 -1.1782
16512TIP3   OH270950   2.318   4.610   3.415  0.6467  0.3889 -0.4140
16512TIP3    H170951   2.299   4.516   3.409  0.8578  0.2093  1.3509
16512TIP3    H270952   2.237   4.649   3.448  1.2779  0.4963  1.0532
16513TIP3   OH270953   5.794   4.163  15.108 -0.0799  0.8827 -0.0351
16513TIP3    H170954   5.865   4.145  15.168  0.6154 -0.3284 -1.1667
16513TIP3    H270955   5.734   4.088  15.118 -0.2174  0.9326 -0.4617
16514TIP3   OH270956   1.331   1.803  14.789  0.6229  0.0888 -0.0505
16514TIP3    H170957   1.265   1.847  14.736 -0.1469 -1.8395 -0.7855
16514TIP3    H270958   1.384   1.874  14.825 -1.3050  1.6469 -0.1272
16515TIP3   OH270959   1.909   1.588  12.745  0.2886 -0.2027  0.1303
16515TIP3    H170960   1.964   1.510  12.732 -0.1968 -0.4272 -0.6187
16515TIP3    H270961   1.954   1.637  12.814  0.0356 -1.6720  1.3931
16516TIP3   OH270962   0.966   2.504  13.937 -0.0448  0.2887  0.3526
16516TIP3    H170963   1.023   2.577  13.962  0.1323  0.4315 -0.4333
16516TIP3    H270964   0.959   2.511  13.841 -0.1454 -0.6330  0.2843
16517TIP3   OH270965   6.278   1.688  15.509  0.2216 -0.3097 -0.2248
16517TIP3    H170966   6.203   1.644  15.469  0.0067 -0.9886  0.8663
16517TIP3    H270967   6.329   1.721  15.436 -0.0474 -1.6719 -1.0542
16518TIP3   OH270968   4.868   5.813  13.173  0.3909 -0.0807  0.8368
16518TIP3    H170969   4.926   5.817  13.250  1.8191 -0.9998 -0.1387
16518TIP3    H270970   4.922   5.772  13.105 -1.1141 -0.0571 -0.4158
16519TIP3   OH270971   3.455   1.262  16.803 -0.1036  0.3881 -0.5179
16519TIP3    H170972   3.373   1.245  16.851  1.0198  1.7597  2.1148
16519TIP3    H270973   3.448   1.353  16.776  0.0349  0.1289 -1.4506
16520TIP3   OH270974   2.853   4.496  14.283 -0.3579 -0.0610  0.1268
16520TIP3    H170975   2.846   4.403  14.302 -0.7781  0.3352  2.1327
16520TIP3    H270976   2.763   4.525  14.268 -0.0879 -0.2723 -2.4060
16521TIP3   OH270977   3.643   5.835   6.588 -0.4127 -0.4499 -0.3329
16521TIP3    H170978   3.555   5.805   6.565 -0.2112 -0.6280 -0.8975
16521TIP3    H270979   3.701   5.786   6.529  0.0799 -0.4988  0.1898
16522TIP3   OH270980   1.141   2.344   2.478  0.0476 -0.1275  0.3225
16522TIP3    H170981   1.054   2.363   2.444 -0.0270  0.4646  0.8199
16522TIP3    H270982   1.201   2.370   2.408 -0.2143 -2.0706 -0.6895
16523TIP3   OH270983   1.929   3.817   4.877 -0.5930 -0.4788  0.3203
16523TIP3    H170984   1.980   3.884   4.830 -0.5498  0.2165  1.3065
16523TIP3    H270985   1.990   3.783   4.942  0.1452 -3.2008 -1.6147
16524TIP3   OH270986   5.422   3.292  11.625  0.2869  0.3338  0.3575
16524TIP3    H170987   5.431   3.349  11.700 -0.9250 -1.0571  1.6346
16524TIP3    H270988   5.328   3.296  11.603 -0.0815 -1.9736  1.2280
16525TIP3   OH270989   1.919   0.784  14.200  0.1067  0.7595 -0.4190
16525TIP3    H170990   1.848   0.841  14.169  0.8533  1.5633 -0.7069
16525TIP3    H270991   1.925   0.803  14.294  0.7964  1.6993 -0.6301
16526TIP3   OH270992   4.474   1.525   5.258  0.1657  0.3916  0.2747
16526TIP3    H170993   4.546   1.568   5.212 -0.2882  1.5438  0.5947
16526TIP3    H270994   4.398   1.581   5.242 -0.5852 -0.6003  0.2539
16527TIP3   OH270995   3.985   2.477   4.053  0.8656 -0.8933 -0.5389
16527TIP3    H170996   4.058   2.454   3.997  1.4477 -2.8541  0.8969
16527TIP3    H270997   4.022   2.537   4.118  1.6531 -2.8228  0.9381
16528TIP3   OH270998   2.477   2.008  14.249 -0.0980 -0.5811 -0.3497
16528TIP3    H170999   2.453   2.078  14.187 -1.3106 -0.4026  0.2877
16528TIP3    H271000   2.495   1.932  14.194  0.0848 -0.0749 -0.9936
16529TIP3   OH271001   1.788   2.293   1.382 -0.6438 -0.7002  0.4115
16529TIP3    H171002   1.841   2.336   1.449 -1.4820  0.1898  0.5219
16529TIP3    H271003   1.816   2.332   1.299  1.4464 -2.8491  0.0119
16530TIP3   OH271004   0.885   4.723   4.863 -0.1620  0.4146 -0.3687
16530TIP3    H171005   0.815   4.762   4.915 -0.4977  0.6684 -1.0062
16530TIP3    H271006   0.906   4.641   4.909 -0.3276  0.7215  0.2622
16531TIP3   OH271007   2.006   5.027  12.321 -0.5200 -0.1284  0.3126
16531TIP3    H171008   1.940   4.973  12.364 -0.2341  0.2461  1.2470
16531TIP3    H271009   2.027   4.980  12.240 -1.8907 -0.2752  0.0168
16532TIP3   OH271010   3.844   1.005  13.680  0.3024  0.2852 -0.6863
16532TIP3    H171011   3.765   1.027  13.730  1.2935 -1.1439  1.6610
16532TIP3    H271012   3.876   1.089  13.647 -0.7648  1.2117  0.5476
16533TIP3   OH271013   0.263   4.889  16.736  0.2311  0.0823 -0.3206
16533TIP3    H171014   0.258   4.962  16.798  1.2897  1.1427 -1.4243
16533TIP3    H271015   0.197   4.827  16.767  1.2412  0.2021  2.3072
16534TIP3   OH271016   6.426   0.884  15.642  0.4817  0.4473  0.1916
16534TIP3    H171017   6.384   0.963  15.607  0.1678  0.2115  0.0261
16534TIP3    H271018   6.519   0.896  15.624  0.3704  0.5204 -0.3506
16535TIP3   OH271019   0.082   5.492  16.700  0.6039  0.1536 -0.5700
16535TIP3    H171020   0.134   5.484  16.780  2.6212  0.2246 -1.7875
16535TIP3    H271021   0.143   5.467  16.630 -1.3822 -0.8870 -2.0155
16536TIP3   OH271022   3.593   5.365   1.559  0.9236 -0.2886 -0.1986
16536TIP3    H171023   3.554   5.444   1.523  1.0065  0.1346  0.6060
16536TIP3    H271024   3.642   5.395   1.636  2.1113 -0.9315 -0.6771
16537TIP3   OH271025   3.121   1.013  12.505 -0.3464 -1.1394 -0.0817
16537TIP3    H171026   3.169   1.083  12.461 -1.0011  0.7407  2.0762
16537TIP3    H271027   3.190   0.952  12.535  0.8033  1.2144  2.4758
16538TIP3   OH271028   1.309   2.579  10.286 -0.2570  0.2182  0.4902
16538TIP3    H171029   1.365   2.538  10.221 -0.6839 -1.2381  0.9885
16538TIP3    H271030   1.308   2.672  10.263  1.5310  0.1212 -0.1118
16539TIP3   OH271031   4.968   0.812   5.141  0.3404 -0.9105 -0.3422
16539TIP3    H171032   4.911   0.866   5.087  0.5878 -1.0976 -0.7967
16539TIP3    H271033   5.056   0.846   5.123  0.4785 -1.3514 -0.4946
16540TIP3   OH271034   2.133   1.946  14.446 -0.3843  0.7933 -0.1460
16540TIP3    H171035   2.136   1.854  14.419  0.6464  0.7777 -0.0027
16540TIP3    H271036   2.069   1.986  14.386 -2.0302 -0.3113  0.7834
16541TIP3   OH271037   4.762   1.543   4.493 -0.1362 -0.6088 -0.3806
16541TIP3    H171038   4.834   1.601   4.517 -0.3091 -0.5442 -0.0101
16541TIP3    H271039   4.683   1.591   4.518 -0.2719 -1.1127  0.1842
16542TIP3   OH271040   1.738   6.201  14.182  0.7538  0.0883 -0.0201
16542TIP3    H171041   1.759   6.138  14.252 -1.7162 -0.6887  0.1276
16542TIP3    H271042   1.654   6.238  14.208  1.3977  2.3276 -0.9305
16543TIP3   OH271043   3.159   1.918  15.007 -0.3277 -0.4443 -0.3921
16543TIP3    H171044   3.167   1.989  15.071  0.2714 -0.1576 -0.7716
16543TIP3    H271045   3.107   1.852  15.051  0.3360 -0.3875  0.5159
16544TIP3   OH271046   0.932   2.207  16.374 -0.1235  0.5051 -0.0584
16544TIP3    H171047   0.841   2.237  16.376 -0.7642 -1.3666  1.2361
16544TIP3    H271048   0.953   2.198  16.281 -2.1836 -1.5637 -0.4098
16545TIP3   OH271049   5.692   1.269   1.937  0.3508  0.0974 -0.2631
16545TIP3    H171050   5.610   1.240   1.898  0.0564 -0.2062  0.5683
16545TIP3    H271051   5.751   1.281   1.862 -1.1034  2.6284 -1.1369
16546TIP3   OH271052   2.596   4.247   4.260 -0.1513 -0.4250 -0.0049
16546TIP3    H171053   2.523   4.243   4.199 -0.3090 -0.7296  0.1997
16546TIP3    H271054   2.568   4.194   4.335 -1.3371  2.4745  1.8099
16547TIP3   OH271055   0.904   5.839   5.200 -0.0636 -0.5212  0.1281
16547TIP3    H171056   0.854   5.919   5.218  1.0574  0.2613 -0.1328
16547TIP3    H271057   0.918   5.799   5.286 -2.2341 -1.4717  0.1038
16548TIP3   OH271058   4.039   0.822   1.032 -0.2197  0.1333 -0.3194
16548TIP3    H171059   4.019   0.900   1.083 -1.7262 -0.1275 -0.4712
16548TIP3    H271060   4.073   0.856   0.949 -0.8770  0.6433 -0.3908
16549TIP3   OH271061   6.030   2.181   2.995 -0.5636 -0.0999  0.4370
16549TIP3    H171062   6.001   2.096   2.963 -1.0763 -0.0922  0.8673
16549TIP3    H271063   5.959   2.241   2.971 -1.1832 -0.1732  1.9633
16550TIP3   OH271064   2.129   6.743   4.541 -1.1522 -0.5021 -0.5558
16550TIP3    H171065   2.207   6.747   4.485 -0.3193  0.6152  0.6421
16550TIP3    H271066   2.160   6.705   4.623 -1.6858  0.6692  0.2062
16551TIP3   OH271067   0.102   4.397   4.700  0.5019  0.1800  0.4332
16551TIP3    H171068   0.015   4.425   4.730  0.6933  1.3399 -0.0591
16551TIP3    H271069   0.121   4.454   4.626  0.3761 -2.0821 -1.4501
16552TIP3   OH271070   6.572   0.295   6.324 -0.0063 -0.3744  0.2237
16552TIP3    H171071   6.641   0.252   6.374  0.1863  0.5428  0.7681
16552TIP3    H271072   6.538   0.362   6.383  0.2601  0.7750 -0.8808
16553TIP3   OH271073   6.679   3.548  15.430  0.3827 -0.1953  0.0363
16553TIP3    H171074   6.659   3.499  15.510 -2.0860  0.7338  0.0716
16553TIP3    H271075   6.676   3.640  15.457  2.3317  0.0956 -0.5868
16554TIP3   OH271076   5.301   5.629   2.005  0.2069 -0.0861  0.3173
16554TIP3    H171077   5.371   5.596   1.948  0.6029  0.0833  0.6997
16554TIP3    H271078   5.259   5.550   2.038  0.4229 -0.1939  0.3382
16555TIP3   OH271079   4.330   6.024  12.627  0.1999 -0.7013  0.6907
16555TIP3    H171080   4.318   6.027  12.722 -3.4680 -1.0781  0.3847
16555TIP3    H271081   4.282   6.101  12.595 -0.7650 -1.9300 -0.9531
16556TIP3   OH271082   4.546   1.663   3.320  0.2850  0.5617 -0.8571
16556TIP3    H171083   4.594   1.586   3.351 -1.9184 -1.0283 -1.1528
16556TIP3    H271084   4.483   1.682   3.389 -1.6265 -0.2055 -2.3017
16557TIP3   OH271085   1.960   3.378  12.031  0.3882 -0.2850  0.8458
16557TIP3    H171086   1.877   3.404  12.069  0.0443  0.1282 -0.1659
16557TIP3    H271087   2.015   3.354  12.106  0.2698  2.0002  1.7272
16558TIP3   OH271088   5.731   2.137   0.900  0.1253 -0.1517 -0.0006
16558TIP3    H171089   5.769   2.050   0.886  0.1124 -0.0219 -0.9134
16558TIP3    H271090   5.636   2.122   0.898  0.0843 -0.4595  2.1699
16559TIP3   OH271091   2.887   5.232   0.373 -0.0798 -0.5413  0.3381
16559TIP3    H171092   2.935   5.156   0.341  1.0392 -0.3459  1.4760
16559TIP3    H271093   2.873   5.213   0.466  0.0052  0.5453  0.5807
16560TIP3   OH271094   2.965   2.465   1.797  0.4233  0.3959 -0.6481
16560TIP3    H171095   2.877   2.482   1.763 -0.3149  0.7050  1.2667
16560TIP3    H271096   3.015   2.543   1.774  0.3768 -0.0004 -2.2124
16561TIP3   OH271097   5.293   5.261  16.751 -0.0024  0.4963  0.4153
16561TIP3    H171098   5.304   5.185  16.808 -1.5580  0.1765  0.3545
16561TIP3    H271099   5.380   5.278  16.716  0.9601  0.6151  2.7345
16562TIP3   OH271100   5.028   1.740  13.861 -0.3341 -0.2379 -0.9404
16562TIP3    H171101   5.002   1.695  13.780  1.4931 -2.1378 -0.5509
16562TIP3    H271102   5.117   1.709  13.878  0.6136  2.6813  0.0360
16563TIP3   OH271103   0.368   5.315  11.691 -0.2245  0.4893 -0.1309
16563TIP3    H171104   0.354   5.409  11.677 -0.8809  0.4649  0.3377
16563TIP3    H271105   0.345   5.275  11.607 -2.1177  0.5448  0.3241
16564TIP3   OH271106   6.634   5.121   5.186  0.7618 -0.4664 -0.4313
16564TIP3    H171107   6.543   5.149   5.177  1.0817  0.1541 -2.2443
16564TIP3    H271108   6.676   5.193   5.234  0.5994  0.0017 -0.9721
16565TIP3   OH271109   5.952   0.802  14.920  0.6102  0.4126  0.1811
16565TIP3    H171110   5.908   0.863  14.861  1.1230  1.4234  0.8114
16565TIP3    H271111   5.956   0.720  14.872 -2.0007  0.2462  0.1020
16566TIP3   OH271112   0.872   4.135  16.339  0.1818  0.0611  0.2310
16566TIP3    H171113   0.867   4.043  16.312 -1.8767 -0.1304  1.1238
16566TIP3    H271114   0.921   4.178  16.268  1.8522 -1.8187  0.1686
16567TIP3   OH271115   4.728   6.684   5.844  0.4017  0.0636 -0.2257
16567TIP3    H171116   4.725   6.599   5.889  1.2998 -0.5213 -1.2339
16567TIP3    H271117   4.705   6.748   5.912 -0.2119 -0.9729  0.5683
16568TIP3   OH271118   0.675   2.949  14.380  0.3394 -0.3494  0.1370
16568TIP3    H171119   0.618   3.018  14.415  1.4020  0.3122  0.6059
16568TIP3    H271120   0.750   2.995  14.343  0.5544 -1.2023 -0.5420
16569TIP3   OH271121   0.276   3.084   2.399 -0.2813 -0.0857  0.2202
16569TIP3    H171122   0.323   3.033   2.334 -0.1932  0.0530  0.1734
16569TIP3    H271123   0.185   3.086   2.368 -0.1473  0.3792 -0.1503
16570TIP3   OH271124   5.328   3.921  16.229 -0.2452 -0.0498  0.4068
16570TIP3    H171125   5.331   3.838  16.182 -1.9240 -1.5697  2.7666
16570TIP3    H271126   5.420   3.943  16.245  0.2257 -1.4602 -0.2475
16571TIP3   OH271127   6.244   2.945   4.900  0.0842  0.6125 -0.3593
16571TIP3    H171128   6.320   2.958   4.955  0.0146 -0.1700 -0.0605
16571TIP3    H271129   6.277   2.896   4.824 -0.1484  0.1197 -0.1460
16572TIP3   OH271130   0.916   3.643   2.642 -0.5556  0.4909 -0.3432
16572TIP3    H171131   0.955   3.652   2.555  0.4170  0.5551  0.0890
16572TIP3    H271132   0.943   3.556   2.672  1.0765  1.3487  0.8248
16573TIP3   OH271133   4.039   4.306   2.906 -0.1185 -0.1928  0.2287
16573TIP3    H171134   3.985   4.304   2.827 -1.3435 -1.3920  1.0501
16573TIP3    H271135   4.098   4.381   2.893 -0.1392 -0.4808 -1.8871
16574TIP3   OH271136   3.558   1.442   4.531 -0.0380  0.5101  0.1365
16574TIP3    H171137   3.633   1.435   4.590 -0.8859  0.1926  1.1980
16574TIP3    H271138   3.514   1.358   4.537 -0.1436  0.4737 -0.9601
16575TIP3   OH271139   3.084   1.397   3.170  0.2732  0.0425  0.2290
16575TIP3    H171140   3.165   1.406   3.120  0.2966 -0.4684  0.1746
16575TIP3    H271141   3.064   1.486   3.198 -1.1622  0.8401 -2.9213
16576TIP3   OH271142   5.756   5.335   3.627 -0.6355 -0.5053 -0.4249
16576TIP3    H171143   5.851   5.324   3.631 -0.4827  0.8586  0.5938
16576TIP3    H271144   5.737   5.341   3.533  0.5104  0.6768 -0.6234
16577TIP3   OH271145   1.919   3.175  13.666 -0.1658 -0.3228  0.3706
16577TIP3    H171146   1.955   3.096  13.707 -0.7479 -0.9506 -0.2919
16577TIP3    H271147   1.825   3.159  13.662 -0.3886  0.7762  0.9805
16578TIP3   OH271148   3.465   2.698  12.762 -0.5624 -0.4247  0.5579
16578TIP3    H171149   3.438   2.728  12.676 -0.7041 -1.3263  0.2770
16578TIP3    H271150   3.560   2.700  12.760 -0.5681 -0.1688  0.4884
16579TIP3   OH271151   4.662   4.248   0.306  0.1235  0.1690 -0.2266
16579TIP3    H171152   4.751   4.214   0.310  0.5010  1.0431 -1.0235
16579TIP3    H271153   4.669   4.337   0.340 -0.7772 -0.3474  1.4294
16580TIP3   OH271154   2.667   4.643   4.336  0.3500  0.2571 -0.5484
16580TIP3    H171155   2.719   4.704   4.388  0.5344  0.2249 -0.6936
16580TIP3    H271156   2.596   4.696   4.300  0.1104  0.2379 -0.1066
16581TIP3   OH271157   2.017   3.013   4.156  0.6010  0.2094 -0.0471
16581TIP3    H171158   1.922   3.022   4.154  0.4419 -0.2747  2.1462
16581TIP3    H271159   2.031   2.925   4.193  1.8591  0.7586  0.8505
16582TIP3   OH271160   5.740   6.160   5.439 -0.2853 -0.1760  0.4469
16582TIP3    H171161   5.780   6.227   5.384 -1.8259 -0.7552 -1.5239
16582TIP3    H271162   5.660   6.202   5.473 -1.0346 -0.8347 -0.4511
16583TIP3   OH271163   6.406   6.102   6.600  0.3835  0.0136 -0.3719
16583TIP3    H171164   6.455   6.038   6.549  0.5811 -0.9506  0.9618
16583TIP3    H271165   6.318   6.102   6.560  0.2737 -1.3767 -0.1803
16584TIP3   OH271166   3.248   6.114   3.399  0.1448 -0.1383 -0.5796
16584TIP3    H171167   3.220   6.206   3.401  3.2525  1.0588 -3.0262
16584TIP3    H271168   3.277   6.097   3.489 -4.3309 -0.3301  1.1089
16585TIP3   OH271169   3.068   4.702   6.065  0.0487 -0.2701  0.2454
16585TIP3    H171170   2.986   4.657   6.083 -0.5257  1.0943  1.2792
16585TIP3    H271171   3.050   4.794   6.088  2.3245 -0.2086  2.2186
16586TIP3   OH271172   4.002   3.399  11.699  0.2158  0.6288  0.0198
16586TIP3    H171173   4.049   3.454  11.762  0.0898  0.6454  0.1011
16586TIP3    H271174   4.057   3.321  11.689  2.0646  2.1116 -2.5501
16587TIP3   OH271175   1.035   1.725   4.151 -0.0249 -0.1643  0.2838
16587TIP3    H171176   0.956   1.672   4.163  0.0454 -0.3927 -0.2164
16587TIP3    H271177   1.037   1.782   4.227 -0.0009 -1.0081  0.9266
16588TIP3   OH271178   0.736   1.893  15.851  0.4592 -0.2259 -0.1329
16588TIP3    H171179   0.750   1.906  15.945 -0.4149  2.3212 -0.2671
16588TIP3    H271180   0.788   1.962  15.810  0.0778 -0.7182 -1.4765
16589TIP3   OH271181   0.188   2.700  16.454  0.1111 -0.2170  0.4528
16589TIP3    H171182   0.131   2.723  16.380 -1.1636  1.7556  1.9484
16589TIP3    H271183   0.155   2.616  16.485 -0.9134  0.1073  0.2595
16590TIP3   OH271184   6.178   5.662   1.036  0.1223 -0.0389 -0.2344
16590TIP3    H171185   6.139   5.681   0.951 -1.1014  0.1902  0.3653
16590TIP3    H271186   6.166   5.568   1.048  0.7806 -0.1668 -0.5461
16591TIP3   OH271187   1.722   2.181   2.093  0.2197 -0.5080 -0.0327
16591TIP3    H171188   1.651   2.237   2.125  1.9748  1.0033  1.4559
16591TIP3    H271189   1.800   2.213   2.139  1.6372 -3.0150 -0.5430
16592TIP3   OH271190   2.866   5.462  13.944 -0.0896 -0.3392  0.3352
16592TIP3    H171191   2.893   5.432  13.857 -2.3424 -0.7387 -0.2972
16592TIP3    H271192   2.898   5.394  14.004  0.2076 -0.8226 -0.3538
16593TIP3   OH271193   3.420   0.693   0.646 -0.2955 -0.0820  0.0230
16593TIP3    H171194   3.438   0.646   0.727  0.1473  0.4746  0.2569
16593TIP3    H271195   3.414   0.785   0.673  0.4840  0.1840 -0.6692
16594TIP3   OH271196   6.591   5.856  13.212 -0.4385  0.0802 -0.1396
16594TIP3    H171197   6.668   5.892  13.168 -1.2520  1.8731 -0.2098
16594TIP3    H271198   6.521   5.919  13.193 -1.8035 -1.2135  0.3541
16595TIP3   OH271199   6.813   3.625   2.026 -0.0106 -0.3271  0.1346
16595TIP3    H171200   6.743   3.598   1.967 -0.0961 -1.3649  0.6865
16595TIP3    H271201   6.782   3.601   2.113 -0.1312  1.6864  0.6922
16596TIP3   OH271202   2.598   5.177   1.329  0.3422  0.2426  0.2013
16596TIP3    H171203   2.522   5.119   1.322 -0.6024  1.5469 -1.0216
16596TIP3    H271204   2.673   5.118   1.332 -0.7089 -1.0861  1.5668
16597TIP3   OH271205   3.406   5.036  16.975 -0.6497  0.0540 -0.3564
16597TIP3    H171206   3.502   5.042  16.976 -0.3950 -2.7936  0.5407
16597TIP3    H271207   3.379   5.088  17.051  0.3329 -0.5451  0.4254
16598TIP3   OH271208   4.854   4.389   4.964 -0.0133  0.4434  0.3019
16598TIP3    H171209   4.867   4.394   5.059  1.3616 -2.7440  0.3919
16598TIP3    H271210   4.786   4.323   4.952  0.7634 -0.1715 -0.9357
16599TIP3   OH271211   4.785   5.635   1.170 -0.0646 -0.3984  0.5219
16599TIP3    H171212   4.834   5.698   1.222  0.4225 -0.0372 -0.3561
16599TIP3    H271213   4.796   5.552   1.217  0.0666 -0.0132  1.1827
16600TIP3   OH271214   1.609   6.201  10.722 -0.5198  0.8542 -0.4554
16600TIP3    H171215   1.579   6.110  10.718  1.2332  0.2531 -0.8605
16600TIP3    H271216   1.539   6.248  10.768 -0.9762 -0.9046  0.7284
16601TIP3   OH271217   4.963   1.977  16.308 -0.2866  0.1221  0.4876
16601TIP3    H171218   4.973   1.917  16.234 -1.2018  0.0931  0.3724
16601TIP3    H271219   5.052   2.004  16.330  0.1164 -1.1310  0.4226
16602TIP3   OH271220   5.436   4.605   5.704  0.7790  0.3642  0.1836
16602TIP3    H171221   5.430   4.639   5.793  1.8356 -2.2938  1.3749
16602TIP3    H271222   5.374   4.532   5.701  0.9990  0.1905 -1.1488
16603TIP3   OH271223   4.554   4.301   5.916  0.0826  0.2950 -0.3373
16603TIP3    H171224   4.642   4.270   5.898  0.4255  0.5325  0.8640
16603TIP3    H271225   4.499   4.222   5.913  0.3055  0.1575 -1.1445
16604TIP3   OH271226   1.724   2.627  14.172  0.2769  0.2608 -0.3903
16604TIP3    H171227   1.722   2.694  14.105 -1.4088  0.3773 -0.2711
16604TIP3    H271228   1.636   2.589  14.171  0.5863 -0.5744  0.9066
16605TIP3   OH271229   4.439   0.924  12.561 -0.1904 -0.4915 -0.3175
16605TIP3    H171230   4.345   0.911  12.572 -0.3041 -0.1401 -0.7957
16605TIP3    H271231   4.451   1.018  12.574 -0.0416 -0.3940 -1.0982
16606TIP3   OH271232   2.962   6.290   3.588  0.7656 -0.0338 -0.1422
16606TIP3    H171233   2.919   6.228   3.529  1.8059 -0.9406  0.0139
16606TIP3    H271234   2.957   6.374   3.543 -0.7528 -0.1979 -0.3233
16607TIP3   OH271235   4.281   0.870  12.049 -0.6241  0.2098  0.0610
16607TIP3    H171236   4.203   0.860  12.103 -0.9894 -0.6047 -0.5993
16607TIP3    H271237   4.347   0.905  12.108 -1.2131 -0.0051  0.8590
16608TIP3   OH271238   1.717   3.176   1.353  0.3431 -0.5952 -0.2278
16608TIP3    H171239   1.776   3.241   1.390 -0.7171  1.0403 -1.2589
16608TIP3    H271240   1.630   3.202   1.383 -0.1085 -1.5492 -0.6502
16609TIP3   OH271241   5.059   4.110   3.531  0.1245 -0.3676 -0.4201
16609TIP3    H171242   5.017   4.144   3.451 -1.5386  0.9464  0.9221
16609TIP3    H271243   5.152   4.110   3.511 -0.2316  0.1365 -2.2940
16610TIP3   OH271244   1.793   6.228   5.677 -1.0666 -0.1076 -0.7397
16610TIP3    H171245   1.725   6.296   5.674 -0.3407  0.7756  1.0927
16610TIP3    H271246   1.853   6.252   5.606 -2.0427 -0.2339 -1.6325
16611TIP3   OH271247   3.985   2.101   3.400 -0.2217  0.6267 -0.5009
16611TIP3    H171248   3.914   2.118   3.462  0.5607  1.2118  0.2551
16611TIP3    H271249   3.942   2.062   3.324 -1.0295 -1.7717  1.0540
16612TIP3   OH271250   0.333   3.015   3.435 -0.3263  0.0378  0.7285
16612TIP3    H171251   0.407   2.974   3.480  0.1153 -0.0912 -0.1121
16612TIP3    H271252   0.366   3.101   3.409 -0.9117  0.5339  1.5414
16613TIP3   OH271253   1.254   1.200  12.010 -0.7322 -0.2338 -0.5068
16613TIP3    H171254   1.167   1.168  11.986  0.0825 -1.7406 -1.6592
16613TIP3    H271255   1.314   1.136  11.972  0.9360  1.4544 -0.8714
16614TIP3   OH271256   3.396   5.411  11.280  0.0521  0.2219  0.0833
16614TIP3    H171257   3.333   5.471  11.240  0.7581  1.0058  0.1103
16614TIP3    H271258   3.472   5.414  11.222  0.1359 -0.5659  0.1508
16615TIP3   OH271259   6.505   0.058  17.013  0.7112  0.3289  0.0794
16615TIP3    H171260   6.563   0.130  16.988 -1.0836  1.8489  0.0576
16615TIP3    H271261   6.417   0.095  17.006 -0.4498 -2.4605 -1.9266
16616TIP3   OH271262   5.814   2.535  13.629  0.6034  0.3536  0.2419
16616TIP3    H171263   5.736   2.579  13.662  0.5532 -0.2030  0.8982
16616TIP3    H271264   5.879   2.548  13.699  0.9618  0.4293 -0.1011
16617TIP3   OH271265   1.016   5.632   4.198 -0.3747 -0.0473 -0.0254
16617TIP3    H171266   0.954   5.627   4.271 -2.0157  0.1903 -1.3397
16617TIP3    H271267   1.033   5.725   4.187 -0.3030 -0.0655 -0.0724
16618TIP3   OH271268   4.994   0.754   4.808 -0.2002  0.3618 -0.2521
16618TIP3    H171269   4.938   0.812   4.859 -0.0424  0.6865 -0.4435
16618TIP3    H271270   5.080   0.796   4.809  0.8318 -1.5149  2.4369
16619TIP3   OH271271   0.212   0.595   5.761  0.0147 -0.2863  0.1134
16619TIP3    H171272   0.215   0.641   5.844 -2.0518 -2.3330  1.4572
16619TIP3    H271273   0.303   0.585   5.735  0.5935  3.5161  0.2143
16620TIP3   OH271274   0.057   0.760  10.860  0.3073  0.1952 -0.1966
16620TIP3    H171275  -0.035   0.787  10.872  0.7847  1.1121  1.9243
16620TIP3    H271276   0.100   0.838  10.824  0.9245  1.1144  2.3167
16621TIP3   OH271277   5.112   2.209  13.410  1.2233  0.0099 -0.0908
16621TIP3    H171278   5.127   2.218  13.504 -2.1744  1.6126  0.4263
16621TIP3    H271279   5.037   2.265  13.391 -0.3215 -2.7343 -3.1837
16622TIP3   OH271280   1.156   2.806  11.768  0.4002  0.2462 -0.1848
16622TIP3    H171281   1.241   2.788  11.727  1.8215  0.1148  2.6090
16622TIP3    H271282   1.132   2.893  11.737  1.4313  0.2126 -1.1531
16623TIP3   OH271283   5.339   1.583  15.445 -0.2004  0.8203  0.9037
16623TIP3    H171284   5.384   1.660  15.480  0.8312  0.0365  1.3261
16623TIP3    H271285   5.272   1.563  15.510 -1.4352  2.1724  0.1254
16624TIP3   OH271286   5.432   4.872   2.486 -0.3932  0.0302  0.0527
16624TIP3    H171287   5.437   4.932   2.560  0.0309  0.3629 -0.2447
16624TIP3    H271288   5.491   4.800   2.510 -0.0027  0.2956 -0.1039
16625TIP3   OH271289   0.825   2.970   0.348 -0.6012  0.4052 -0.3076
16625TIP3    H171290   0.763   2.981   0.421 -0.3476  1.5313 -0.2499
16625TIP3    H271291   0.862   3.057   0.335  0.1009 -0.0088 -1.1288
16626TIP3   OH271292   5.320   3.097   0.585  0.4640 -0.5169 -0.0283
16626TIP3    H171293   5.353   3.012   0.554 -0.0622 -0.5204 -0.6020
16626TIP3    H271294   5.241   3.112   0.533  0.3834  0.1833  0.2881
16627TIP3   OH271295   4.711   1.029  12.811  0.0890 -0.0552  0.2244
16627TIP3    H171296   4.685   1.083  12.736  1.3472  1.6598  0.9444
16627TIP3    H271297   4.794   0.989  12.784  1.3166  1.7336  1.1562
16628TIP3   OH271298   2.099   2.983   4.842 -0.2107 -0.7363 -0.7046
16628TIP3    H171299   2.036   3.054   4.853  1.4787  0.8864 -1.0065
16628TIP3    H271300   2.056   2.906   4.880 -2.0082  0.4839 -0.1667
16629TIP3   OH271301   1.690   0.288  14.512  0.4912 -0.0776  0.2828
16629TIP3    H171302   1.754   0.263  14.446  1.1271 -0.3228  0.9797
16629TIP3    H271303   1.698   0.221  14.580  0.6746  0.8055  1.1498
16630TIP3   OH271304   4.146   2.552   0.781 -0.4211 -0.2385  0.5297
16630TIP3    H171305   4.131   2.547   0.875 -0.4518 -1.3238  0.4818
16630TIP3    H271306   4.138   2.462   0.751  0.8831 -0.0902 -0.3233
16631TIP3   OH271307   0.819   4.659   0.154  0.2999  0.3468  0.3674
16631TIP3    H171308   0.848   4.574   0.187  1.6420  0.4504 -0.4428
16631TIP3    H271309   0.733   4.643   0.116  0.5171 -0.6416  0.2780
16632TIP3   OH271310   1.884   0.239   3.370  0.3971 -0.0612 -0.8543
16632TIP3    H171311   1.977   0.233   3.346  0.6625  2.9230 -1.0655
16632TIP3    H271312   1.845   0.159   3.337  2.5809 -0.5425 -2.4979
16633TIP3   OH271313   3.881   5.409  15.132  0.0175  0.4518  0.1870
16633TIP3    H171314   3.939   5.469  15.084  1.1086 -1.4230 -0.9901
16633TIP3    H271315   3.821   5.376  15.065  2.0085 -2.7573 -0.2537
16634TIP3   OH271316   2.757   4.548  13.385  1.0054  0.4557 -0.4077
16634TIP3    H171317   2.736   4.454  13.389  0.2758  0.5685 -1.1638
16634TIP3    H271318   2.699   4.582  13.316  0.3920  1.6855  0.6644
16635TIP3   OH271319   3.149   2.287   1.963  0.3690  0.4453 -0.3611
16635TIP3    H171320   3.094   2.214   1.936  0.4997  0.0506  0.3973
16635TIP3    H271321   3.112   2.364   1.919 -0.3464  0.0727 -0.4142
16636TIP3   OH271322   2.069   1.188   3.076 -0.0491 -0.6233 -0.3693
16636TIP3    H171323   2.144   1.189   3.017 -1.5639 -1.2533 -2.4162
16636TIP3    H271324   2.088   1.117   3.138  0.9642 -0.9018 -0.9780
16637TIP3   OH271325   3.714   2.755   4.881 -0.1607 -0.3790  0.1189
16637TIP3    H171326   3.776   2.724   4.947  0.0236  0.9144  0.5943
16637TIP3    H271327   3.763   2.823   4.834 -0.7106 -0.4265 -0.5348
16638TIP3   OH271328   2.581   4.487   2.733  0.1340  0.0291  0.5097
16638TIP3    H171329   2.641   4.562   2.734 -1.4433  1.3597 -0.5533
16638TIP3    H271330   2.584   4.456   2.643 -1.5499  0.7962  0.1582
16639TIP3   OH271331   0.159   2.242  15.118  0.2827  0.5912  0.1812
16639TIP3    H171332   0.236   2.187  15.101 -1.3854 -2.1303  0.8644
16639TIP3    H271333   0.086   2.193  15.082 -1.7121  0.8452  3.4495
16640TIP3   OH271334   2.110   0.849   3.589  0.3525 -0.1401 -0.5416
16640TIP3    H171335   2.178   0.822   3.527  1.8883 -0.0893  1.0438
16640TIP3    H271336   2.114   0.783   3.659 -1.4910 -0.3242 -0.5576
16641TIP3   OH271337   2.328   2.632   3.420 -0.0246 -0.8380  0.0124
16641TIP3    H171338   2.336   2.650   3.326  2.0665  1.7422  0.5799
16641TIP3    H271339   2.404   2.577   3.440  0.0073 -0.6801  0.3294
16642TIP3   OH271340   5.511   3.710   6.280  0.1430  0.0428  0.6021
16642TIP3    H171341   5.508   3.805   6.266  0.5024  0.1856  1.4373
16642TIP3    H271342   5.604   3.688   6.273  0.0201 -0.3067  0.0535
16643TIP3   OH271343   5.681   5.208  11.474  0.2074 -0.2620 -0.0673
16643TIP3    H171344   5.633   5.204  11.557  0.0915 -1.6663 -0.1740
16643TIP3    H271345   5.614   5.206  11.407  0.2085  2.4741 -0.2479
16644TIP3   OH271346   5.899   5.656   0.613 -0.1424 -0.5639  0.8363
16644TIP3    H171347   5.810   5.661   0.579 -0.0511 -0.4036  0.6186
16644TIP3    H271348   5.955   5.683   0.539  0.1478 -1.5951  0.6555
16645TIP3   OH271349   3.032   2.281  11.526  0.0191 -0.6098 -0.4683
16645TIP3    H171350   2.982   2.253  11.603 -1.2131 -2.0384 -1.7405
16645TIP3    H271351   3.103   2.216  11.520  0.0684 -0.5430 -0.5930
16646TIP3   OH271352   0.149   5.396   1.756  0.2956  0.5472 -0.3716
16646TIP3    H171353   0.102   5.422   1.676 -0.5343  1.4179  0.3703
16646TIP3    H271354   0.148   5.474   1.811  3.6107  0.9767 -0.7180
16647TIP3   OH271355   3.567   6.644   4.470 -0.1225 -0.3150 -0.2879
16647TIP3    H171356   3.560   6.740   4.465  1.3530 -0.0692  1.2980
16647TIP3    H271357   3.513   6.620   4.546  2.0991 -0.2827  1.4243
16648TIP3   OH271358   4.503   2.520  10.408  0.0451  0.5263 -0.2276
16648TIP3    H171359   4.445   2.534  10.483  1.5008  0.6388  0.9211
16648TIP3    H271360   4.488   2.428  10.383 -0.3273  0.4331  0.3164
16649TIP3   OH271361   6.486   1.277   4.480 -0.0515  0.0981  0.0691
16649TIP3    H171362   6.518   1.210   4.540 -1.3332 -0.0007  0.6701
16649TIP3    H271363   6.525   1.359   4.511 -0.6705  0.0389  1.0158
16650TIP3   OH271364   1.946   5.665   4.158 -0.5733 -0.5886 -0.1256
16650TIP3    H171365   2.003   5.613   4.102  0.9097  0.0056  0.7887
16650TIP3    H271366   1.950   5.620   4.243  0.7623  0.9996  0.6903
16651TIP3   OH271367   6.469   1.530  10.631 -0.1080 -0.0380 -0.3440
16651TIP3    H171368   6.424   1.578  10.700 -2.3583  0.4281 -2.0301
16651TIP3    H271369   6.479   1.593  10.560 -2.1145 -1.6549 -2.1844
16652TIP3   OH271370   0.098   3.533   0.895 -0.2559 -0.0820 -0.2274
16652TIP3    H171371   0.177   3.488   0.865  0.4406  1.3582 -0.5948
16652TIP3    H271372   0.071   3.484   0.973  2.6388  1.0714  1.6255
16653TIP3   OH271373   2.491   2.056   2.087  0.0437  0.2175 -0.1331
16653TIP3    H171374   2.553   2.047   2.159  2.5268  2.4958 -1.8025
16653TIP3    H271375   2.421   2.111   2.123  0.3660 -0.0712  0.9812
16654TIP3   OH271376   0.851   6.773   0.052  0.2968 -0.4923  0.8342
16654TIP3    H171377   0.831   6.744  -0.037 -0.5199  2.1411  0.0857
16654TIP3    H271378   0.769   6.761   0.100  0.0949  0.1278  0.6471
16655TIP3   OH271379   1.459   2.300  14.785 -0.3431  0.5266 -0.4386
16655TIP3    H171380   1.517   2.308  14.861  2.0208 -2.1229 -1.7802
16655TIP3    H271381   1.504   2.346  14.715  0.4670 -1.8823 -1.5957
16656TIP3   OH271382   0.326   4.206   2.456 -0.1167 -0.3910 -0.2354
16656TIP3    H171383   0.400   4.260   2.483 -1.1424  0.8169  0.2468
16656TIP3    H271384   0.354   4.165   2.374  0.5114  1.2525 -0.8755
16657TIP3   OH271385   4.236   5.921  15.169  0.3410 -0.2926  0.1138
16657TIP3    H171386   4.211   5.902  15.079  0.1827  0.3944  0.0033
16657TIP3    H271387   4.205   6.011  15.183 -0.2038 -0.6141  1.0583
16658TIP3   OH271388   5.330   6.622  12.615  0.1219 -0.0709  0.1663
16658TIP3    H171389   5.335   6.528  12.599  2.1862 -0.0570  0.4048
16658TIP3    H271390   5.370   6.662  12.538 -0.1292  0.5682  0.3591
16659TIP3   OH271391   1.500   3.414  13.894 -0.0397 -0.1855  0.1933
16659TIP3    H171392   1.492   3.407  13.989 -2.2466  0.3177  0.0944
16659TIP3    H271393   1.528   3.505  13.879 -0.8453  0.0871  0.3247
16660TIP3   OH271394   0.715   5.919  14.740 -0.2708  0.1260  0.4001
16660TIP3    H171395   0.802   5.902  14.702 -0.1405  0.7875  0.3822
16660TIP3    H271396   0.710   6.015  14.744 -1.0125  0.0907  0.3768
16661TIP3   OH271397   1.528   2.343   3.125  0.4117  0.0988  0.5633
16661TIP3    H171398   1.514   2.257   3.085 -0.7913  0.3916  0.3115
16661TIP3    H271399   1.585   2.326   3.200  0.0126 -0.9551  0.6463
16662TIP3   OH271400   1.233   4.486  14.469  0.3869 -0.1901  0.2736
16662TIP3    H171401   1.280   4.439  14.538  1.5472 -1.9667 -1.6234
16662TIP3    H271402   1.179   4.419  14.427 -0.3299  0.8646 -0.5307
16663TIP3   OH271403   3.528   2.063   2.780  0.1673 -0.1474  0.3890
16663TIP3    H171404   3.534   2.157   2.760  1.9394 -0.2771  0.1767
16663TIP3    H271405   3.460   2.058   2.847 -2.5672  0.8587 -2.0766
16664TIP3   OH271406   1.514   2.436  16.021  0.1647  0.4505  0.3901
16664TIP3    H171407   1.495   2.473  16.107 -1.4852  1.3359 -0.3117
16664TIP3    H271408   1.439   2.379  16.002  1.5903 -1.5874  0.4731
16665TIP3   OH271409   5.072   3.171   6.050  0.3125  0.1771 -0.0859
16665TIP3    H171410   5.040   3.248   6.098 -0.1031  0.7615 -1.2707
16665TIP3    H271411   5.037   3.096   6.099 -0.8524  0.7734  0.0226
16666TIP3   OH271412   0.361   0.929  14.356  0.1985  0.4545 -0.6430
16666TIP3    H171413   0.419   0.973  14.419  0.7093 -0.1536 -0.6740
16666TIP3    H271414   0.276   0.972  14.367 -0.3377 -1.0307  2.0408
16667TIP3   OH271415   0.324   5.091   6.021 -0.2052 -0.3889  0.1722
16667TIP3    H171416   0.254   5.120   6.080 -1.2086 -0.2942 -1.0061
16667TIP3    H271417   0.301   5.000   6.001  0.1676 -0.4406 -0.0160
16668TIP3   OH271418   3.600   1.046  11.183  0.3120 -0.4925 -0.1168
16668TIP3    H171419   3.665   0.992  11.227 -0.6873  0.5904  3.0463
16668TIP3    H271420   3.648   1.093  11.116  2.2275 -1.5908  0.4225
16669TIP3   OH271421   1.804   5.853   1.007  0.1417  0.1661 -0.5718
16669TIP3    H171422   1.866   5.782   0.991  0.0793 -0.3669  1.2972
16669TIP3    H271423   1.840   5.900   1.082 -2.3048 -1.0065  1.5182
16670TIP3   OH271424   5.373   6.519  13.005  0.8229 -0.3107 -1.0022
16670TIP3    H171425   5.289   6.476  12.992  0.5522 -0.7255  1.6402
16670TIP3    H271426   5.433   6.476  12.944 -0.7615 -0.2358 -2.6802
16671TIP3   OH271427   5.796   3.891  14.006 -0.1745  0.3618  0.9376
16671TIP3    H171428   5.839   3.964  13.963  0.0321 -0.0393  0.4580
16671TIP3    H271429   5.862   3.855  14.065 -0.4178  0.8335  1.5046
16672TIP3   OH271430   5.604   3.992  13.292 -0.2318 -0.7537  0.0385
16672TIP3    H171431   5.553   4.020  13.216 -0.6657  1.5878  1.0788
16672TIP3    H271432   5.563   4.038  13.366  3.3237  1.3183  0.9514
16673TIP3   OH271433   2.578   4.457  15.871  0.4940 -0.5807  0.1509
16673TIP3    H171434   2.612   4.420  15.790 -0.7227 -0.8299 -0.2726
16673TIP3    H271435   2.636   4.529  15.892  0.1723  0.2223 -1.5710
16674TIP3   OH271436   0.537   2.771  14.525  0.6156  0.3929  0.1172
16674TIP3    H171437   0.596   2.823  14.470  1.6711 -0.9610 -0.0765
16674TIP3    H271438   0.558   2.680  14.504  0.0340 -0.1513  1.7163
16675TIP3   OH271439   4.079   4.137   1.219  0.4523  0.3498 -0.2626
16675TIP3    H171440   4.108   4.083   1.146  1.6611  1.8564 -0.9462
16675TIP3    H271441   3.983   4.135   1.214  0.5145  0.0031 -1.5649
16676TIP3   OH271442   6.113   5.452  13.116  0.1028  0.2818 -0.0921
16676TIP3    H171443   6.066   5.380  13.074  0.7435  0.4429 -1.0984
16676TIP3    H271444   6.177   5.481  13.051 -1.3320  2.9718 -0.4425
16677TIP3   OH271445   3.430   5.965   1.951  0.7175  0.3291 -0.3453
16677TIP3    H171446   3.374   5.893   1.981  0.9108  0.8585  1.3969
16677TIP3    H271447   3.518   5.927   1.948  0.5624  0.0039 -1.2922
16678TIP3   OH271448   5.902   0.345  13.194 -1.1403 -0.0211  0.1761
16678TIP3    H171449   5.950   0.268  13.226 -1.7348 -0.0222  1.0993
16678TIP3    H271450   5.965   0.417  13.200 -1.2188 -0.0346  1.3262
16679TIP3   OH271451   2.152   4.009   5.048 -0.3234 -0.3404  0.0775
16679TIP3    H171452   2.113   3.926   5.074 -0.3827 -0.5558 -0.6879
16679TIP3    H271453   2.188   3.993   4.961 -0.5387  0.4988 -0.1796
16680TIP3   OH271454   4.943   2.158  12.482  0.0995 -0.5730 -0.7736
16680TIP3    H171455   4.908   2.241  12.451 -0.4623 -0.1348  0.9481
16680TIP3    H271456   5.037   2.165  12.468  0.2641  1.0123  0.7178
16681TIP3   OH271457   0.564   2.492   3.588  0.2422 -0.1176 -0.4096
16681TIP3    H171458   0.472   2.471   3.571  0.0347  0.9674 -0.6990
16681TIP3    H271459   0.583   2.450   3.672 -0.4278 -0.6243 -0.5056
16682TIP3   OH271460   1.428   0.913   1.307 -0.3159  0.0925  0.4399
16682TIP3    H171461   1.495   0.897   1.373  0.2416  1.1539  0.1609
16682TIP3    H271462   1.476   0.914   1.224 -0.4721  1.9144  0.3310
16683TIP3   OH271463   3.161   1.234  10.328  0.2582  0.4928  0.5092
16683TIP3    H171464   3.244   1.246  10.374  0.2727  0.6078  0.4554
16683TIP3    H271465   3.103   1.194  10.392  0.4124  0.2363  0.4865
16684TIP3   OH271466   5.253   6.395  14.048 -0.5490  0.4299 -0.1776
16684TIP3    H171467   5.161   6.419  14.059 -0.9561 -1.4781  1.2282
16684TIP3    H271468   5.255   6.300  14.064  1.7971  0.5913  0.9281
16685TIP3   OH271469   4.377   3.266  16.251  0.0123  0.3941  0.0128
16685TIP3    H171470   4.429   3.194  16.286 -0.2932 -1.0742 -2.3028
16685TIP3    H271471   4.291   3.256  16.291  0.0426 -0.4032 -0.1033
16686TIP3   OH271472   3.373   0.339   6.185 -0.3433  0.2206  0.2139
16686TIP3    H171473   3.453   0.289   6.178 -0.9779 -0.6340 -1.3544
16686TIP3    H271474   3.321   0.293   6.251  0.6772  1.1520  1.7174
16687TIP3   OH271475   0.806   1.784   4.356 -0.0488 -0.2462 -0.0204
16687TIP3    H171476   0.755   1.762   4.278 -0.5224  0.1972  0.1532
16687TIP3    H271477   0.857   1.862   4.330  1.0949 -1.0970 -0.4166
16688TIP3   OH271478   5.364   5.245  14.831 -0.7602  0.1427  0.4388
16688TIP3    H171479   5.292   5.234  14.893 -0.6402  1.7268  0.9089
16688TIP3    H271480   5.322   5.257  14.746 -1.2861  3.8126  1.0783
16689TIP3   OH271481   2.368   1.549  16.358 -0.3318 -0.2463  0.5716
16689TIP3    H171482   2.395   1.547  16.266 -0.5060 -1.1679  0.5333
16689TIP3    H271483   2.343   1.640  16.373 -1.6473 -0.3640 -0.6907
16690TIP3   OH271484   2.445   5.717  15.952 -0.3918 -0.3119 -0.5605
16690TIP3    H171485   2.410   5.732  15.864 -0.3663 -0.4805 -0.5997
16690TIP3    H271486   2.392   5.772  16.009 -1.2900 -1.2053 -0.4960
16691TIP3   OH271487   5.016   2.310  16.355  0.4140 -0.3456  0.1845
16691TIP3    H171488   5.071   2.247  16.308 -0.4767 -0.3558 -0.8959
16691TIP3    H271489   5.055   2.395  16.336 -0.5012 -0.2423 -1.4875
16692TIP3   OH271490   4.172   3.736  13.310  0.0344 -0.2403 -0.4852
16692TIP3    H171491   4.109   3.715  13.241 -0.4968  0.2001 -0.1401
16692TIP3    H271492   4.248   3.682  13.289 -0.7591 -1.4320 -0.4458
16693TIP3   OH271493   1.004   5.390  15.472  0.0040 -0.1026 -0.3752
16693TIP3    H171494   1.050   5.394  15.556  0.3103  1.0406 -0.5785
16693TIP3    H271495   1.073   5.371  15.408 -0.3985 -2.1945 -0.2683
16694TIP3   OH271496   0.994   4.474  15.715  0.5610 -0.7473 -0.2433
16694TIP3    H171497   1.077   4.519  15.703  1.3047 -2.2792 -1.2503
16694TIP3    H271498   0.947   4.526  15.780  2.0351  0.5035 -0.1225
16695TIP3   OH271499   1.341   5.202   4.167  0.2851  0.2417 -0.4950
16695TIP3    H171500   1.340   5.297   4.181  1.5512  0.2233 -0.1733
16695TIP3    H271501   1.361   5.165   4.253  3.0840 -0.1300 -1.2306
16696TIP3   OH271502   0.494   2.951  10.947  0.1165 -0.1861 -0.2646
16696TIP3    H171503   0.501   3.005  10.869 -0.6031  2.4702  1.3666
16696TIP3    H271504   0.455   2.869  10.916 -0.0542  0.7285 -2.6808
16697TIP3   OH271505   1.066   3.938  12.015  0.3162  0.2667  0.0150
16697TIP3    H171506   1.158   3.951  12.037  0.5234 -0.2852 -0.4947
16697TIP3    H271507   1.062   3.849  11.980 -0.2789  0.5345 -0.6241
16698TIP3   OH271508   5.767   0.101  12.931  0.6306 -0.0453  0.0838
16698TIP3    H171509   5.685   0.131  12.891 -0.7554 -3.2407  0.2095
16698TIP3    H271510   5.831   0.166  12.905 -0.8343 -0.0681 -4.6146
16699TIP3   OH271511   2.853   3.825   1.453  0.2086  1.0665 -0.2741
16699TIP3    H171512   2.877   3.862   1.367 -0.7137 -1.4472 -1.6981
16699TIP3    H271513   2.794   3.890   1.491  0.0359  1.9045 -1.8711
16700TIP3   OH271514   3.707   4.157  14.612 -0.4017 -0.4637 -0.4124
16700TIP3    H171515   3.691   4.251  14.605 -0.1092 -0.4566 -0.9798
16700TIP3    H271516   3.743   4.146  14.700 -0.6884 -0.0827 -0.2433
16701TIP3   OH271517   5.511   1.390  16.171 -0.2426  0.3758  0.1944
16701TIP3    H171518   5.504   1.298  16.195 -1.6770  0.3623 -0.1840
16701TIP3    H271519   5.569   1.390  16.095 -1.8670 -0.5063 -1.1215
16702TIP3   OH271520   1.466   0.370  12.137 -0.5624 -0.2501 -0.0043
16702TIP3    H171521   1.560   0.385  12.126 -0.5254 -1.0453 -0.9546
16702TIP3    H271522   1.434   0.448  12.181  0.6518 -0.2432  0.9005
16703TIP3   OH271523   1.048   2.761   1.705 -0.1910  0.5698  0.4961
16703TIP3    H171524   1.008   2.824   1.645 -0.2683  0.1433  0.0908
16703TIP3    H271525   1.060   2.809   1.787 -2.2192  0.4930  0.8797
16704TIP3   OH271526   0.147   0.918  12.821  0.1595  0.4043 -0.0032
16704TIP3    H171527   0.179   0.982  12.884  0.8618  1.8837 -1.7861
16704TIP3    H271528   0.167   0.833  12.862  0.6999  1.2851  1.6823
16705TIP3   OH271529   3.003   6.322  13.264 -0.4648 -0.5003 -0.1878
16705TIP3    H171530   3.097   6.341  13.254 -0.2526 -1.0004  0.7072
16705TIP3    H271531   2.983   6.264  13.190 -0.1816 -0.0176 -0.6521
16706TIP3   OH271532   6.730   6.361   1.146 -0.5505 -0.0365 -0.2684
16706TIP3    H171533   6.811   6.396   1.183 -1.4014 -0.0186  1.6911
16706TIP3    H271534   6.692   6.434   1.099 -0.1130  0.3740  0.0064
16707TIP3   OH271535   5.730   2.941   3.235 -0.0988  0.1870  0.4515
16707TIP3    H171536   5.652   2.908   3.191 -0.8183  0.5229  1.4340
16707TIP3    H271537   5.779   2.986   3.166  0.3194 -1.8605 -0.6370
16708TIP3   OH271538   0.096   3.560   3.300  0.2913  0.3685  0.1026
16708TIP3    H171539   0.126   3.490   3.242  2.1629 -0.7633  2.2993
16708TIP3    H271540   0.059   3.626   3.241  1.1557 -1.1506 -2.2604
16709TIP3   OH271541   3.923   2.038   0.499 -0.6650  0.4153  0.0629
16709TIP3    H171542   3.912   1.996   0.584 -0.0166  0.2131  0.0550
16709TIP3    H271543   3.988   1.984   0.454 -2.4568 -0.6756 -1.3587
16710TIP3   OH271544   5.742   1.258   3.732  0.2551  0.7330 -0.1956
16710TIP3    H171545   5.743   1.312   3.652  3.3998 -0.8062 -1.3527
16710TIP3    H271546   5.654   1.221   3.734 -0.6522  2.6222 -1.6524
16711TIP3   OH271547   3.745   3.386  11.621 -0.5175 -0.0510  0.2422
16711TIP3    H171548   3.835   3.396  11.652 -1.0608  0.2740  1.8080
16711TIP3    H271549   3.733   3.291  11.613  0.1493 -0.0803 -0.6321
16712TIP3   OH271550   1.917   2.104  16.606 -0.4422  0.8808 -0.0503
16712TIP3    H171551   1.967   2.185  16.614  2.4185 -0.6087 -1.2135
16712TIP3    H271552   1.984   2.036  16.601 -2.7203 -1.7270  2.0854
16713TIP3   OH271553   1.163   0.733   6.088 -0.1774 -0.3519 -0.0542
16713TIP3    H171554   1.180   0.658   6.145 -0.8140 -1.8461 -1.7006
16713TIP3    H271555   1.235   0.793   6.105  1.4078 -2.1749  0.0410
16714TIP3   OH271556   1.647   3.068  15.622 -0.3988 -0.6965 -0.2055
16714TIP3    H171557   1.577   3.094  15.562  0.4494  1.9737 -0.1429
16714TIP3    H271558   1.723   3.054  15.567  0.1504  0.8977  0.0824
16715TIP3   OH271559   2.119   5.951   0.929  0.1252 -0.2691 -0.0743
16715TIP3    H171560   2.026   5.957   0.950 -0.0674 -0.7391 -0.7319
16715TIP3    H271561   2.123   5.963   0.834  0.3723 -3.1222 -0.5355
16716TIP3   OH271562   2.993   4.234  15.337  0.2774  0.0724 -0.5002
16716TIP3    H171563   2.958   4.276  15.258 -0.4901 -0.4367 -0.4402
16716TIP3    H271564   2.921   4.179  15.369  0.6286  0.1658  0.4798
16717TIP3   OH271565   5.522   6.179   2.471 -0.4248 -0.3640 -0.5082
16717TIP3    H171566   5.456   6.247   2.468  1.2005  1.4179  1.1141
16717TIP3    H271567   5.567   6.192   2.555 -0.1321 -3.5785 -0.0182
16718TIP3   OH271568   0.493   2.568  12.474 -0.0942 -0.1454 -0.0328
16718TIP3    H171569   0.534   2.592  12.391  0.4204 -1.0025 -0.0371
16718TIP3    H271570   0.434   2.496  12.452 -1.1830  0.6864  0.0779
16719TIP3   OH271571   1.761   5.857   2.892 -0.1624  0.3802 -0.0691
16719TIP3    H171572   1.688   5.796   2.898 -0.6691  0.9327 -0.4286
16719TIP3    H271573   1.836   5.804   2.866 -0.3732 -0.2375  0.5704
16720TIP3   OH271574   2.161   0.474  12.737  0.3575  0.4097  0.1847
16720TIP3    H171575   2.230   0.421  12.698  0.3588  0.7313 -0.2636
16720TIP3    H271576   2.128   0.527  12.665  0.1982  0.8476  0.5716
16721TIP3   OH271577   1.182   4.255   6.332  0.0924  0.1997  0.1718
16721TIP3    H171578   1.254   4.318   6.323  0.7395 -0.7115 -1.3920
16721TIP3    H271579   1.225   4.176   6.366 -0.3591 -0.0305  0.2041
16722TIP3   OH271580   1.253   3.404   0.427 -0.2701  0.1724  0.5230
16722TIP3    H171581   1.190   3.449   0.370 -1.6517 -0.8990  1.1343
16722TIP3    H271582   1.257   3.458   0.506 -1.4573 -0.3997  1.0080
16723TIP3   OH271583   1.204   2.378   2.210 -0.2065 -0.5376 -0.3507
16723TIP3    H171584   1.129   2.430   2.182 -2.2647 -2.6254  0.9586
16723TIP3    H271585   1.217   2.314   2.141  0.2060 -0.3650 -0.4378
16724TIP3   OH271586   3.761   5.138   5.877 -0.0290 -0.4410 -0.0147
16724TIP3    H171587   3.844   5.186   5.878  0.8605 -1.9141  0.5284
16724TIP3    H271588   3.738   5.127   5.969 -1.4135  0.8800 -0.1761
16725TIP3   OH271589   6.204   0.593   5.460 -0.1558 -0.0250 -0.0245
16725TIP3    H171590   6.241   0.512   5.496 -1.3680 -0.5587  0.0657
16725TIP3    H271591   6.261   0.663   5.494  1.1686 -0.8513 -0.4589
16726TIP3   OH271592   5.244   3.642  16.878 -0.5354  0.5296 -0.3267
16726TIP3    H171593   5.325   3.594  16.860 -0.0203  1.2453  0.0435
16726TIP3    H271594   5.188   3.578  16.923  0.3066  0.3950  0.5653
16727TIP3   OH271595   1.481   3.851   5.762 -0.5183  0.0798  0.7740
16727TIP3    H171596   1.565   3.860   5.717  0.0853  0.1980  1.8867
16727TIP3    H271597   1.451   3.942   5.774 -1.5191  0.0117 -0.8603
16728TIP3   OH271598   3.332   1.368  11.538  0.6062  0.0676 -0.3336
16728TIP3    H171599   3.397   1.360  11.468  0.2800  1.1105 -0.7803
16728TIP3    H271600   3.310   1.461  11.539 -1.3539 -0.3621 -0.6107
16729TIP3   OH271601   0.808   6.513  12.948  0.0913 -0.4283  0.4392
16729TIP3    H171602   0.827   6.430  12.905 -0.8031 -1.2773  1.6019
16729TIP3    H271603   0.725   6.541  12.909  1.4790  1.1172 -1.5814
16730TIP3   OH271604   4.985   5.930  10.901  0.0885  0.5219 -0.5024
16730TIP3    H171605   5.020   5.955  10.987 -0.3265 -0.1718 -0.1231
16730TIP3    H271606   5.063   5.919  10.846  0.3974  0.3831 -0.0475
16731TIP3   OH271607   6.418   4.415   3.440 -0.3099  0.8657 -0.3153
16731TIP3    H171608   6.349   4.411   3.507 -1.7270  2.2833 -1.6113
16731TIP3    H271609   6.499   4.425   3.490 -1.0580 -0.4093  1.2457
16732TIP3   OH271610   5.933   3.511  15.941 -0.2181 -0.4416  0.2986
16732TIP3    H171611   5.994   3.444  15.912  0.9086 -0.0473  1.6717
16732TIP3    H271612   5.861   3.506  15.878  0.3662 -2.1450 -0.3017
16733TIP3   OH271613   0.613   5.175  11.765 -0.5090  0.0754 -0.4004
16733TIP3    H171614   0.639   5.124  11.688  1.7385 -0.8635  0.8593
16733TIP3    H271615   0.536   5.224  11.737 -1.1336 -1.9501 -2.5210
16734TIP3   OH271616   6.103   2.883   5.226  0.2344  0.0026 -0.1710
16734TIP3    H171617   6.161   2.953   5.196  0.7788  0.2879  1.4818
16734TIP3    H271618   6.027   2.929   5.263 -0.2407 -0.3388 -0.6934
16735TIP3   OH271619   4.449   4.193   3.729 -0.0819 -0.0239  0.2281
16735TIP3    H171620   4.488   4.135   3.795  0.7375 -0.0148 -0.2380
16735TIP3    H271621   4.524   4.229   3.681 -0.5250  1.9950  0.9620
16736TIP3   OH271622   5.677   5.032   5.071 -0.1047  0.0970 -0.2860
16736TIP3    H171623   5.602   5.077   5.109 -1.5170 -0.4422 -2.2407
16736TIP3    H271624   5.649   5.012   4.981  2.5312  0.2239 -1.2198
16737TIP3   OH271625   1.573   4.231  13.236 -0.0286 -0.0515 -0.6323
16737TIP3    H171626   1.580   4.325  13.221  2.7521 -0.2542 -1.2272
16737TIP3    H271627   1.627   4.192  13.167 -1.9567 -2.2065 -1.0731
16738TIP3   OH271628   3.403   1.149   3.722 -0.2471  0.2123  0.6240
16738TIP3    H171629   3.456   1.191   3.655  1.3901  0.5908  2.0788
16738TIP3    H271630   3.430   1.190   3.804 -2.6641  0.2494  1.4902
16739TIP3   OH271631   2.714   2.722  13.495 -0.2078 -0.1003  0.4124
16739TIP3    H171632   2.692   2.741  13.586 -1.1219 -1.4230  0.4964
16739TIP3    H271633   2.642   2.759  13.444 -0.0087  0.0971  0.2716
16740TIP3   OH271634   2.641   0.706   5.463 -0.4977  0.1008  0.1248
16740TIP3    H171635   2.615   0.642   5.530 -0.3672 -0.0294  0.0539
16740TIP3    H271636   2.680   0.778   5.513 -1.8989  0.7620  0.3023
16741TIP3   OH271637   4.403   0.531   2.361 -0.2717 -0.0383 -0.3123
16741TIP3    H171638   4.392   0.579   2.443  1.4540 -0.5334  0.2618
16741TIP3    H271639   4.434   0.444   2.388  0.5886 -0.1237 -1.4809
16742TIP3   OH271640   5.172   6.598   3.448  0.2023 -0.1288 -0.8393
16742TIP3    H171641   5.113   6.528   3.476 -0.9064  0.9610 -0.3721
16742TIP3    H271642   5.200   6.573   3.360 -0.5653 -0.9018 -0.8740
16743TIP3   OH271643   0.995   6.618  12.240  0.5121 -0.4536  0.3691
16743TIP3    H171644   1.079   6.582  12.269  1.2006 -1.2301 -2.2263
16743TIP3    H271645   0.987   6.588  12.149 -2.0777  0.5238  0.1845
16744TIP3   OH271646   2.917   3.736  12.994  0.0201  0.5712  0.5896
16744TIP3    H171647   2.914   3.729  12.899  1.5971 -2.4883  0.6538
16744TIP3    H271648   2.991   3.794  13.012  1.9360 -1.5280 -0.1142
16745TIP3   OH271649   0.258   1.876  13.475  0.0815  0.5970 -0.4184
16745TIP3    H171650   0.346   1.901  13.502  1.0920 -0.2574 -2.6675
16745TIP3    H271651   0.258   1.780  13.480 -0.7830  0.5975 -0.3067
16746TIP3   OH271652   3.917   4.074  15.871  0.3755  0.0344  0.2170
16746TIP3    H171653   3.859   4.063  15.947 -0.0065 -1.3303 -0.2427
16746TIP3    H271654   3.989   4.014  15.887  0.8919  0.6050  0.0493
16747TIP3   OH271655   6.568   2.021   4.489  0.1308  0.0721  0.5047
16747TIP3    H171656   6.629   1.954   4.456  1.4835  0.6562  1.7263
16747TIP3    H271657   6.549   2.076   4.413  0.9796 -0.2341  0.0622
16748TIP3   OH271658   1.400   0.126  17.031  0.2964  0.0012  0.2388
16748TIP3    H171659   1.353   0.071  16.968 -0.3170  0.1346  0.5694
16748TIP3    H271660   1.406   0.212  16.989  1.1502 -0.2766 -0.2256
16749TIP3   OH271661   6.389   4.699   4.511 -0.0299 -0.6131 -0.2167
16749TIP3    H171662   6.301   4.667   4.533 -0.8770  1.0516 -0.9456
16749TIP3    H271663   6.409   4.762   4.581 -0.0121  0.0079 -0.7707
16750TIP3   OH271664   6.178   3.397   4.553  0.3586  0.5178 -0.2622
16750TIP3    H171665   6.136   3.461   4.609 -0.6785 -1.1066  0.9288
16750TIP3    H271666   6.108   3.336   4.530  1.7386 -1.5418  0.6609
16751TIP3   OH271667   5.938   2.312  16.236 -0.2477  0.5273  0.1348
16751TIP3    H171668   5.981   2.240  16.192  1.2570  1.3106  0.2488
16751TIP3    H271669   5.870   2.341  16.175  1.6995  1.5205 -1.6820
16752TIP3   OH271670   6.223   2.761  13.208 -0.0397 -0.1839  0.2902
16752TIP3    H171671   6.146   2.745  13.155 -0.7207 -1.2869  1.5401
16752TIP3    H271672   6.207   2.845  13.250 -0.3023 -0.1407  0.0994
16753TIP3   OH271673   0.585   2.238   3.090 -0.0063 -0.0091 -0.2080
16753TIP3    H171674   0.663   2.257   3.142 -0.3246  1.4061 -0.1905
16753TIP3    H271675   0.575   2.143   3.095  0.7187 -0.0410  1.2182
16754TIP3   OH271676   4.853   2.498  16.786 -0.3105 -0.5047  0.0563
16754TIP3    H171677   4.854   2.425  16.725  0.6934 -0.5799  0.1466
16754TIP3    H271678   4.917   2.475  16.853  0.5727  0.7716 -0.3078
16755TIP3   OH271679   5.878   4.153  16.060 -0.1814  0.1741 -0.1151
16755TIP3    H171680   5.874   4.207  16.139 -0.5801  0.9280 -0.6355
16755TIP3    H271681   5.932   4.078  16.084  0.4328  0.8389  0.6041
16756TIP3   OH271682   5.323   3.445  11.306 -0.4511  0.0359  0.2626
16756TIP3    H171683   5.248   3.502  11.286  0.5104  0.7535 -1.4811
16756TIP3    H271684   5.341   3.400  11.224  0.1587 -1.1890  1.0512
16757TIP3   OH271685   4.335   4.174  15.957  0.3355 -0.9189  1.1365
16757TIP3    H171686   4.298   4.213  16.037  0.0696 -2.4014  1.7714
16757TIP3    H271687   4.420   4.139  15.985  1.1096  0.2102  0.2907
16758TIP3   OH271688   4.875   6.406  11.157  0.0018 -0.0256  0.0077
16758TIP3    H171689   4.903   6.440  11.072  0.9025 -0.1522  0.2507
16758TIP3    H271690   4.913   6.319  11.162  0.1314  0.0646  0.6279
16759TIP3   OH271691   0.168   4.162  12.253  0.2137  0.1609 -0.1721
16759TIP3    H171692   0.219   4.107  12.313  3.1624 -0.0649 -2.6267
16759TIP3    H271693   0.138   4.101  12.185 -0.7990  0.8230 -0.3339
16760TIP3   OH271694   0.442   0.043  14.008 -0.1137  0.6008 -0.2523
16760TIP3    H171695   0.472   0.115  14.064  0.6471 -0.3238  0.5693
16760TIP3    H271696   0.431   0.083  13.922  1.9392  1.3656 -0.2230
16761TIP3   OH271697   0.144   5.415   4.559  0.2813  0.6778  0.0088
16761TIP3    H171698   0.207   5.349   4.528  0.0057 -0.2290  1.2840
16761TIP3    H271699   0.105   5.450   4.479  0.7994 -0.3621 -0.7311
16762TIP3   OH271700   5.790   4.318   5.895  0.0003 -0.4349  0.3412
16762TIP3    H171701   5.759   4.258   5.963 -2.7557  1.4962  0.9325
16762TIP3    H271702   5.842   4.383   5.943 -2.5053  1.3159  0.8385
16763TIP3   OH271703   5.404   4.030  14.685 -0.5272  0.0826 -0.4987
16763TIP3    H171704   5.350   3.988  14.617  0.8259 -0.4703 -1.2789
16763TIP3    H271705   5.489   4.042  14.643  0.4896 -0.6817  1.2508
16764TIP3   OH271706   3.585   0.777  15.653  0.0608  0.6117 -0.3158
16764TIP3    H171707   3.507   0.722  15.642 -0.6769  1.3155  1.1465
16764TIP3    H271708   3.591   0.827  15.572  0.2698 -0.9941 -1.3312
16765TIP3   OH271709   5.774   5.120  16.813  0.4468  0.2223 -0.1187
16765TIP3    H171710   5.693   5.171  16.819  0.1874 -0.2951  1.9937
16765TIP3    H271711   5.761   5.062  16.738  0.1058  2.1388 -1.5812
16766TIP3   OH271712   1.790   0.401   3.161  0.1725  0.4393 -0.0422
16766TIP3    H171713   1.813   0.330   3.221 -1.6019 -0.4835 -0.3924
16766TIP3    H271714   1.755   0.469   3.218  0.3045  0.3604  0.1358
16767TIP3   OH271715   0.785   1.680  15.436  0.3219  0.2449  0.1371
16767TIP3    H171716   0.782   1.696  15.530 -0.0558  2.4376 -0.2022
16767TIP3    H271717   0.819   1.762  15.399 -0.9877 -0.0181 -1.7538
16768TIP3   OH271718   1.522   5.441  13.322  0.0653  0.3343 -0.3184
16768TIP3    H171719   1.528   5.401  13.409 -1.5068  0.9052  0.0869
16768TIP3    H271720   1.535   5.369  13.261  0.7703 -0.1484  0.3928
16769TIP3   OH271721   5.604   5.180  13.362  0.0597  0.1872 -0.5956
16769TIP3    H171722   5.695   5.150  13.362 -0.0270 -0.4117  2.2363
16769TIP3    H271723   5.552   5.100  13.373 -0.7108  0.6638 -0.6639
16770TIP3   OH271724   0.664   5.890   1.849 -0.0308  0.1569  0.0991
16770TIP3    H171725   0.628   5.808   1.815  0.1573  0.0241  0.2144
16770TIP3    H271726   0.613   5.908   1.928  0.4189 -0.2417  0.4833
16771TIP3   OH271727   4.594   1.371   0.552  0.3681  0.3570 -0.1700
16771TIP3    H171728   4.545   1.448   0.526 -1.0320  0.1874  1.7419
16771TIP3    H271729   4.636   1.340   0.472 -0.8559  1.8025 -1.4128
16772TIP3   OH271730   3.227   1.907   5.921 -0.0967  0.3846  0.2183
16772TIP3    H171731   3.181   1.990   5.906 -1.4227 -0.5003 -0.9188
16772TIP3    H271732   3.193   1.849   5.853  1.7770 -0.7253  0.1691
16773TIP3   OH271733   4.902   5.067  15.710 -0.0517 -0.2869 -0.1737
16773TIP3    H171734   4.964   5.049  15.639 -0.0850 -0.0485 -0.2648
16773TIP3    H271735   4.816   5.069  15.667 -0.2734 -1.8832  0.1510
16774TIP3   OH271736   3.403   5.705   5.108  0.5356  0.3092  0.0187
16774TIP3    H171737   3.434   5.614   5.107  0.9165  0.4312 -0.9044
16774TIP3    H271738   3.460   5.749   5.171  1.4594  0.2518 -0.7381
16775TIP3   OH271739   4.581   1.031  16.208  0.2923 -0.5984  0.4932
16775TIP3    H171740   4.651   1.031  16.274  1.1403 -0.3519 -0.3738
16775TIP3    H271741   4.623   1.067  16.130 -0.3032 -2.1604 -0.5777
16776TIP3   OH271742   4.422   1.346  13.304 -0.3971  0.0730 -0.5941
16776TIP3    H171743   4.339   1.388  13.282 -0.1318  0.2660 -1.2405
16776TIP3    H271744   4.407   1.306  13.390 -1.3237 -0.3534 -0.9414
16777TIP3   OH271745   0.390   0.403   4.051 -0.3999  0.0988  0.6292
16777TIP3    H171746   0.346   0.421   4.134 -0.3596 -1.0321  0.9044
16777TIP3    H271747   0.341   0.455   3.987 -0.6454  0.7155  1.2936
16778TIP3   OH271748   1.789   2.947   1.564 -0.5226  0.1019 -0.2018
16778TIP3    H171749   1.882   2.955   1.584 -0.5449 -1.3193  0.6140
16778TIP3    H271750   1.778   2.995   1.482  1.0562 -0.2638 -0.6679
16779TIP3   OH271751   1.891   6.270  15.104  0.1139  0.3246  0.0417
16779TIP3    H171752   1.803   6.302  15.121 -0.0773  0.4806 -1.1240
16779TIP3    H271753   1.948   6.325  15.158 -0.5608 -0.4062  1.5348
16780TIP3   OH271754   0.285   1.612  13.454 -0.1564 -0.6876  0.2030
16780TIP3    H171755   0.264   1.520  13.468 -0.6566 -0.8154 -1.2793
16780TIP3    H271756   0.269   1.627  13.361  1.2417  0.5619  0.1304
16781TIP3   OH271757   1.917   1.350  15.541 -0.6178 -0.3335  0.4545
16781TIP3    H171758   1.980   1.407  15.497 -0.5399 -0.7728 -0.0092
16781TIP3    H271759   1.832   1.375  15.505 -0.4392 -1.4829 -0.8377
16782TIP3   OH271760   6.554   3.793   2.744  0.1852  0.1445  0.1105
16782TIP3    H171761   6.467   3.757   2.727 -0.0584  0.5245  0.5355
16782TIP3    H271762   6.593   3.732   2.807 -0.4007  0.8402  1.1838
16783TIP3   OH271763   5.978   1.349  12.122 -0.1858 -0.0488  0.9414
16783TIP3    H171764   5.948   1.439  12.132 -0.7616 -0.0749 -0.3501
16783TIP3    H271765   5.899   1.296  12.133  0.0131 -0.3448  0.9522
16784TIP3   OH271766   5.906   3.555  12.280 -0.4873 -0.1433 -0.0890
16784TIP3    H171767   5.967   3.492  12.242  0.6295 -0.1816  1.6736
16784TIP3    H271768   5.901   3.625  12.215  0.4077 -0.7676 -0.8515
16785TIP3   OH271769   0.880   3.375  14.835  0.3388  0.0443 -0.3109
16785TIP3    H171770   0.927   3.313  14.780  0.7041  0.2950 -0.2852
16785TIP3    H271771   0.851   3.443  14.775  0.7313  0.3147 -0.1994
16786TIP3   OH271772   0.294   3.480  11.641  0.1173 -0.2828 -0.3281
16786TIP3    H171773   0.266   3.428  11.717  0.5145 -1.7304 -1.1229
16786TIP3    H271774   0.225   3.545  11.629 -1.9520 -2.4612 -1.0417
16787TIP3   OH271775   0.467   0.260  11.598 -0.2225  0.1662 -0.1646
16787TIP3    H171776   0.430   0.264  11.510  1.2248 -1.2853 -0.9050
16787TIP3    H271777   0.410   0.200  11.646  0.5214 -1.2741 -0.9975
16788TIP3   OH271778   3.518   4.642  15.729  0.0575  0.0430  0.3417
16788TIP3    H171779   3.568   4.687  15.661 -1.8302  3.2029  0.8384
16788TIP3    H271780   3.566   4.661  15.810 -0.4834  0.8233  0.4917
16789TIP3   OH271781   4.814   6.527  15.731  0.2916  0.5037  0.3274
16789TIP3    H171782   4.832   6.558  15.820  2.3829 -0.5767  0.3638
16789TIP3    H271783   4.883   6.566  15.678 -0.1435  0.0823 -0.5683
16790TIP3   OH271784   6.370   6.101  15.392 -0.2468 -0.3811  0.5235
16790TIP3    H171785   6.348   6.192  15.373 -0.4944 -0.5077  0.1991
16790TIP3    H271786   6.285   6.057  15.403 -0.1279 -0.2844  2.0972
16791TIP3   OH271787   2.377   3.682   4.973  0.5829  0.2994  0.3687
16791TIP3    H171788   2.464   3.647   4.993  0.4422  0.4223  1.2326
16791TIP3    H271789   2.392   3.742   4.900  1.0495 -0.4943 -0.2043
16792TIP3   OH271790   0.893   2.634   3.482  0.7285  0.0217 -0.0125
16792TIP3    H171791   0.883   2.693   3.407 -0.0340  0.0112  0.0717
16792TIP3    H271792   0.952   2.566   3.451 -0.0364 -0.2993 -0.8052
16793TIP3   OH271793   6.720   6.125   1.014  0.4538 -0.4956 -0.2632
16793TIP3    H171794   6.643   6.094   1.062  0.4475 -0.7036 -0.4057
16793TIP3    H271795   6.729   6.217   1.040  0.8958 -0.7967  0.7369
16794TIP3   OH271796   0.049   2.440  10.310  0.5154  0.7427 -0.5744
16794TIP3    H171797   0.084   2.501  10.376  0.8631  1.1586 -1.1302
16794TIP3    H271798  -0.044   2.459  10.307  0.6130  1.2232 -0.7047
16795TIP3   OH271799   0.516   0.204   5.722  0.1368  0.1824  0.1709
16795TIP3    H171800   0.446   0.140   5.734 -1.3192  1.5954 -0.4852
16795TIP3    H271801   0.522   0.216   5.627  1.4055 -0.0439  0.2055
16796TIP3   OH271802   4.400   3.950  10.682  0.5068  0.2893 -0.0042
16796TIP3    H171803   4.354   3.924  10.601  1.8760 -0.0291 -0.7078
16796TIP3    H271804   4.330   3.978  10.741 -0.4351  2.2369 -1.9075
16797TIP3   OH271805   6.168   3.304   3.160 -0.1832  0.5476 -0.1907
16797TIP3    H171806   6.160   3.348   3.075 -2.6332 -0.2471 -0.4671
16797TIP3    H271807   6.193   3.215   3.138 -0.7022  0.3729 -0.0934
16798TIP3   OH271808   4.467   3.593   0.523 -0.0294  0.4033  0.5299
16798TIP3    H171809   4.400   3.547   0.573 -0.8121  1.8861  0.9252
16798TIP3    H271810   4.519   3.524   0.483 -1.0385 -0.8041  1.2152
16799TIP3   OH271811   2.632   1.533   5.762  0.3806 -0.5497 -0.2009
16799TIP3    H171812   2.648   1.439   5.772 -1.2199 -0.9673 -1.1283
16799TIP3    H271813   2.601   1.561   5.848  2.7164 -0.3955  0.6666
16800TIP3   OH271814   4.524   6.128   5.071  0.0982 -0.7456 -0.3628
16800TIP3    H171815   4.431   6.131   5.051  0.0601  0.5267 -0.0447
16800TIP3    H271816   4.555   6.217   5.056  1.0775 -0.9325  0.4457
16801TIP3   OH271817   4.425   3.654  13.829  0.2631  0.3967 -0.0496
16801TIP3    H171818   4.393   3.744  13.825 -1.5588 -0.1839  0.5933
16801TIP3    H271819   4.367   3.611  13.891 -0.4124 -1.8116 -2.0847
16802TIP3   OH271820   2.630   1.983   1.273 -0.2628  0.1750  0.8243
16802TIP3    H171821   2.684   2.002   1.350  0.9623 -2.3649  0.7148
16802TIP3    H271822   2.583   1.903   1.297  1.0862 -1.4055 -1.4401
16803TIP3   OH271823   2.719   0.888  13.752  0.0844 -0.3019 -0.3066
16803TIP3    H171824   2.772   0.809  13.760  0.7976  0.3587  2.0822
16803TIP3    H271825   2.734   0.918  13.662 -0.1088 -2.7625 -1.2384
16804TIP3   OH271826   6.426   2.484   3.538  0.2193 -0.3544  0.1411
16804TIP3    H171827   6.442   2.529   3.455  0.0062 -1.3065 -0.4446
16804TIP3    H271828   6.343   2.519   3.569  0.9553  0.9843  0.6516
16805TIP3   OH271829   0.020   0.280   3.481 -0.0893  0.1903 -0.8106
16805TIP3    H171830  -0.047   0.247   3.421 -2.1093  0.3660  1.2301
16805TIP3    H271831   0.057   0.201   3.520  1.7989  0.0301 -2.7444
16806TIP3   OH271832   5.355   0.035  11.519  0.2296  0.1053  0.2977
16806TIP3    H171833   5.278  -0.021  11.534  0.4269 -0.2783 -0.0844
16806TIP3    H271834   5.335   0.116  11.566 -0.4490  0.0430  0.1343
16807TIP3   OH271835   2.283   0.869  12.526 -0.0459 -0.3592 -0.3410
16807TIP3    H171836   2.223   0.847  12.455  0.2295  1.1225 -1.0656
16807TIP3    H271837   2.354   0.805  12.519 -1.2514 -1.8161  0.2216
16808TIP3   OH271838   4.920   0.297  14.703  0.3657 -0.2431  0.1811
16808TIP3    H171839   4.880   0.304  14.616 -0.6188  0.3348  0.6496
16808TIP3    H271840   5.014   0.291  14.686  0.2326  0.3696 -0.9090
16809TIP3   OH271841   4.636   6.812   5.125 -0.5305  0.1293  0.5704
16809TIP3    H171842   4.642   6.882   5.060  1.9528 -0.7166 -0.2225
16809TIP3    H271843   4.542   6.801   5.140 -1.0716  2.1387 -0.8707
16810TIP3   OH271844   2.399   2.784   4.879 -0.4788  0.1217 -0.2748
16810TIP3    H171845   2.355   2.820   4.957 -0.0131 -0.7329  0.4008
16810TIP3    H271846   2.344   2.812   4.806  0.3627  3.0230  0.0716
16811TIP3   OH271847   0.155   0.361  15.554 -0.5735 -0.4398  0.0649
16811TIP3    H171848   0.139   0.279  15.601 -1.6160 -0.4330 -0.2689
16811TIP3    H271849   0.193   0.333  15.470  0.3788 -0.4979  0.4993
16812TIP3   OH271850   2.178   2.310   4.010  0.4138  0.0605  0.8935
16812TIP3    H171851   2.242   2.360   4.061 -0.1079 -1.2111  2.9172
16812TIP3    H271852   2.212   2.220   4.011 -0.4918 -0.2981  0.4440
16813TIP3   OH271853   6.382   5.981   0.568  0.3756  0.2340  0.3056
16813TIP3    H171854   6.356   5.965   0.477 -0.7099  0.4842  0.5678
16813TIP3    H271855   6.402   6.075   0.571 -3.2954  1.1175  1.1747
16814TIP3   OH271856   6.512   1.531   4.698  0.5539 -0.3857 -0.5129
16814TIP3    H171857   6.524   1.564   4.609 -1.4922  0.9391 -0.3701
16814TIP3    H271858   6.535   1.605   4.755  0.7696 -0.8525  0.0198
16815TIP3   OH271859   6.354   4.291   1.521 -0.2341  0.2412 -0.0746
16815TIP3    H171860   6.344   4.367   1.464 -2.3171  0.5869  0.6855
16815TIP3    H271861   6.269   4.248   1.520  1.0052 -2.3543 -0.7940
16816TIP3   OH271862   2.841   1.225   4.294  0.4264 -0.7406 -0.2336
16816TIP3    H171863   2.833   1.134   4.322  1.1108 -0.7522 -0.0507
16816TIP3    H271864   2.834   1.222   4.199 -1.9125 -0.7080 -0.1269
16817TIP3   OH271865   2.769   2.041  15.346 -0.2591 -0.5666  0.2685
16817TIP3    H171866   2.762   2.120  15.293  1.0019 -0.4805  0.2071
16817TIP3    H271867   2.706   2.054  15.417  0.9973  1.1897  1.1228
16818TIP3   OH271868   3.058   1.152   3.929 -0.2357 -0.4200  0.1131
16818TIP3    H171869   3.098   1.097   3.861 -0.7657 -1.1502  0.3789
16818TIP3    H271870   2.985   1.099   3.962 -0.1440  0.0404  1.0671
16819TIP3   OH271871   6.675   4.473  16.824 -0.1838  0.4047  0.1553
16819TIP3    H171872   6.625   4.424  16.888 -2.1064  1.0001 -0.8173
16819TIP3    H271873   6.640   4.446  16.739 -0.1872  2.2172 -0.4733
16820TIP3   OH271874   3.500   5.105  15.186 -0.7818 -0.1912 -0.5726
16820TIP3    H171875   3.491   5.137  15.096 -0.8028  1.2531 -0.0887
16820TIP3    H271876   3.468   5.177  15.240  0.4315 -0.5272  0.6486
16821TIP3   OH271877   5.896   2.095   5.241 -0.4676 -0.2240  0.8872
16821TIP3    H171878   5.936   2.038   5.307 -0.3465 -1.0881  0.1001
16821TIP3    H271879   5.855   2.034   5.180 -0.2325  0.5430 -0.0497
16822TIP3   OH271880   3.950   3.912   6.547 -0.0706  0.2947  0.0825
16822TIP3    H171881   3.904   3.872   6.621  0.7542 -1.2883 -0.2064
16822TIP3    H271882   4.043   3.907   6.570  0.2870 -1.2944 -1.4987
16823TIP3   OH271883   6.185   4.425  12.686  0.4598 -0.1590 -0.8479
16823TIP3    H171884   6.202   4.367  12.612  0.3836 -0.9874 -0.2270
16823TIP3    H271885   6.090   4.428  12.693  0.4650 -2.1654  0.7945
16824TIP3   OH271886   2.330   5.040   3.852 -0.3385 -0.3990  0.0616
16824TIP3    H171887   2.270   4.982   3.899  1.3945 -0.8494  1.8558
16824TIP3    H271888   2.354   5.107   3.916 -0.0247  0.6019 -1.0720
16825TIP3   OH271889   0.833   6.165  16.896  0.1578  0.2476  0.2094
16825TIP3    H171890   0.780   6.151  16.975  1.6422 -0.4619  1.1212
16825TIP3    H271891   0.769   6.188  16.829 -1.5390 -2.3431  0.7867
16826TIP3   OH271892   4.053   4.299   3.865  0.4358  0.1130 -0.3132
16826TIP3    H171893   4.029   4.254   3.784  0.8951 -0.9085  0.0907
16826TIP3    H271894   4.148   4.309   3.859  0.4537  0.1588  0.0251
16827TIP3   OH271895   3.355   4.350   4.577  0.0522 -0.6991  0.0735
16827TIP3    H171896   3.276   4.303   4.603 -1.3665  0.1076 -2.4099
16827TIP3    H271897   3.395   4.293   4.511  1.9030 -1.3312  1.6483
16828TIP3   OH271898   6.064   5.561  14.015  0.3581  0.7139 -0.2608
16828TIP3    H171899   6.136   5.561  13.952  0.3724 -0.5125 -0.2793
16828TIP3    H271900   6.108   5.557  14.100  0.3768 -1.7803 -0.3033
16829TIP3   OH271901   0.452   0.840  12.122 -0.1739  0.3380 -0.1752
16829TIP3    H171902   0.436   0.839  12.028 -1.0569  1.2868 -0.0481
16829TIP3    H271903   0.498   0.923  12.138 -0.3794  0.3729  0.2742
16830TIP3   OH271904   0.816   5.221   0.524 -0.0953 -0.4272 -0.8429
16830TIP3    H171905   0.871   5.230   0.446  1.3420 -1.4862 -0.0115
16830TIP3    H271906   0.827   5.303   0.571  1.1989 -0.7994 -0.4573
16831TIP3   OH271907   3.937   4.724  15.189 -0.0515  0.5220  0.3164
16831TIP3    H171908   3.843   4.739  15.198  0.0873  2.6703 -1.1553
16831TIP3    H271909   3.969   4.723  15.279 -1.1585  2.4542  0.7952
16832TIP3   OH271910   0.861   5.658  13.073  0.1332  0.1879 -0.0454
16832TIP3    H171911   0.869   5.718  13.147  0.0148 -0.3564  0.4162
16832TIP3    H271912   0.803   5.703  13.012 -0.6327  0.1865  0.6690
16833TIP3   OH271913   4.146   6.138  14.732  0.0605  0.3580 -0.4749
16833TIP3    H171914   4.150   6.191  14.812  0.8150 -0.3719 -0.0127
16833TIP3    H271915   4.054   6.140  14.707 -0.1126  0.9514  0.1751
16834TIP3   OH271916   4.676   2.404   5.012 -0.0085 -0.0609 -0.1831
16834TIP3    H171917   4.618   2.410   4.935 -0.0897 -0.7208 -0.1794
16834TIP3    H271918   4.617   2.411   5.087  0.1534  1.3537 -0.1672
16835TIP3   OH271919   3.346   1.948   4.494 -0.4469 -0.6408 -0.7173
16835TIP3    H171920   3.392   1.957   4.577 -0.9883  0.9523 -0.5663
16835TIP3    H271921   3.358   1.856   4.470  0.8003 -0.8155  0.4699
16836TIP3   OH271922   5.155   6.053  11.411  0.3326 -0.4576 -0.2784
16836TIP3    H171923   5.107   5.996  11.470  1.0146 -0.7269  0.0157
16836TIP3    H271924   5.226   5.999  11.377  1.0438  0.2278  0.0755
16837TIP3   OH271925   2.763   0.840   5.980  0.3943 -0.3614  0.6253
16837TIP3    H171926   2.766   0.763   6.036  1.3228 -0.8620 -0.0940
16837TIP3    H271927   2.848   0.883   5.992  1.8901 -2.0891 -2.5701
16838TIP3   OH271928   4.900   3.580   4.030  0.4971  0.6775 -0.4835
16838TIP3    H171929   4.874   3.512   3.968  2.1289  1.0539 -1.6571
16838TIP3    H271930   4.819   3.623   4.055 -0.4138 -0.7858 -0.7889
16839TIP3   OH271931   4.960   2.788  12.656  0.0396  0.4913 -0.5622
16839TIP3    H171932   4.946   2.881  12.669  1.4088  0.7920 -1.0833
16839TIP3    H271933   5.054   2.775  12.671 -0.1643 -0.8431 -0.2666
16840TIP3   OH271934   0.283   6.049  10.534 -0.3304 -0.2871  0.2242
16840TIP3    H171935   0.306   6.138  10.508 -0.2452  0.9908  4.0507
16840TIP3    H271936   0.193   6.038  10.504 -0.6288  1.4609  0.3648
16841TIP3   OH271937   5.688   0.399   3.256 -0.1663  0.2268 -0.6196
16841TIP3    H171938   5.621   0.419   3.191 -1.8752 -1.3589  0.5464
16841TIP3    H271939   5.761   0.364   3.205 -1.4592 -0.9821 -1.7568
16842TIP3   OH271940   3.417   5.962  12.863 -0.4156 -0.2296  0.0572
16842TIP3    H171941   3.357   6.023  12.905  2.0284  2.7276 -0.3265
16842TIP3    H271942   3.470   5.926  12.934 -0.9149 -0.7936  0.1477
16843TIP3   OH271943   3.159   5.837  16.040  0.2968 -0.7290 -0.2191
16843TIP3    H171944   3.091   5.801  16.098  0.6227  0.9328  1.2667
16843TIP3    H271945   3.223   5.876  16.099  0.8021  0.7970 -1.6991
16844TIP3   OH271946   0.408   6.104   1.107  0.3964 -0.1938 -0.2907
16844TIP3    H171947   0.341   6.052   1.064 -1.0492 -0.8405  2.4758
16844TIP3    H271948   0.383   6.195   1.091 -1.5919 -0.4110  1.1764
16845TIP3   OH271949   5.486   5.059   5.317  0.2208  1.0275  0.2914
16845TIP3    H171950   5.499   5.117   5.242  1.1696 -0.2708 -0.5887
16845TIP3    H271951   5.470   4.973   5.279 -0.3326  0.5339  1.5786
16846TIP3   OH271952   5.833   1.470   3.539  0.3963 -0.0690  0.0393
16846TIP3    H171953   5.925   1.496   3.542  0.3191  0.2487 -0.3661
16846TIP3    H271954   5.829   1.403   3.471  0.2249  0.3155 -0.3259
16847TIP3   OH271955   6.481   1.663   2.398 -0.2721  0.0100 -0.3232
16847TIP3    H171956   6.560   1.622   2.435 -0.8224 -0.3954  0.4161
16847TIP3    H271957   6.408   1.613   2.435 -0.8432 -1.4339 -3.0934
16848TIP3   OH271958   1.464   1.954  16.823  0.4964  0.0697 -0.1353
16848TIP3    H171959   1.453   1.873  16.873  1.4232  0.5707  0.9117
16848TIP3    H271960   1.379   1.999  16.832 -0.0112 -0.7466 -0.6945
16849TIP3   OH271961   3.492   0.271  15.388  0.3858  0.2224  0.2667
16849TIP3    H171962   3.517   0.272  15.480 -2.0979  0.0226  0.9906
16849TIP3    H271963   3.477   0.363  15.367 -2.0106  0.0546  0.9858
16850TIP3   OH271964   6.440   4.037  10.339  0.1107 -0.8824 -0.2348
16850TIP3    H171965   6.431   3.980  10.415 -0.8210 -1.4902 -0.7759
16850TIP3    H271966   6.350   4.053  10.311  0.2681  1.7474  0.5249
16851TIP3   OH271967   5.745   0.458   0.231 -0.7407 -0.9748  0.3328
16851TIP3    H171968   5.697   0.516   0.291  0.5142 -0.0720  0.5153
16851TIP3    H271969   5.790   0.518   0.171 -0.3355 -1.8072 -0.2158
16852TIP3   OH271970   4.258   2.327  14.137  0.1255 -0.0917  0.5456
16852TIP3    H171971   4.342   2.292  14.167  0.0647 -0.9259 -0.2183
16852TIP3    H271972   4.256   2.416  14.172  1.6726  0.2149 -0.0720
16853TIP3   OH271973   5.187   3.874  11.722 -0.3372  0.3865 -0.1576
16853TIP3    H171974   5.141   3.801  11.682 -0.0984  0.6235 -0.8690
16853TIP3    H271975   5.140   3.952  11.692 -0.5841  0.5361  0.5851
16854TIP3   OH271976   1.613   1.097  15.742  0.1189 -0.4323 -0.0637
16854TIP3    H171977   1.700   1.083  15.706 -0.1013 -1.1809 -0.3355
16854TIP3    H271978   1.555   1.045  15.686 -0.6980  1.1462 -0.7591
16855TIP3   OH271979   2.597   3.225  10.457  0.0673 -0.1155 -0.7282
16855TIP3    H171980   2.607   3.138  10.419  1.2802  0.3133 -1.4340
16855TIP3    H271981   2.647   3.222  10.538  0.1129 -0.0734 -0.7547
16856TIP3   OH271982   3.966   6.573  13.426  0.2395 -0.0468  0.5198
16856TIP3    H171983   4.045   6.627  13.431 -0.4358  1.0880 -0.5187
16856TIP3    H271984   3.895   6.636  13.415 -0.5419 -1.1627 -1.1051
16857TIP3   OH271985   0.162   4.994   1.379  0.3485  0.6595 -0.0971
16857TIP3    H171986   0.096   4.928   1.399 -0.7692  1.8454  0.2319
16857TIP3    H271987   0.162   5.052   1.455 -0.1340  2.1775 -1.2052
16858TIP3   OH271988   4.331   5.656  16.264  0.6108 -0.1162  0.1130
16858TIP3    H171989   4.366   5.622  16.183 -0.5714 -0.4668 -0.2769
16858TIP3    H271990   4.365   5.598  16.332  0.2975 -0.8124 -0.3172
16859TIP3   OH271991   4.860   3.461   3.428 -0.1694  0.2517 -0.4186
16859TIP3    H171992   4.862   3.526   3.499  0.0175  0.1991 -0.3732
16859TIP3    H271993   4.912   3.388   3.462  1.3741  0.9078 -1.2586
16860TIP3   OH271994   2.264   1.021  15.563 -0.1935 -0.1652 -0.8184
16860TIP3    H171995   2.344   1.051  15.606 -1.1734  1.0875  0.1860
16860TIP3    H271996   2.240   1.093  15.505  0.1782 -1.1398 -2.2212
16861TIP3   OH271997   1.509   6.689   4.317  0.2748  0.1432 -0.3928
16861TIP3    H171998   1.453   6.765   4.302  0.5676  0.2528 -0.9220
16861TIP3    H271999   1.457   6.633   4.375 -1.1883 -0.6164 -2.3208
16862TIP3   OH272000   0.392   6.791  15.473 -0.4978 -0.3234  0.1751
16862TIP3    H172001   0.326   6.726  15.449 -0.5918  0.0725 -0.6994
16862TIP3    H272002   0.359   6.830  15.554 -1.8262  0.5041 -0.7271
16863TIP3   OH272003   3.071   4.097   6.397  0.4658 -0.0489 -0.1650
16863TIP3    H172004   3.132   4.028   6.420 -1.3469 -1.8424 -0.4616
16863TIP3    H272005   3.023   4.115   6.478  0.6736  0.6200 -0.1817
16864TIP3   OH272006   5.401   2.471   2.145  0.0583  0.6384  0.0994
16864TIP3    H172007   5.334   2.440   2.207  1.6588  1.1086  2.1694
16864TIP3    H272008   5.418   2.561   2.170  1.5340  0.5054 -0.3148
16865TIP3   OH272009   6.254   4.335  16.757  0.1355 -0.1761 -0.0158
16865TIP3    H172010   6.218   4.339  16.846  1.2498 -0.7355  0.4827
16865TIP3    H272011   6.316   4.262  16.760  2.2118  1.4747 -0.4852
16866TIP3   OH272012   4.183   4.190   0.503 -0.3530  0.0521  0.5927
16866TIP3    H172013   4.205   4.280   0.525  0.1784  0.0316  0.1604
16866TIP3    H272014   4.229   4.173   0.421 -2.8065  0.3269 -0.9212
16867TIP3   OH272015   4.718   6.382  10.878  0.1671 -0.6066  0.2381
16867TIP3    H172016   4.789   6.440  10.904  0.2852 -0.1429 -1.0567
16867TIP3    H272017   4.762   6.304  10.844  0.1651  0.4456 -2.3618
16868TIP3   OH272018   5.569   3.007   5.189 -0.0181 -0.1701  0.5767
16868TIP3    H172019   5.499   3.067   5.214 -0.9708 -1.4288  0.9821
16868TIP3    H272020   5.625   3.059   5.131 -0.8883  1.0655  0.8076
16869TIP3   OH272021   3.184   3.640   5.127 -0.0595 -0.0142 -0.8009
16869TIP3    H172022   3.174   3.655   5.221  0.2669  0.0407 -0.7742
16869TIP3    H272023   3.170   3.726   5.087  3.6460  0.8778 -0.5179
16870TIP3   OH272024   2.580   3.681   5.550 -0.4364  0.2958 -0.0978
16870TIP3    H172025   2.526   3.647   5.621 -0.4171 -1.6269 -0.9420
16870TIP3    H272026   2.645   3.737   5.594  1.7589 -3.4642  1.9618
16871TIP3   OH272027   3.245   0.145   4.878  0.7512 -0.4228  0.1964
16871TIP3    H172028   3.184   0.199   4.827  1.7445 -0.3021 -0.8972
16871TIP3    H272029   3.189   0.102   4.943 -0.3717  0.3344 -0.2270
16872TIP3   OH272030   6.391   1.639   2.065  0.1982  0.0764 -0.0151
16872TIP3    H172031   6.322   1.686   2.019  0.7709 -0.3298 -1.3405
16872TIP3    H272032   6.426   1.703   2.128  0.4022  1.1640 -1.1967
16873TIP3   OH272033   4.859   4.642   1.033  0.2955 -0.1065  0.0363
16873TIP3    H172034   4.782   4.680   0.991  0.1636 -1.3731 -0.8943
16873TIP3    H272035   4.917   4.616   0.961  0.8265 -0.7524  0.6735
16874TIP3   OH272036   6.530   2.466   5.806 -0.6421  0.0341 -0.2619
16874TIP3    H172037   6.450   2.417   5.823 -0.5023 -0.3924 -0.7755
16874TIP3    H272038   6.566   2.426   5.726 -0.4209  0.8476 -0.5836
16875TIP3   OH272039   2.572   5.502  16.845  0.8430  0.0150 -0.0344
16875TIP3    H172040   2.563   5.409  16.865 -2.1956  0.5645  1.9441
16875TIP3    H272041   2.621   5.538  16.920  0.8722  0.1857 -0.1356
16876TIP3   OH272042   6.807   4.947   0.463 -0.0171  0.1143  0.3917
16876TIP3    H172043   6.734   4.992   0.506 -0.0386 -1.2524  1.8726
16876TIP3    H272044   6.769   4.869   0.425  0.4302  0.1357 -0.1179
16877TIP3   OH272045   4.697   0.648   5.248 -0.0513 -0.0209  0.2316
16877TIP3    H172046   4.681   0.661   5.155  1.6095  0.5431  0.0094
16877TIP3    H272047   4.655   0.723   5.290 -2.2584 -1.1158  0.1304
16878TIP3   OH272048   2.285   6.425   4.928 -0.5196 -0.6239 -0.2803
16878TIP3    H172049   2.254   6.335   4.924  0.6764 -1.2216  1.9901
16878TIP3    H272050   2.284   6.446   5.022  0.1909  1.3767 -0.6766
16879TIP3   OH272051   4.776   4.657   3.996  0.1693 -0.1177  0.2447
16879TIP3    H172052   4.682   4.673   3.995  0.0734 -0.6208 -1.3152
16879TIP3    H272053   4.788   4.577   3.945  1.4068 -0.3341  0.8289
16880TIP3   OH272054   5.655   5.709  14.263 -0.6308  0.3856  0.1477
16880TIP3    H172055   5.571   5.746  14.236 -1.1516 -0.2008  0.9137
16880TIP3    H272056   5.716   5.782  14.260 -0.9179  0.5880 -1.4696
16881TIP3   OH272057   1.005   4.997   1.196 -0.5222 -0.7744 -0.8240
16881TIP3    H172058   0.940   5.058   1.160  0.0556 -1.5053 -3.2254
16881TIP3    H272059   1.048   5.048   1.265 -2.1788  0.4438 -0.6203
16882TIP3   OH272060   1.486   3.487  12.029 -0.1248 -0.0931  0.9308
16882TIP3    H172061   1.429   3.542  12.082 -2.4507 -2.0145  0.5689
16882TIP3    H272062   1.491   3.533  11.945 -0.9908  0.2115  1.0330
16883TIP3   OH272063   6.603   3.446  12.671  0.0224  0.0395 -0.6380
16883TIP3    H172064   6.558   3.462  12.754 -1.2572 -0.3222 -1.2448
16883TIP3    H272065   6.665   3.519  12.662 -0.7635  0.7999 -0.0076
16884TIP3   OH272066   4.623   2.144   5.653 -0.2604 -0.3802  0.0925
16884TIP3    H172067   4.562   2.071   5.663 -0.5340 -0.1545  0.0971
16884TIP3    H272068   4.698   2.120   5.707 -1.3309  0.3993  2.0796
16885TIP3   OH272069   1.308   2.436  13.236  0.3714 -0.1677 -0.1489
16885TIP3    H172070   1.317   2.380  13.159  1.2366  0.1192 -0.2692
16885TIP3    H272071   1.333   2.380  13.310 -1.6803 -0.8328  0.1096
16886TIP3   OH272072   4.173   3.973   0.725 -0.2335  0.2024  0.0750
16886TIP3    H172073   4.198   3.953   0.635  0.8391  0.5286  0.2879
16886TIP3    H272074   4.249   3.948   0.778 -0.4593  0.9426  0.7760
16887TIP3   OH272075   1.039   1.687   3.480  0.0002  0.1243 -0.1556
16887TIP3    H172076   1.011   1.598   3.501 -0.3287  0.3251  0.2910
16887TIP3    H272077   1.087   1.679   3.398 -0.6137 -0.3619 -0.4805
16888TIP3   OH272078   3.452   2.476  12.154 -0.0535  0.1560 -0.1248
16888TIP3    H172079   3.408   2.513  12.078 -0.4546  1.0078  0.4983
16888TIP3    H272080   3.532   2.528  12.163  0.5451 -0.6634 -0.6023
16889TIP3   OH272081   2.965   0.699  15.532 -0.2729  0.5474  0.1804
16889TIP3    H172082   2.959   0.604  15.522 -0.7463  0.3967  1.6716
16889TIP3    H272083   3.029   0.725  15.466  0.4740 -0.9148  0.2733
16890TIP3   OH272084   2.898   3.817   2.169 -0.5488 -0.8407  0.0568
16890TIP3    H172085   2.865   3.823   2.079 -2.0336  0.1457  0.6332
16890TIP3    H272086   2.978   3.765   2.161 -0.3265 -0.2964 -1.9226
16891TIP3   OH272087   1.245   4.816  13.045 -0.5344  0.8902  0.8312
16891TIP3    H172088   1.203   4.795  13.128 -1.2218 -1.0940  0.0426
16891TIP3    H272089   1.176   4.805  12.979  0.8550 -1.2735 -0.3750
16892TIP3   OH272090   4.478   2.549  13.574 -0.3052  0.3272  0.1209
16892TIP3    H172091   4.571   2.549  13.598 -0.2867 -0.6778  0.0890
16892TIP3    H272092   4.463   2.637  13.539  0.6259  0.5117  0.1413
16893TIP3   OH272093   2.989   5.109  11.107 -0.1818 -0.9429  0.4575
16893TIP3    H172094   2.942   5.151  11.036  0.6618 -1.1468 -0.2377
16893TIP3    H272095   2.985   5.171  11.179 -0.4872 -0.4514  0.0165
16894TIP3   OH272096   1.932   0.971  11.556  0.3119 -0.0447  0.3270
16894TIP3    H172097   1.861   1.027  11.523  0.3767 -0.4687 -0.5467
16894TIP3    H272098   1.988   0.955  11.480 -0.6902 -2.7980  0.0478
16895TIP3   OH272099   4.596   6.811  15.957 -0.8500 -0.6216 -0.1377
16895TIP3    H172100   4.624   6.800  15.866 -0.4473 -0.1178 -0.0791
16895TIP3    H272101   4.533   6.884  15.953  0.6645  0.7772  0.2490
16896TIP3   OH272102   4.688   2.454   1.766  0.2167  0.0089 -0.3401
16896TIP3    H172103   4.726   2.428   1.682  0.6807 -0.8221  0.1162
16896TIP3    H272104   4.705   2.548   1.771 -0.1943  0.1516 -1.3592
16897TIP3   OH272105   0.001   6.664  15.776 -0.0366 -0.6035  0.0846
16897TIP3    H172106   0.001   6.633  15.867 -1.2415  0.4048  0.4715
16897TIP3    H272107  -0.089   6.651  15.746 -0.3616  1.4955 -0.0417
16898TIP3   OH272108   3.966   2.266  14.624  0.3065 -0.0474 -0.4625
16898TIP3    H172109   3.913   2.188  14.612  1.8470 -1.7582  2.5885
16898TIP3    H272110   3.912   2.325  14.675 -0.3952  0.4068 -1.6840
16899TIP3   OH272111   6.646   6.328  11.920  0.0980  0.3331  0.4722
16899TIP3    H172112   6.685   6.360  12.001 -0.9798  0.4044  0.9801
16899TIP3    H272113   6.721   6.301  11.866  0.9357  2.0316  0.7258
16900TIP3   OH272114   5.611   2.684  10.872 -0.0575 -0.3910 -0.0587
16900TIP3    H172115   5.553   2.612  10.846 -1.5280  0.7725 -0.1031
16900TIP3    H272116   5.696   2.658  10.837  0.1690 -3.4813  2.3409
16901TIP3   OH272117   6.055   5.312   2.685  0.4995  0.4671  0.3855
16901TIP3    H172118   6.100   5.335   2.604 -0.7454  1.4315 -0.0827
16901TIP3    H272119   6.084   5.223   2.706  1.1079  0.3454 -0.9254
16902TIP3   OH272120   3.782   6.161   5.411 -0.3225 -0.2240 -0.1077
16902TIP3    H172121   3.720   6.133   5.344  1.4733 -1.0424 -1.5208
16902TIP3    H272122   3.849   6.210   5.363 -0.5861  1.9161  1.5678
16903TIP3   OH272123   3.255   2.229   3.253 -0.1004  0.3358  0.0817
16903TIP3    H172124   3.181   2.283   3.225 -0.5526 -0.7712 -0.9757
16903TIP3    H272125   3.271   2.255   3.344 -0.6361  1.8336 -0.2249
16904TIP3   OH272126   0.248   5.088   2.465 -0.2130 -0.3582 -0.0334
16904TIP3    H172127   0.162   5.101   2.426 -0.6604 -1.2770  0.6185
16904TIP3    H272128   0.309   5.100   2.393 -0.8838  0.2196 -0.5184
16905TIP3   OH272129   1.124   2.589   4.016  0.3098  0.4349 -0.4763
16905TIP3    H172130   1.136   2.684   4.020 -0.4146  0.5100  0.3880
16905TIP3    H272131   1.101   2.571   3.925 -0.6012  1.2374 -0.4218
16906TIP3   OH272132   3.556   2.706   3.071  0.4248 -0.2907  0.4957
16906TIP3    H172133   3.641   2.704   3.028  1.0235  0.8020  1.5671
16906TIP3    H272134   3.572   2.665   3.156 -0.5442 -1.6703  0.0490
16907TIP3   OH272135   4.877   5.001  13.450 -0.2197 -0.3767 -0.3210
16907TIP3    H172136   4.788   4.966  13.453 -0.5175  0.3185 -0.7089
16907TIP3    H272137   4.918   4.954  13.378 -0.5776 -0.0434 -0.7552
16908TIP3   OH272138   6.328   5.791   4.447  0.0719 -0.2835  0.2797
16908TIP3    H172139   6.366   5.845   4.517  0.9149 -2.6667  1.7921
16908TIP3    H272140   6.245   5.761   4.482 -0.7649  0.6016 -0.8700
16909TIP3   OH272141   6.079   0.531  13.275  0.0717  0.0204  0.2428
16909TIP3    H172142   6.159   0.490  13.307 -0.0912 -0.4794  0.0159
16909TIP3    H272143   6.108   0.589  13.205 -0.0962 -2.8320 -2.3761
16910TIP3   OH272144   2.945   4.226   5.029  0.5369 -0.1413  0.2412
16910TIP3    H172145   2.973   4.261   5.113 -1.7824  0.3876  0.8596
16910TIP3    H272146   2.954   4.131   5.039  3.3515 -0.0134 -0.1471
16911TIP3   OH272147   4.545   3.722  12.571  0.5287 -0.2648 -0.5715
16911TIP3    H172148   4.609   3.776  12.525 -1.0841  0.7106 -1.7609
16911TIP3    H272149   4.503   3.671  12.503  0.4502 -1.3663  0.2738
16912TIP3   OH272150   2.244   1.930   6.382  0.0558 -0.2747 -0.7299
16912TIP3    H172151   2.308   2.000   6.398  0.1863 -0.5975  0.2612
16912TIP3    H272152   2.219   1.901   6.470 -1.2938 -0.3077 -1.1031
16913TIP3   OH272153   1.120   4.177   2.207 -0.9373  0.3626 -0.1549
16913TIP3    H172154   1.108   4.143   2.296 -0.6658 -2.4949 -1.0801
16913TIP3    H272155   1.196   4.130   2.175 -1.7728  0.3875 -2.3095
16914TIP3   OH272156   4.605   5.415   5.443 -0.0804 -0.7142 -0.2315
16914TIP3    H172157   4.647   5.414   5.529  1.5666  1.6697 -0.9108
16914TIP3    H272158   4.553   5.495   5.442  1.7276  0.5628 -2.1441
16915TIP3   OH272159   3.372   5.330   4.610  0.4413  0.2555 -0.0816
16915TIP3    H172160   3.354   5.371   4.694 -1.1353 -0.2953 -0.1246
16915TIP3    H272161   3.343   5.239   4.620 -0.3737  0.3403 -1.4064
16916TIP3   OH272162   5.925   4.256  16.794  0.1276  0.6105 -0.1744
16916TIP3    H172163   5.957   4.231  16.880 -1.9254 -1.8802 -0.0188
16916TIP3    H272164   5.968   4.195  16.734  1.3984  2.2027 -0.9608
16917TIP3   OH272165   4.652   4.934   4.579 -0.0592  0.6763 -0.3025
16917TIP3    H172166   4.564   4.933   4.541 -0.1266  3.8041 -0.4777
16917TIP3    H272167   4.707   4.970   4.510  0.9259  0.8949  0.5795
16918TIP3   OH272168   5.252   5.953   3.873  0.4108  0.3213  0.9238
16918TIP3    H172169   5.273   6.027   3.816 -0.7803  0.0165  0.0484
16918TIP3    H272170   5.337   5.921   3.903  0.9413  2.0054  1.2970
16919TIP3   OH272171   3.736   5.631  12.507 -0.3348  0.2556 -0.1512
16919TIP3    H172172   3.756   5.646  12.415 -1.5984 -0.9292 -0.6513
16919TIP3    H272173   3.645   5.657  12.517 -0.4934 -0.4912  0.5263
16920TIP3   OH272174   3.650   3.252   0.544  0.5340 -0.3073  0.0426
16920TIP3    H172175   3.687   3.181   0.596  0.1882 -0.2329  0.3962
16920TIP3    H272176   3.568   3.274   0.589  0.8897  0.6572  0.2416
16921TIP3   OH272177   2.937   4.311   0.182 -0.0484 -0.0934  0.4155
16921TIP3    H172178   3.002   4.250   0.148 -0.3113  1.0174 -2.4104
16921TIP3    H272179   2.988   4.376   0.230  0.9305  0.3899 -1.1844
16922TIP3   OH272180   3.883   6.566   1.082  0.0046 -0.5405 -0.0654
16922TIP3    H172181   3.966   6.595   1.044 -1.0492  1.0133 -1.2949
16922TIP3    H272182   3.820   6.572   1.010 -1.2382 -1.4412  0.9064
16923TIP3   OH272183   1.285   6.806  12.157  0.3944 -0.2567 -0.1017
16923TIP3    H172184   1.218   6.833  12.095  0.7024  1.8753  0.4194
16923TIP3    H272185   1.368   6.827  12.113  0.6265  0.6774  0.7550
16924TIP3   OH272186   0.966   4.908   1.483  0.0614 -0.3583 -0.2105
16924TIP3    H172187   0.956   4.814   1.497  2.6678 -0.7053 -0.2168
16924TIP3    H272188   1.000   4.915   1.393  0.3547  0.5440 -0.0398
16925TIP3   OH272189   4.935   3.156  14.666  0.2453  0.0427 -0.0124
16925TIP3    H172190   4.889   3.159  14.582  0.1403  0.6668  0.0660
16925TIP3    H272191   4.867   3.176  14.731  0.4517  0.1460  0.1708
16926TIP3   OH272192   1.229   3.108  15.085  0.2773 -0.3587 -0.9973
16926TIP3    H172193   1.241   3.151  15.000 -1.0147 -1.9709 -2.0580
16926TIP3    H272194   1.200   3.179  15.143  0.5940  0.6653 -2.0336
16927TIP3   OH272195   4.908   2.408  10.603  0.5676  0.2367  0.1042
16927TIP3    H172196   4.973   2.473  10.579 -1.4033  2.2093 -0.2197
16927TIP3    H272197   4.852   2.400  10.526 -0.9208  0.3489  1.1274
16928TIP3   OH272198   4.470   2.480  15.184  0.4607  0.2715 -0.7207
16928TIP3    H172199   4.566   2.472  15.188  0.4557  0.4246 -0.3201
16928TIP3    H272200   4.443   2.492  15.275  0.1016  0.7419 -0.8876
16929TIP3   OH272201   1.557   4.747   1.659 -0.3810 -0.3843 -0.2694
16929TIP3    H172202   1.462   4.738   1.665 -0.2997 -1.9641 -0.9272
16929TIP3    H272203   1.586   4.757   1.750 -1.1465 -0.2437 -0.0349
16930TIP3   OH272204   3.562   0.164  12.393 -0.1337 -0.3262  0.1054
16930TIP3    H172205   3.469   0.165  12.417 -0.3766  2.2445 -0.7296
16930TIP3    H272206   3.562   0.159  12.297  0.6232 -0.8144  0.1202
16931TIP3   OH272207   5.687   2.668  10.571  0.5001 -0.0310  0.1771
16931TIP3    H172208   5.774   2.671  10.611  0.9571 -0.7349 -0.7175
16931TIP3    H272209   5.688   2.588  10.518 -1.6468 -1.5814  2.2830
16932TIP3   OH272210   6.417   1.779   3.002 -0.1598 -0.1219 -0.0362
16932TIP3    H172211   6.481   1.729   3.053 -0.1418  0.9163  1.0044
16932TIP3    H272212   6.452   1.868   3.000 -0.8569  0.1497 -0.7078
16933TIP3   OH272213   5.313   0.011  15.024  0.2114  0.7565 -0.1531
16933TIP3    H172214   5.370   0.072  15.070  0.6456  0.5812 -0.4597
16933TIP3    H272215   5.224   0.044  15.041  0.3002  0.2738  1.4212
16934TIP3   OH272216   2.938   1.284   5.976 -0.0815  0.2885  0.0647
16934TIP3    H172217   2.944   1.268   6.070 -0.2508 -1.6911 -0.2121
16934TIP3    H272218   3.002   1.223   5.938  1.3060  2.3061 -1.0378
16935TIP3   OH272219   2.086   1.193  13.368  0.3840  0.6332  0.3598
16935TIP3    H172220   2.158   1.243  13.406  0.5522  0.7068 -0.0412
16935TIP3    H272221   2.101   1.103  13.398  0.7789  0.6061  0.0958
16936TIP3   OH272222   2.760   0.818   2.425  0.1693  0.5752 -0.2501
16936TIP3    H172223   2.770   0.855   2.512 -0.6441  0.4478 -0.0999
16936TIP3    H272224   2.803   0.732   2.431 -1.9756 -0.4993  0.7500
16937TIP3   OH272225   5.395   6.400  15.539  0.5859 -0.2356 -0.2627
16937TIP3    H172226   5.486   6.379  15.516  1.3525  1.5187  0.9676
16937TIP3    H272227   5.361   6.445  15.461  0.6012 -1.2839 -0.8958
16938TIP3   OH272228   3.207   3.700   3.969 -0.2210 -0.7369 -0.0479
16938TIP3    H172229   3.145   3.680   3.899  0.3453  0.0091 -0.7863
16938TIP3    H272230   3.261   3.622   3.976  0.8668 -0.1959 -1.7122
16939TIP3   OH272231   4.632   6.670   1.282 -0.2431  0.1805  0.3758
16939TIP3    H172232   4.702   6.606   1.269  0.1853  0.5508  0.7934
16939TIP3    H272233   4.630   6.720   1.201 -0.2943 -0.0896  0.2101
16940TIP3   OH272234   2.072   5.340   0.890 -0.1032 -0.0555  0.0595
16940TIP3    H172235   1.994   5.394   0.902 -0.2701 -0.2894  0.0359
16940TIP3    H272236   2.094   5.350   0.797 -0.5071 -0.5243 -0.0947
16941TIP3   OH272237   1.893   6.567   5.680 -0.2959  0.2723 -0.3305
16941TIP3    H172238   1.926   6.522   5.757  1.8334 -0.4039 -1.5563
16941TIP3    H272239   1.949   6.644   5.670 -0.0619 -0.0298 -1.5748
16942TIP3   OH272240   0.205   5.325  12.645  0.6910  0.1802  0.4056
16942TIP3    H172241   0.204   5.245  12.697  0.6843  0.4270  0.7919
16942TIP3    H272242   0.250   5.301  12.564  0.6488 -0.2232  0.5002
16943TIP3   OH272243   3.615   5.538  13.007  0.0384 -0.0977 -1.1031
16943TIP3    H172244   3.685   5.568  12.948 -0.9212 -0.6158 -2.5739
16943TIP3    H272245   3.616   5.599  13.080  2.8473 -0.8103 -0.4313
16944TIP3   OH272246   0.597   3.402  17.031  0.1970 -0.0231  0.4296
16944TIP3    H172247   0.575   3.487  17.068  1.8388  0.4023  0.5071
16944TIP3    H272248   0.650   3.422  16.954 -0.4900 -0.9627 -0.3145
16945TIP3   OH272249   5.303   6.621  15.369 -0.4071  0.3270  0.1433
16945TIP3    H172250   5.218   6.625  15.414 -0.5317  1.8120 -0.1931
16945TIP3    H272251   5.350   6.699  15.399  0.0403  0.6130 -1.2542
16946TIP3   OH272252   6.246   2.834  12.307 -0.0488 -0.1161  0.2756
16946TIP3    H172253   6.179   2.879  12.360  0.3255  1.7217 -0.7388
16946TIP3    H272254   6.326   2.883  12.324  0.1468  0.3090 -1.7313
16947TIP3   OH272255   6.040   6.516   5.299  0.5901 -0.6753 -0.3502
16947TIP3    H172256   6.023   6.607   5.274  2.0037 -0.2922  0.0220
16947TIP3    H272257   5.960   6.470   5.274 -0.2169  0.6861 -0.4169
16948TIP3   OH272258   1.046   4.385   5.994  0.0443  0.3225  0.5485
16948TIP3    H172259   1.010   4.327   5.927  0.4140  1.4508 -0.6840
16948TIP3    H272260   1.073   4.327   6.065 -0.7695 -0.8727 -0.0893
16949TIP3   OH272261   2.884   2.893   4.811  0.3611 -0.1262 -0.0512
16949TIP3    H172262   2.796   2.855   4.811 -0.1420  0.9143 -1.9910
16949TIP3    H272263   2.888   2.944   4.892 -1.2727  0.7736 -0.5047
16950TIP3   OH272264   5.651   6.418   3.438 -0.0880 -0.0057  0.5600
16950TIP3    H172265   5.705   6.497   3.443  0.7972 -0.5879  0.5586
16950TIP3    H272266   5.680   6.374   3.358 -0.2638 -0.5433  0.7864
16951TIP3   OH272267   1.786   5.215   5.254 -0.2237 -0.4309  0.7803
16951TIP3    H172268   1.798   5.260   5.337  0.6039  0.5062  0.1850
16951TIP3    H272269   1.696   5.233   5.229  0.5028  2.3215 -0.1970
16952TIP3   OH272270   2.978   3.236  12.159  0.0020 -0.2420  0.4583
16952TIP3    H172271   3.014   3.155  12.194  1.8713  0.4221  0.1907
16952TIP3    H272272   3.021   3.306  12.208 -1.0233  0.6190  0.1860
16953TIP3   OH272273   0.896   4.311  11.007  0.5599  0.5793  0.4534
16953TIP3    H172274   0.824   4.369  10.983  2.9736  2.7491 -2.2167
16953TIP3    H272275   0.876   4.228  10.961  0.0736  1.3753 -0.8359
16954TIP3   OH272276   6.256   3.315  14.038  0.0521 -0.4232  0.6430
16954TIP3    H172277   6.319   3.349  13.974 -0.8661  0.9306  0.4051
16954TIP3    H272278   6.205   3.251  13.989 -0.5498  0.4972  0.0368
16955TIP3   OH272279   4.451   4.123  12.059  0.4552 -0.6683  0.0146
16955TIP3    H172280   4.389   4.066  12.013  0.5171  0.7526 -1.9133
16955TIP3    H272281   4.532   4.072  12.064  0.3669 -0.9635 -1.2522
16956TIP3   OH272282   5.585   6.093   3.512 -0.0999  0.2971  0.1713
16956TIP3    H172283   5.651   6.127   3.452  0.2683 -1.4331 -0.4787
16956TIP3    H272284   5.524   6.165   3.524  1.0617  1.4360 -0.4454
16957TIP3   OH272285   6.094   3.470  10.772  0.0760 -0.2900 -0.0631
16957TIP3    H172286   6.074   3.549  10.821 -0.9322 -0.9432  0.6309
16957TIP3    H272287   6.102   3.499  10.681 -3.2047  0.2661 -0.3078
16958TIP3   OH272288   6.609   1.056  12.606 -0.2374  0.4975  0.1736
16958TIP3    H172289   6.624   0.980  12.551  2.6120  0.5533  0.7402
16958TIP3    H272290   6.588   1.127  12.545  1.9393  0.3496 -0.8378
16959TIP3   OH272291   2.043   3.336  10.363 -0.2405 -0.8023  0.0199
16959TIP3    H172292   2.115   3.279  10.391 -1.2309 -2.5618 -0.7789
16959TIP3    H272293   2.072   3.424  10.385  1.4660 -1.5839  1.1651
16960TIP3   OH272294   2.855   0.581  12.922  0.2364 -0.2765 -0.7532
16960TIP3    H172295   2.787   0.539  12.975 -1.3963  1.9561 -0.9229
16960TIP3    H272296   2.927   0.597  12.984 -0.9560  0.7381  0.4479
16961TIP3   OH272297   3.773   5.424  14.015 -0.3128 -0.0756 -0.2021
16961TIP3    H172298   3.791   5.514  14.044  1.7714 -0.2197 -0.9012
16961TIP3    H272299   3.721   5.387  14.086  1.9529  0.5654  1.9513
16962TIP3   OH272300   2.898   2.223  12.381 -0.8118 -0.1846  0.1966
16962TIP3    H172301   2.807   2.211  12.353 -0.7032 -1.1157  0.2270
16962TIP3    H272302   2.945   2.150  12.341 -0.2545 -0.2768  1.0124
16963TIP3   OH272303   2.599   0.206   3.922 -0.0016 -0.6078  0.5103
16963TIP3    H172304   2.627   0.278   3.977  0.8121 -0.1353 -0.4898
16963TIP3    H272305   2.543   0.247   3.855  2.0915 -0.5085 -1.2947
16964TIP3   OH272306   0.224   4.375  12.590  0.4536  0.1341  0.1620
16964TIP3    H172307   0.181   4.456  12.563  0.3155  0.1094  0.3038
16964TIP3    H272308   0.160   4.306  12.574  0.1783  0.1800  1.0110
16965TIP3   OH272309   3.514   5.994  14.083  0.5874  0.5113  0.0035
16965TIP3    H172310   3.436   6.020  14.133  1.2812 -0.7564  1.8525
16965TIP3    H272311   3.554   6.076  14.057 -0.1298  1.2278  1.0640
16966TIP3   OH272312   6.181   3.881   5.997 -0.1455  0.0894 -0.1073
16966TIP3    H172313   6.225   3.849   6.076 -2.2318  0.4064  1.2538
16966TIP3    H272314   6.191   3.810   5.934 -1.7439 -1.8668  1.7267
16967TIP3   OH272315   4.609   4.331  11.953  0.5276 -0.0524  0.5136
16967TIP3    H172316   4.549   4.263  11.986  1.2732 -1.0308 -0.0860
16967TIP3    H272317   4.553   4.407  11.937 -0.3360 -0.5326  1.1569
16968TIP3   OH272318   1.192   5.482  13.617  0.1082 -0.2498 -0.0136
16968TIP3    H172319   1.166   5.421  13.686 -2.2013 -0.1542 -0.7012
16968TIP3    H272320   1.188   5.431  13.536  1.1814  0.0648 -0.2862
16969TIP3   OH272321   2.514   3.273  11.348 -0.1354 -0.0600 -0.2750
16969TIP3    H172322   2.431   3.286  11.395 -0.8232 -0.4315 -1.3413
16969TIP3    H272323   2.570   3.228  11.411 -1.6070 -2.0884 -0.3007
16970TIP3   OH272324   4.677   0.702  15.192 -0.1182 -0.0938 -0.1259
16970TIP3    H172325   4.678   0.797  15.206  0.2540 -0.1958  0.5882
16970TIP3    H272326   4.686   0.665  15.280  0.0874 -0.7915 -0.4356
16971TIP3   OH272327   3.592   4.379  16.533  0.0996  0.0952 -0.0666
16971TIP3    H172328   3.618   4.339  16.615 -1.4903  0.2827  0.5765
16971TIP3    H272329   3.642   4.460  16.528  1.6898 -0.8681 -0.2918
16972TIP3   OH272330   1.396   6.104   5.481  0.3674  0.7982 -0.1374
16972TIP3    H172331   1.388   6.177   5.542 -2.1765  1.1847 -0.8374
16972TIP3    H272332   1.320   6.112   5.424  1.1452 -1.2190 -1.5647
16973TIP3   OH272333   0.092   6.572  12.117 -0.1412  0.1750 -0.3126
16973TIP3    H172334   0.130   6.530  12.039  1.3459  0.5300  0.1949
16973TIP3    H272335   0.155   6.639  12.141 -0.7755  0.3276  0.9887
16974TIP3   OH272336   2.285   4.252   0.205 -0.1326  0.3025 -0.1097
16974TIP3    H172337   2.198   4.239   0.168 -0.6670 -0.1917  1.2645
16974TIP3    H272338   2.341   4.268   0.129 -1.6331  2.0229 -0.9333
16975TIP3   OH272339   2.415   3.924  15.152  0.0718 -0.1350 -0.4833
16975TIP3    H172340   2.386   3.868  15.225  0.1838 -3.0299 -2.4911
16975TIP3    H272341   2.509   3.911  15.148 -0.2146 -2.4145 -2.7974
16976TIP3   OH272342   6.669   2.837  14.554  0.1925  0.3052  0.0275
16976TIP3    H172343   6.679   2.894  14.478  2.7465  0.3048  0.2723
16976TIP3    H272344   6.619   2.889  14.617 -0.1414  1.0939 -0.8649
16977TIP3   OH272345   1.025   0.802   0.838  0.0211  0.1828  0.5606
16977TIP3    H172346   1.078   0.793   0.759  1.9255  1.6738  1.5931
16977TIP3    H272347   1.087   0.796   0.910 -0.9427  3.1865  1.8083
16978TIP3   OH272348   4.186   5.622   0.770  0.1152 -0.4405 -0.0425
16978TIP3    H172349   4.276   5.607   0.740  0.1037  2.2680 -1.8941
16978TIP3    H272350   4.132   5.591   0.698 -0.3441 -0.6725  0.4021
16979TIP3   OH272351   5.246   5.776  13.257 -0.1302  0.1840 -0.2286
16979TIP3    H172352   5.170   5.768  13.315 -0.7754  2.9337 -0.5631
16979TIP3    H272353   5.321   5.762  13.314 -0.8143  0.6979  0.8270
16980TIP3   OH272354   6.110   2.506  11.485 -0.1513  0.1715  0.1870
16980TIP3    H172355   6.047   2.435  11.496  0.4673  0.0430  4.2875
16980TIP3    H272356   6.194   2.462  11.470 -0.3990  0.2728 -1.8314
16981TIP3   OH272357   2.817   3.253  15.889 -0.4024 -0.7068  0.2739
16981TIP3    H172358   2.791   3.318  15.954  0.0293  0.0911 -0.3315
16981TIP3    H272359   2.805   3.297  15.805  0.2789 -1.2664 -0.1297
16982TIP3   OH272360   5.568   2.193  16.315  0.0588  1.0126  0.6383
16982TIP3    H172361   5.508   2.165  16.246 -0.0489  0.6604  0.8687
16982TIP3    H272362   5.613   2.113  16.341  2.0724  1.5765 -0.8697
16983TIP3   OH272363   3.192   4.577  11.259 -0.1427 -0.0105 -0.0475
16983TIP3    H172364   3.261   4.619  11.312 -0.3476  0.5561 -0.2208
16983TIP3    H272365   3.228   4.575  11.170  0.3409 -1.2735  0.1638
16984TIP3   OH272366   6.560   0.721  15.226 -0.4017  0.2692  0.3692
16984TIP3    H172367   6.570   0.674  15.144  2.1680 -0.4219  1.0051
16984TIP3    H272368   6.617   0.797  15.217 -0.9265  0.7696  1.1247
16985TIP3   OH272369   4.247   1.520  16.510 -0.4725 -0.2701  0.1415
16985TIP3    H172370   4.189   1.594  16.530 -0.3848 -0.3746  0.8064
16985TIP3    H272371   4.209   1.480  16.432  0.5116  1.5877 -1.3816
16986TIP3   OH272372   4.113   1.117  13.026 -0.0338 -0.1190  0.0674
16986TIP3    H172373   4.065   1.194  12.997  1.3413  0.3725 -0.9994
16986TIP3    H272374   4.184   1.107  12.963  1.2607 -0.8373  1.5461
16987TIP3   OH272375   5.488   4.395  15.309 -0.1062 -0.2395 -0.3387
16987TIP3    H172376   5.494   4.313  15.359  0.1016 -1.7512 -2.6979
16987TIP3    H272377   5.571   4.400  15.261 -0.0444  1.4775 -0.1146
16988TIP3   OH272378   4.463   1.872  11.337  0.4836 -1.0945  0.0763
16988TIP3    H172379   4.467   1.939  11.269  1.3864 -0.4228  0.7567
16988TIP3    H272380   4.516   1.799  11.303  1.7522 -0.3735  0.4454
16989TIP3   OH272381   4.855   3.964   1.341 -1.1320 -0.0415 -0.1191
16989TIP3    H172382   4.761   3.951   1.352 -1.1576  1.0167  1.1653
16989TIP3    H272383   4.892   3.954   1.429 -0.2187  0.7529 -0.3877
16990TIP3   OH272384   3.603   1.984  16.669 -0.0883 -0.3132 -0.2318
16990TIP3    H172385   3.685   1.936  16.684  0.3127 -0.4449 -2.5565
16990TIP3    H272386   3.574   1.955  16.583 -1.5727  1.1994 -0.2773
16991TIP3   OH272387   1.044   5.532   0.536 -0.1270 -0.3680  0.3407
16991TIP3    H172388   1.075   5.610   0.490 -1.0963 -0.1848 -0.0221
16991TIP3    H272389   0.952   5.524   0.512 -1.0030  0.3502  3.0662
16992TIP3   OH272390   5.111   5.602   6.068 -0.0072 -0.0630  0.0462
16992TIP3    H172391   5.095   5.508   6.069 -1.7329  0.1989  0.0018
16992TIP3    H272392   5.112   5.625   5.975  0.9009 -0.1004  0.0405
16993TIP3   OH272393   2.193   1.329   0.988  0.1615  0.0266  0.4672
16993TIP3    H172394   2.206   1.303   0.897  0.6816 -0.3448  0.6437
16993TIP3    H272395   2.102   1.358   0.992  0.6254  1.7697 -0.5826
16994TIP3   OH272396   1.517   1.452   3.841  0.0292  0.1424 -0.2597
16994TIP3    H172397   1.472   1.369   3.823  1.1098 -0.7624  0.9845
16994TIP3    H272398   1.481   1.513   3.777 -1.1058 -1.1747 -0.9442
16995TIP3   OH272399   2.536   5.954   3.760  0.2667 -0.5302  0.0403
16995TIP3    H172400   2.472   6.015   3.797 -0.4151 -1.4815  0.4617
16995TIP3    H272401   2.511   5.944   3.669  0.8923  0.4602 -0.2553
16996TIP3   OH272402   0.425   3.020  16.738 -0.1195 -0.3382  0.0186
16996TIP3    H172403   0.418   3.114  16.758  0.4201 -0.0232 -1.1938
16996TIP3    H272404   0.513   2.996  16.767 -0.4186 -0.5761  0.7330
16997TIP3   OH272405   0.186   6.523   4.044  0.1124 -0.3940 -0.2704
16997TIP3    H172406   0.131   6.575   4.102  0.1921  0.0091 -0.5516
16997TIP3    H272407   0.135   6.444   4.027  0.4691 -0.9396  1.0623
16998TIP3   OH272408   3.833   2.387   2.967  0.2649  0.4911 -0.2877
16998TIP3    H172409   3.813   2.309   2.914 -0.3656 -1.1871  2.2318
16998TIP3    H272410   3.753   2.438   2.966  1.1000  1.9722 -3.1009
16999TIP3   OH272411   2.742   6.365   1.526 -0.1455 -0.0296 -0.3470
16999TIP3    H172412   2.770   6.357   1.435 -1.7430 -0.1031 -0.8529
16999TIP3    H272413   2.811   6.320   1.576  0.8825  0.2433 -1.4688
17000TIP3   OH272414   2.785   1.714  13.958 -0.2804  0.0508  0.4282
17000TIP3    H172415   2.816   1.749  13.875 -2.6166 -2.4857 -1.7492
17000TIP3    H272416   2.732   1.784  13.995 -0.5048  0.7149 -1.0601
17001TIP3   OH272417   1.513   6.442   1.610  0.1316 -0.1140  0.4315
17001TIP3    H172418   1.557   6.373   1.561  0.0493 -0.0647  0.2876
17001TIP3    H272419   1.495   6.511   1.546  0.7055  0.2827  0.6853
17002TIP3   OH272420   6.803   1.116  14.081 -0.0424 -0.0092 -0.3619
17002TIP3    H172421   6.720   1.077  14.108 -0.6444  0.6604 -1.2308
17002TIP3    H272422   6.839   1.153  14.162 -0.7723  0.0430 -0.0537
17003TIP3   OH272423   0.137   4.856   6.090  0.0940  0.9918  0.2148
17003TIP3    H172424   0.119   4.912   6.166 -0.3605  1.4381 -0.2077
17003TIP3    H272425   0.079   4.781   6.102  0.0536  1.0403  0.3297
17004TIP3   OH272426   2.035   5.843   5.894 -0.3774  0.3361  0.3625
17004TIP3    H172427   1.984   5.836   5.975  0.0208 -0.5795  0.5565
17004TIP3    H272428   2.044   5.937   5.879 -1.4549  0.5176  0.7393
17005TIP3   OH272429   0.097   5.765   4.941 -0.6001 -0.4851 -0.3089
17005TIP3    H172430   0.072   5.686   4.989  0.7907 -0.7033  0.1028
17005TIP3    H272431   0.099   5.738   4.849  1.8286 -1.5248 -0.0101
17006TIP3   OH272432   3.268   4.809  13.615  0.4091  0.5714 -0.2274
17006TIP3    H172433   3.243   4.719  13.633  1.0199  0.3873 -0.2761
17006TIP3    H272434   3.187   4.851  13.586  0.1859 -0.0396 -0.5077
17007TIP3   OH272435   1.874   1.986  15.601  0.1090 -0.5242 -0.1966
17007TIP3    H172436   1.832   1.905  15.631  2.0721 -1.5912 -0.1725
17007TIP3    H272437   1.967   1.973  15.620  0.4828  1.7365 -0.2589
17008TIP3   OH272438   4.943   6.092   0.102  0.8579  0.2616 -0.1490
17008TIP3    H172439   4.974   6.172   0.146  0.3283  1.2463 -1.5020
17008TIP3    H272440   4.872   6.060   0.159  1.3634  0.4909  0.6341
17009TIP3   OH272441   4.544   0.700  15.839  0.7382  0.0033 -0.2397
17009TIP3    H172442   4.595   0.620  15.853  1.8869  0.4812 -1.4526
17009TIP3    H272443   4.592   0.768  15.885  0.5318  0.2525 -0.3899
17010TIP3   OH272444   3.989   2.080   5.113 -0.6609 -0.1224 -0.2452
17010TIP3    H172445   3.897   2.084   5.086 -0.6990  0.0114 -0.0905
17010TIP3    H272446   3.987   2.036   5.198 -0.6082  0.1412 -0.1081
17011TIP3   OH272447   3.488   2.311   4.891 -0.2552  1.1219  0.4074
17011TIP3    H172448   3.530   2.397   4.893 -1.0757  1.5367  0.3298
17011TIP3    H272449   3.463   2.295   4.982 -1.7120  1.7993  0.1559
17012TIP3   OH272450   5.260   2.681  13.241 -0.5244 -0.4853 -0.6069
17012TIP3    H172451   5.301   2.765  13.222  0.4618 -1.3593 -2.6582
17012TIP3    H272452   5.213   2.695  13.323  2.7131  0.9960  1.1764
17013TIP3   OH272453   4.803   6.034  13.027 -0.3922 -0.3007 -0.0033
17013TIP3    H172454   4.832   5.997  12.943 -0.8623 -1.4615  0.3300
17013TIP3    H272455   4.788   5.958  13.083  0.2392  0.4748  1.2595
17014TIP3   OH272456   2.438   0.166  13.639  0.0509  0.4596  0.0151
17014TIP3    H172457   2.482   0.081  13.629  0.3743  0.5474  0.6269
17014TIP3    H272458   2.506   0.230  13.623 -0.0585  0.5995  0.1042
17015TIP3   OH272459   6.725   6.472  14.644  0.2053  0.0492 -0.3382
17015TIP3    H172460   6.657   6.538  14.653 -0.8005 -1.0747  0.7585
17015TIP3    H272461   6.736   6.437  14.733  1.4302 -0.5597 -0.7075
17016TIP3   OH272462   6.028   6.764   4.181  0.7391  0.3735 -0.0591
17016TIP3    H172463   6.115   6.794   4.154  0.8374 -1.2714 -1.7252
17016TIP3    H272464   6.007   6.693   4.121 -1.5645  0.3908  0.6327
17017TIP3   OH272465   2.723   3.516   0.931 -0.2468  0.3122 -0.3295
17017TIP3    H172466   2.698   3.595   0.884  0.9329  0.3580 -0.8943
17017TIP3    H272467   2.777   3.466   0.869  0.8354  0.0925  0.7535
17018TIP3   OH272468   3.892   1.122  12.343 -0.1697  0.4070 -0.0841
17018TIP3    H172469   3.985   1.137  12.329 -0.5084  1.0872 -1.8290
17018TIP3    H272470   3.885   1.028  12.362  0.6932 -0.0845 -1.9803
17019TIP3   OH272471   2.314   6.350   2.235 -0.3129  0.1423  0.1758
17019TIP3    H172472   2.286   6.418   2.296 -1.2191 -1.4401  1.6075
17019TIP3    H272473   2.232   6.310   2.204  0.1103  0.8803 -2.1487
17020TIP3   OH272474   1.470   2.949  16.761  0.1260  0.5412  0.2807
17020TIP3    H172475   1.409   2.951  16.835 -0.8838  0.2927 -0.5321
17020TIP3    H272476   1.441   3.019  16.703 -0.8256 -1.0303 -1.2145
17021TIP3   OH272477   5.354   2.022  15.221  0.2219  0.2044 -0.2312
17021TIP3    H172478   5.346   1.998  15.314 -2.7524  1.4608 -0.0563
17021TIP3    H272479   5.398   2.107  15.222 -1.0399  0.8791  0.1920
17022TIP3   OH272480   0.428   1.067   1.814  0.0910  0.2856  0.1490
17022TIP3    H172481   0.471   1.115   1.743  1.0473 -1.8332 -0.8069
17022TIP3    H272482   0.346   1.036   1.776 -0.4527  1.0316  0.7087
17023TIP3   OH272483   1.959   2.936  14.055  0.4257 -0.2830 -0.1144
17023TIP3    H172484   1.869   2.910  14.033  0.8819 -2.5319  0.4413
17023TIP3    H272485   1.952   2.970  14.144  0.1868 -0.8758  0.0996
17024TIP3   OH272486   1.032   2.659   1.028  0.1442 -0.2292 -0.3402
17024TIP3    H172487   1.087   2.636   0.954 -0.0498  1.3517 -1.0185
17024TIP3    H272488   1.076   2.620   1.104  2.0163  0.6659 -0.9019
17025TIP3   OH272489   3.394   1.810  14.845 -0.0709  0.1369 -0.4550
17025TIP3    H172490   3.329   1.856  14.898  0.1952 -1.2771  1.1750
17025TIP3    H272491   3.348   1.788  14.764 -0.6441  1.8800 -0.6431
17026TIP3   OH272492   2.455   5.621   1.029 -0.7723  0.3444  0.0045
17026TIP3    H172493   2.497   5.704   1.054 -0.4150  0.9791 -2.4637
17026TIP3    H272494   2.362   5.641   1.026 -0.5088  1.7824 -3.9122
17027TIP3   OH272495   4.733   6.239  15.801 -0.2122  0.8720  0.0758
17027TIP3    H172496   4.784   6.307  15.756  0.3237 -0.2624 -1.0871
17027TIP3    H272497   4.797   6.192  15.853 -0.1573 -0.1602 -0.8972
17028TIP3   OH272498   1.469   3.359   1.201  0.4471  0.4330  0.5106
17028TIP3    H172499   1.522   3.431   1.167 -2.0705  1.1542 -2.3898
17028TIP3    H272500   1.475   3.291   1.134 -2.0849  0.5191  0.0883
17029TIP3   OH272501   3.134   0.597   5.407  0.6315 -0.3453  0.6544
17029TIP3    H172502   3.153   0.686   5.438 -0.7466 -0.3636  1.6327
17029TIP3    H272503   3.086   0.556   5.479 -0.3901 -1.2640 -0.5036
17030TIP3   OH272504   4.941   3.937   5.283  0.1019  0.1774 -0.4937
17030TIP3    H172505   4.946   3.849   5.320  0.8122  0.0001 -1.0061
17030TIP3    H272506   4.944   3.995   5.359 -1.9420 -0.2427 -0.0114
17031TIP3   OH272507   6.169   5.179  16.533 -0.1466  0.4247 -0.2276
17031TIP3    H172508   6.121   5.248  16.488 -0.5725 -0.2771 -0.8773
17031TIP3    H272509   6.126   5.172  16.619 -1.7829 -0.7163 -1.0636
17032TIP3   OH272510   5.557   3.820   4.906  0.3557  0.3166 -0.1126
17032TIP3    H172511   5.630   3.859   4.856 -0.0831 -0.1150 -1.1199
17032TIP3    H272512   5.493   3.797   4.839 -0.1471 -0.5167  0.6508
17033TIP3   OH272513   3.647   5.025   2.697 -0.1387 -0.4404  0.6461
17033TIP3    H172514   3.594   4.952   2.728 -0.8588 -0.8840 -1.4545
17033TIP3    H272515   3.599   5.103   2.726 -1.4339 -0.8355 -0.3218
17034TIP3   OH272516   2.561   6.777  14.951 -0.7817  0.0923 -0.2773
17034TIP3    H172517   2.625   6.826  14.900  0.4324 -0.9611  0.1718
17034TIP3    H272518   2.500   6.844  14.983  0.1720  1.1529 -0.5908
17035TIP3   OH272519   1.026   0.737   5.858 -0.4906 -0.2564 -0.8167
17035TIP3    H172520   1.109   0.701   5.827  0.1787  1.4291 -1.0793
17035TIP3    H272521   1.041   0.755   5.951 -0.2598  0.7951 -1.0403
17036TIP3   OH272522   2.156   3.920   4.776  0.3775  0.2922  0.4543
17036TIP3    H172523   2.096   3.948   4.707 -1.4759 -1.4492  1.2639
17036TIP3    H272524   2.207   3.849   4.735 -0.7421 -0.7613  0.8306
17037TIP3   OH272525   3.967   2.609   0.289 -0.4023 -0.1049 -0.6397
17037TIP3    H172526   3.966   2.513   0.293 -0.8363 -0.1146 -0.9073
17037TIP3    H272527   3.957   2.630   0.196 -1.6697  0.1998 -0.4665
17038TIP3   OH272528   1.940   5.911  12.557  0.1479 -0.6644 -0.1497
17038TIP3    H172529   1.905   5.844  12.497  1.3851 -1.5166  0.0447
17038TIP3    H272530   1.980   5.861  12.628 -0.3313  0.3257  0.8421
17039TIP3   OH272531   2.749   0.342  16.186 -0.6398  0.2474 -0.7217
17039TIP3    H172532   2.831   0.335  16.137  0.2998  1.5586  0.5610
17039TIP3    H272533   2.688   0.285  16.139  0.5597  0.4162 -2.6150
17040TIP3   OH272534   1.455   0.307   1.734  0.0917  0.5158 -0.2830
17040TIP3    H172535   1.474   0.381   1.676  1.7322 -0.1929 -0.6972
17040TIP3    H272536   1.480   0.230   1.684 -4.3816 -0.7022 -1.0871
17041TIP3   OH272537   0.522   5.995  10.642 -0.3611 -0.3088 -0.4209
17041TIP3    H172538   0.439   6.031  10.611 -1.2599 -1.1536  0.9210
17041TIP3    H272539   0.565   5.962  10.562 -1.4718 -0.1920 -1.0867
17042TIP3   OH272540   5.266   2.589   0.667 -0.0425  0.1046 -0.5428
17042TIP3    H172541   5.277   2.684   0.669  1.2114  0.0839  4.0901
17042TIP3    H272542   5.354   2.555   0.684 -0.3717 -2.0411 -2.5892
17043TIP3   OH272543   2.874   5.123  11.900 -0.5238 -1.1636  0.0548
17043TIP3    H172544   2.780   5.111  11.911 -0.6866 -1.1090 -1.1203
17043TIP3    H272545   2.891   5.096  11.810  0.0559  1.7153 -0.7990
17044TIP3   OH272546   2.594   5.149   3.165 -0.3058 -0.0686  0.8443
17044TIP3    H172547   2.653   5.222   3.187 -0.4962  0.2552  0.3056
17044TIP3    H272548   2.622   5.078   3.222  2.3490 -0.7872 -1.1285
17045TIP3   OH272549   3.266   2.501  14.000 -0.5764  0.6019  0.9303
17045TIP3    H172550   3.350   2.454  13.994 -2.0640 -2.2600  0.5624
17045TIP3    H272551   3.217   2.453  14.066 -2.3403  1.5016  0.3282
17046TIP3   OH272552   0.609   4.713  10.985  0.3024 -0.1301  0.3181
17046TIP3    H172553   0.584   4.739  11.073  0.9560  0.6153  0.2895
17046TIP3    H272554   0.700   4.741  10.976 -0.1431  0.9675 -1.0380
17047TIP3   OH272555   6.707   6.330  15.135 -0.4000 -0.1510 -0.4801
17047TIP3    H172556   6.731   6.274  15.208  1.0537  0.7391 -0.2221
17047TIP3    H272557   6.662   6.404  15.175 -0.0807  0.0741 -0.5306
17048TIP3   OH272558   5.461   2.897  10.811 -0.1989 -0.3625 -0.6022
17048TIP3    H172559   5.403   2.849  10.752 -0.7907 -1.2598  0.6710
17048TIP3    H272560   5.502   2.829  10.864  2.2978  0.2107 -1.6443
17049TIP3   OH272561   3.874   4.943  15.488  0.0861  0.4645 -1.1213
17049TIP3    H172562   3.833   5.006  15.547  0.7066 -0.4902  0.3991
17049TIP3    H272563   3.967   4.959  15.497  0.3154 -1.3243  0.1170
17050TIP3   OH272564   0.006   4.932   1.954  0.4146 -0.7216  0.3494
17050TIP3    H172565   0.030   4.918   2.045  0.5464 -1.3807  0.2202
17050TIP3    H272566   0.043   5.017   1.931  0.2662 -0.4937  0.9466
17051TIP3   OH272567   0.952   5.783   1.815  0.7846 -0.0195 -0.2957
17051TIP3    H172568   0.979   5.698   1.848 -2.2774 -1.1022 -0.2472
17051TIP3    H272569   0.895   5.818   1.884  1.5377  1.8685 -0.5536
17052TIP3   OH272570   6.142   0.345  16.625 -0.0432  0.3433  0.0013
17052TIP3    H172571   6.136   0.394  16.706 -2.2414 -0.3723  0.3393
17052TIP3    H272572   6.094   0.397  16.561  1.1030  0.5790 -0.7030
17053TIP3   OH272573   4.229   1.619   2.921  0.0382 -0.0050 -0.0354
17053TIP3    H172574   4.162   1.552   2.909  0.6340 -1.1154  2.2475
17053TIP3    H272575   4.278   1.590   2.998  1.6153  2.0277 -0.1918
17054TIP3   OH272576   3.348   4.365  15.097 -0.3971 -0.0708  0.2853
17054TIP3    H172577   3.280   4.302  15.122 -1.1711  0.2095 -1.0410
17054TIP3    H272578   3.304   4.428  15.040  0.3451  1.7428  1.6116
17055TIP3   OH272579   5.767   3.959  11.176  0.0429  0.2974  0.2782
17055TIP3    H172580   5.718   3.964  11.094 -0.2898  2.6660  0.5573
17055TIP3    H272581   5.767   4.048  11.210  2.2504 -0.1463  1.6706
17056TIP3   OH272582   5.179   0.515   4.910 -0.2450 -0.2350 -0.1913
17056TIP3    H172583   5.207   0.446   4.970 -0.3916  0.9849  1.3309
17056TIP3    H272584   5.233   0.591   4.933 -2.1706  1.0683  0.3196
17057TIP3   OH272585   1.331   3.922   1.119 -0.1180 -0.3143 -0.3403
17057TIP3    H172586   1.341   3.893   1.210 -0.5698 -0.4326 -0.3279
17057TIP3    H272587   1.421   3.938   1.090 -0.0375  0.8203  0.4753
17058TIP3   OH272588   6.485   5.232   4.088  0.3847  0.5077  0.5329
17058TIP3    H172589   6.515   5.319   4.114 -0.8444  1.0203  0.2955
17058TIP3    H272590   6.514   5.175   4.159  1.4466  1.0499  0.5579
17059TIP3   OH272591   2.392   0.682  11.168 -0.1862  0.1557  0.9818
17059TIP3    H172592   2.403   0.771  11.201 -0.4347  0.7015 -0.3258
17059TIP3    H272593   2.471   0.636  11.197  1.1891  1.4958 -0.4133
17060TIP3   OH272594   5.361   2.735   5.599 -0.5077  0.2225 -0.5902
17060TIP3    H172595   5.351   2.829   5.611  2.7793  0.4078  2.0810
17060TIP3    H272596   5.373   2.724   5.504  0.1908  2.6783 -0.8450
17061TIP3   OH272597   3.985   5.477   4.322 -0.0025 -0.0613 -0.0171
17061TIP3    H172598   4.025   5.417   4.385 -0.3606 -0.3077 -0.0204
17061TIP3    H272599   4.058   5.510   4.270  0.2000 -0.4634  0.0119
17062TIP3   OH272600   5.241   2.748   4.544 -0.3008  0.2421 -0.5243
17062TIP3    H172601   5.233   2.780   4.634 -0.9135  2.4641 -1.3048
17062TIP3    H272602   5.272   2.658   4.553  0.2362  0.6068  1.8853
17063TIP3   OH272603   6.257   0.233   4.416  0.3278 -0.0564  0.4154
17063TIP3    H172604   6.277   0.228   4.509  2.4497  0.8812  0.0890
17063TIP3    H272605   6.246   0.326   4.398 -1.3668 -0.3173 -0.0725
17064TIP3   OH272606   6.464   1.250   2.224  0.2443 -0.0908 -0.3229
17064TIP3    H172607   6.427   1.237   2.311  1.3947  3.2777  0.7834
17064TIP3    H272608   6.394   1.222   2.165 -1.0237 -1.3214  1.6401
17065TIP3   OH272609   6.579   5.436  10.864  0.0531 -0.3504  0.5657
17065TIP3    H172610   6.522   5.366  10.894  0.3373 -0.3772  1.0460
17065TIP3    H272611   6.613   5.405  10.780 -1.0204 -0.1215  0.0247
17066TIP3   OH272612   3.752   1.133   0.984 -0.5047  0.0929 -0.3221
17066TIP3    H172613   3.750   1.191   1.060 -0.2555  2.7550 -2.2409
17066TIP3    H272614   3.820   1.168   0.928  0.3195 -2.6736 -1.2177
17067TIP3   OH272615   3.229   1.484  13.950 -0.1362 -0.2473  0.0140
17067TIP3    H172616   3.178   1.557  13.984  0.1717  0.1120 -0.2739
17067TIP3    H272617   3.320   1.512  13.960 -0.0102 -0.7109  0.1617
17068TIP3   OH272618   4.976   1.691   0.093 -0.2168 -0.0512 -0.2546
17068TIP3    H172619   4.915   1.766   0.091 -0.1656  0.0435  0.9119
17068TIP3    H272620   5.023   1.702   0.175  0.8322 -0.5701 -0.7796
17069TIP3   OH272621   4.563   1.176   4.459 -0.4905  0.0760  0.2578
17069TIP3    H172622   4.527   1.089   4.480  0.7772 -0.2596  1.1891
17069TIP3    H272623   4.645   1.157   4.414  0.3788  0.7546  1.5039
17070TIP3   OH272624   2.703   6.719  16.110  0.4330  0.3263 -0.0808
17070TIP3    H172625   2.682   6.799  16.062 -3.3642 -0.9262 -0.8864
17070TIP3    H272626   2.692   6.649  16.044 -0.3291 -1.1085  1.5001
17071TIP3   OH272627   2.594   1.138  13.754  0.0440  0.4101 -0.1478
17071TIP3    H172628   2.645   1.091  13.688 -2.4303  2.4464 -3.8668
17071TIP3    H272629   2.554   1.068  13.807  0.2290 -1.5285 -2.3796
17072TIP3   OH272630   2.652   0.196  16.947  0.2112 -0.0963  0.2131
17072TIP3    H172631   2.681   0.104  16.947  2.4552  0.4331 -3.1844
17072TIP3    H272632   2.604   0.206  16.865 -0.8505  1.5743  0.9933
17073TIP3   OH272633   1.056   5.676   3.123 -0.6251 -0.8573 -0.2449
17073TIP3    H172634   1.061   5.703   3.031  1.5290  0.8729  0.2921
17073TIP3    H272635   1.136   5.626   3.138 -0.1720  0.1818  1.0372
17074TIP3   OH272636   5.671   2.181   4.658  0.3199  0.0397  0.4655
17074TIP3    H172637   5.717   2.108   4.615  1.8650 -0.0292  2.1448
17074TIP3    H272638   5.644   2.146   4.743 -3.2585 -0.0265 -0.5284
17075TIP3   OH272639   0.655   1.811   1.903  0.6638  0.4891  0.3241
17075TIP3    H172640   0.602   1.781   1.977  0.7909 -1.1884 -0.2251
17075TIP3    H272641   0.618   1.766   1.827 -0.8549  3.7688 -1.0837
17076TIP3   OH272642   5.137   6.325  15.599 -0.2085 -0.5842  0.6249
17076TIP3    H172643   5.091   6.404  15.571  0.3699 -0.2056  0.7370
17076TIP3    H272644   5.230   6.344  15.585 -0.1698 -2.1519 -1.6925
17077TIP3   OH272645   6.067   0.791  16.452  0.4570 -0.4944 -0.3312
17077TIP3    H172646   6.025   0.874  16.429 -2.9284 -1.8931  0.1924
17077TIP3    H272647   6.135   0.780  16.386 -2.1105  0.5199 -3.4297
17078TIP3   OH272648   0.239   2.388  13.174  0.1579  0.0431 -0.0536
17078TIP3    H172649   0.217   2.408  13.265  0.8076 -0.5241  0.2328
17078TIP3    H272650   0.246   2.293  13.171 -3.5809 -0.3612 -1.5559
17079TIP3   OH272651   0.913   2.937   1.562 -0.1639 -0.3519 -0.1666
17079TIP3    H172652   0.880   3.006   1.506 -0.5696 -0.7586 -0.4384
17079TIP3    H272653   0.834   2.901   1.604  0.1700  0.2448  1.0178
17080TIP3   OH272654   0.636   6.780  16.018  0.2418  0.3132  0.1972
17080TIP3    H172655   0.661   6.804  15.929  0.0911 -1.7074 -0.4269
17080TIP3    H272656   0.541   6.784  16.019  0.0522 -2.4753 -0.6461
17081TIP3   OH272657   1.257   5.457  12.471 -0.0312  0.4433  0.5649
17081TIP3    H172658   1.324   5.411  12.523 -1.2492 -1.9148  0.1904
17081TIP3    H272659   1.179   5.454  12.525 -0.6548  0.2439 -0.3235
17082TIP3   OH272660   3.744   0.563   2.149  0.1316 -0.0220 -0.1405
17082TIP3    H172661   3.802   0.508   2.201  0.0596 -1.8463 -1.8632
17082TIP3    H272662   3.796   0.642   2.130 -0.1046  1.0600  3.1581
17083TIP3   OH272663   3.404   4.979   4.521  0.2561 -0.5078 -0.1820
17083TIP3    H172664   3.466   5.023   4.463 -0.3952  0.0939 -0.4451
17083TIP3    H272665   3.455   4.957   4.599  0.8840 -0.3621 -0.5413
17084TIP3   OH272666   3.180   5.376  13.125  0.1551 -0.1244 -0.2413
17084TIP3    H172667   3.137   5.393  13.209  0.0909 -1.2757 -0.0251
17084TIP3    H272668   3.179   5.461  13.080 -1.9395 -0.0007 -0.0596
17085TIP3   OH272669   6.163   1.731   3.314 -0.3153  0.0798  0.4962
17085TIP3    H172670   6.125   1.657   3.267 -2.1839 -0.0357  2.0898
17085TIP3    H272671   6.252   1.703   3.334 -1.0081 -1.7865  1.1300
17086TIP3   OH272672   3.987   3.644  12.004 -0.2653 -0.3086 -0.3268
17086TIP3    H172673   4.060   3.584  11.986 -0.0829  0.1341 -1.0836
17086TIP3    H272674   3.966   3.682  11.919 -3.0588 -2.3063 -0.6749
17087TIP3   OH272675   4.694   3.633   4.428  0.3849  0.8879 -0.0654
17087TIP3    H172676   4.657   3.669   4.509 -1.8158  0.5891 -0.8679
17087TIP3    H272677   4.639   3.557   4.409  0.5635  1.2096 -2.0657
17088TIP3   OH272678   5.738   4.309  14.878 -0.0760  0.8394 -0.6682
17088TIP3    H172679   5.647   4.280  14.877 -0.3735  1.7368 -0.6804
17088TIP3    H272680   5.761   4.311  14.971  0.6325 -1.4219 -0.7328
17089TIP3   OH272681   4.728   3.088  11.325  0.3413  0.1785  0.0495
17089TIP3    H172682   4.685   3.013  11.366  0.4751 -0.3233 -0.7190
17089TIP3    H272683   4.656   3.140  11.289  0.3118 -0.2224 -0.4891
17090TIP3   OH272684   3.345   6.471   0.261  0.0948  0.0867 -0.0771
17090TIP3    H172685   3.314   6.438   0.176  1.1149  1.6671 -1.1183
17090TIP3    H272686   3.415   6.411   0.286  2.0541  1.3979 -2.0263
17091TIP3   OH272687   5.295   3.079  16.497  0.1528 -0.2609 -0.1186
17091TIP3    H172688   5.317   3.008  16.557  1.1754 -0.0853 -0.2664
17091TIP3    H272689   5.254   3.036  16.422  0.5657 -0.6677 -0.1132
17092TIP3   OH272690   5.772   3.736  11.943  0.1313 -0.9117 -0.0303
17092TIP3    H172691   5.858   3.718  11.906  0.0883 -0.2450 -0.4833
17092TIP3    H272692   5.710   3.713  11.873  0.0637  0.6018 -0.5079
17093TIP3   OH272693   6.221   0.147   5.609  0.2634  0.0665 -0.1395
17093TIP3    H172694   6.293   0.181   5.663  0.4713 -0.1054 -0.3077
17093TIP3    H272695   6.265   0.108   5.533  0.1486 -2.1009  0.8299
17094TIP3   OH272696   3.481   1.830   5.998 -0.6500  0.0211 -0.6568
17094TIP3    H172697   3.398   1.812   5.953 -0.3878 -1.5426 -0.5738
17094TIP3    H272698   3.454   1.865   6.083 -1.2252 -0.1701 -0.7529
17095TIP3   OH272699   1.308   5.343   4.966  0.0113 -0.0849 -0.2660
17095TIP3    H172700   1.356   5.423   4.944 -0.9824  0.9664  1.1863
17095TIP3    H272701   1.217   5.363   4.945 -0.3425 -0.5750  0.7343
17096TIP3   OH272702   3.062   6.504   1.383 -0.2988 -0.0936  0.2460
17096TIP3    H172703   3.033   6.593   1.403 -1.5589 -0.0953 -1.3633
17096TIP3    H272704   3.026   6.486   1.296  1.6053 -1.4602 -0.3133
17097TIP3   OH272705   6.155   1.399   1.358  0.4279  0.5211  0.2463
17097TIP3    H172706   6.148   1.494   1.347  1.2059  0.7731  1.7272
17097TIP3    H272707   6.244   1.385   1.389 -0.0490 -0.5797  1.1698
17098TIP3   OH272708   3.195   5.086   4.352 -0.0233 -0.0741 -0.1844
17098TIP3    H172709   3.172   5.010   4.299 -0.1980 -0.6335  0.6608
17098TIP3    H272710   3.260   5.053   4.414 -0.0648  0.4692  0.1587
17099TIP3   OH272711   2.353   3.515   1.831  0.5463 -0.0750 -0.6330
17099TIP3    H172712   2.392   3.541   1.914  2.7943 -2.3970 -0.8050
17099TIP3    H272713   2.351   3.595   1.779  1.3460  0.9445  0.8455
17100TIP3   OH272714   2.724   1.689  11.355  0.8868  0.1408 -0.5259
17100TIP3    H172715   2.772   1.688  11.438 -0.3410  0.5890  0.2136
17100TIP3    H272716   2.760   1.763  11.307  2.1300 -0.5674 -0.7423
17101TIP3   OH272717   3.245   3.819   0.435 -0.2634 -0.1907 -0.3608
17101TIP3    H172718   3.182   3.761   0.393 -0.2569  0.2696 -1.0253
17101TIP3    H272719   3.197   3.860   0.506 -0.4324 -0.5700 -0.2539
17102TIP3   OH272720   0.707   0.412  16.191 -0.0435 -0.4779  0.1234
17102TIP3    H172721   0.786   0.445  16.235  0.1724  0.3725 -0.8717
17102TIP3    H272722   0.698   0.322  16.223  1.4066 -0.6376  0.1724
17103TIP3   OH272723   6.570   6.568   1.653  0.3090  0.0288  0.2699
17103TIP3    H172724   6.517   6.509   1.599 -0.2147  0.8319 -0.1066
17103TIP3    H272725   6.661   6.544   1.634  0.2046  1.3435 -2.2112
17104TIP3   OH272726   0.606   2.097   5.580  0.0831  0.2265  0.5333
17104TIP3    H172727   0.693   2.091   5.620 -0.2328 -0.4023  1.1530
17104TIP3    H272728   0.545   2.079   5.652 -0.5432  0.1289 -0.0096
17105TIP3   OH272729   1.450   4.028  12.302  0.1119  0.4180 -0.2822
17105TIP3    H172730   1.380   3.985  12.350 -0.6163  0.9968 -0.7957
17105TIP3    H272731   1.530   4.009  12.352 -0.4614  0.0546  0.5045
17106TIP3   OH272732   5.832   3.124  14.583  0.8232  0.0414  0.0889
17106TIP3    H172733   5.781   3.195  14.624  0.5954  0.7738 -1.3770
17106TIP3    H272734   5.771   3.085  14.520  1.8003  0.4347 -1.1501
17107TIP3   OH272735   3.222   5.521   3.981  0.2277 -0.4169  0.1934
17107TIP3    H172736   3.168   5.601   3.983  1.5043  0.4838  2.0128
17107TIP3    H272737   3.160   5.450   3.998 -0.8861  0.1824 -1.1529
17108TIP3   OH272738   1.519   3.467  10.171  0.6735 -0.5493 -0.3714
17108TIP3    H172739   1.484   3.486  10.258  1.2421  1.1055 -0.4726
17108TIP3    H272740   1.485   3.380  10.150  1.3561 -1.4575  1.9227
17109TIP3   OH272741   4.392   5.352   6.205 -0.4968  0.1856 -0.0394
17109TIP3    H172742   4.478   5.333   6.167 -0.2354  0.7313  0.2780
17109TIP3    H272743   4.405   5.346   6.299 -0.5098  1.4980  0.0599
17110TIP3   OH272744   3.732   2.114   3.563 -0.5221 -0.4625 -0.0268
17110TIP3    H172745   3.680   2.063   3.501  0.7792 -2.3004  0.3037
17110TIP3    H272746   3.668   2.163   3.615 -1.7577 -0.8890 -1.1151
17111TIP3   OH272747   2.966   1.065   5.196  0.1331 -0.6345 -0.1925
17111TIP3    H172748   2.999   1.153   5.179  0.4033 -0.9594 -1.4382
17111TIP3    H272749   2.872   1.077   5.211  0.5587  0.1820  2.5014
17112TIP3   OH272750   4.516   3.920  14.162  0.5981  0.3312  0.0924
17112TIP3    H172751   4.461   3.995  14.183  1.3354  1.2449 -1.1385
17112TIP3    H272752   4.530   3.876  14.246 -0.2829  1.2442  0.7410
17113TIP3   OH272753   0.194   2.909   2.088  0.4179 -0.1605  0.1521
17113TIP3    H172754   0.237   2.994   2.075  0.9574 -0.5954 -0.9952
17113TIP3    H272755   0.267   2.847   2.098  0.0873 -0.8835 -1.6690
17114TIP3   OH272756   2.780   5.948  14.324 -0.3845 -0.0809  0.0769
17114TIP3    H172757   2.795   5.854  14.329 -1.5756 -0.2437  1.3393
17114TIP3    H272758   2.802   5.981  14.411  0.5983  0.9182 -0.5270
17115TIP3   OH272759   2.927   0.856   1.171 -0.1549 -0.1987  0.3560
17115TIP3    H172760   2.914   0.774   1.219 -2.5110 -0.5644 -0.7807
17115TIP3    H272761   2.937   0.829   1.080 -0.3667  0.7313  0.0464
17116TIP3   OH272762   5.225   5.421   6.397 -0.0929  0.0360 -0.1523
17116TIP3    H172763   5.150   5.371   6.366  1.3541 -1.7862 -0.8903
17116TIP3    H272764   5.274   5.360   6.452  0.6761  1.2954  0.6063
17117TIP3   OH272765   6.817   0.492  14.092  0.2167  0.2149 -0.5404
17117TIP3    H172766   6.893   0.472  14.148 -0.3409  0.3649  0.2893
17117TIP3    H272767   6.830   0.584  14.068  0.6506  0.0456 -0.9751
17118TIP3   OH272768   0.815   6.629   1.712  0.4549  0.1661  0.4430
17118TIP3    H172769   0.873   6.649   1.639  0.1843 -1.6440 -0.3399
17118TIP3    H272770   0.736   6.592   1.670 -1.0423  1.9857  1.5025
17119TIP3   OH272771   2.924   2.817  16.067  0.4934 -0.1932 -0.1943
17119TIP3    H172772   3.014   2.795  16.044  1.1333  0.0089  1.8760
17119TIP3    H272773   2.932   2.895  16.122 -1.1167  0.8742 -1.3928
17120TIP3   OH272774   1.484   2.174   6.063 -0.5480 -0.2044  0.1055
17120TIP3    H172775   1.500   2.082   6.043 -1.7976 -0.5555  0.6098
17120TIP3    H272776   1.393   2.188   6.039 -0.4731  0.8145  0.3723
17121TIP3   OH272777   5.078   2.813   2.140 -0.6241 -0.1630 -0.4922
17121TIP3    H172778   5.081   2.880   2.071  0.0816 -0.6833 -0.9793
17121TIP3    H272779   5.073   2.730   2.093  0.5366 -0.5672  0.0592
17122TIP3   OH272780   6.412   3.381  14.501  0.3972 -0.2269 -0.6907
17122TIP3    H172781   6.363   3.410  14.425 -1.9729 -0.3792  0.6693
17122TIP3    H272782   6.477   3.319  14.466  0.0184  0.4218 -2.6423
17123TIP3   OH272783   5.729   5.166  16.087  0.0765 -0.5220 -0.0707
17123TIP3    H172784   5.738   5.073  16.106  1.0581 -0.1136  1.6297
17123TIP3    H272785   5.805   5.207  16.128 -1.1892  1.2291  0.6592
17124TIP3   OH272786   1.617   2.439   2.248 -0.8396 -0.1991  0.3865
17124TIP3    H172787   1.531   2.400   2.263 -1.5933  1.1617 -0.1640
17124TIP3    H272788   1.603   2.501   2.176  0.5693  0.1602  0.3869
17125TIP3   OH272789   0.560   0.923   4.237  0.1742  0.3522 -0.3343
17125TIP3    H172790   0.652   0.942   4.217  0.0743 -0.8979 -2.2064
17125TIP3    H272791   0.564   0.850   4.298  0.4099  0.2729 -0.4426
17126TIP3   OH272792   1.418   2.525  15.341  0.2686 -0.0752 -0.9576
17126TIP3    H172793   1.349   2.533  15.407  0.4203 -0.4953 -0.7460
17126TIP3    H272794   1.444   2.615  15.322  0.5066  0.0324 -0.1412
17127TIP3   OH272795   4.157   6.117  13.955 -0.3509  0.5325 -0.7390
17127TIP3    H172796   4.181   6.043  14.011  1.6948  0.5486 -1.5061
17127TIP3    H272797   4.100   6.172  14.010 -2.5781 -1.9106 -0.3835
17128TIP3   OH272798   6.810   2.358   5.293  0.0579 -0.0270 -0.3576
17128TIP3    H172799   6.816   2.448   5.326 -0.9412  0.1488 -0.6271
17128TIP3    H272800   6.900   2.334   5.273  0.7905 -0.2048  2.6094
17129TIP3   OH272801   5.501   2.343  11.630  0.0489  0.2761 -0.0252
17129TIP3    H172802   5.503   2.391  11.713  0.0888 -0.3273  0.3305
17129TIP3    H272803   5.452   2.399  11.571  1.1771  1.3446  0.0073
17130TIP3   OH272804   3.374   5.763   4.164  0.3279 -0.0681 -0.2792
17130TIP3    H172805   3.357   5.814   4.085  0.7330  0.7343  0.1436
17130TIP3    H272806   3.329   5.811   4.233  1.6264  0.3234  0.3130
17131TIP3   OH272807   5.299   3.619   6.152  0.9391  0.1113 -0.1408
17131TIP3    H172808   5.390   3.633   6.179  0.7402  1.6576 -0.1545
17131TIP3    H272809   5.247   3.666   6.217  0.0553 -1.7294  0.5404
17132TIP3   OH272810   1.506   6.200  11.964  0.0464 -0.7999  0.2919
17132TIP3    H172811   1.437   6.265  11.970 -0.0437 -1.0288  3.0073
17132TIP3    H272812   1.460   6.116  11.966  0.2426 -0.9913 -1.6975
17133TIP3   OH272813   1.197   3.758  13.522  0.0740  0.1483  0.3805
17133TIP3    H172814   1.218   3.780  13.432  0.1252  0.2699  0.4226
17133TIP3    H272815   1.127   3.819  13.546 -2.2308 -1.9085 -0.6078
17134TIP3   OH272816   4.361   4.275   0.291 -0.0259  0.0375  0.7790
17134TIP3    H172817   4.447   4.234   0.280 -0.1220  0.2600 -1.2894
17134TIP3    H272818   4.377   4.347   0.352  1.2962  0.1511  0.3479
17135TIP3   OH272819   2.542   5.296   4.265 -0.3122 -0.4972  0.1160
17135TIP3    H172820   2.580   5.380   4.238 -0.4522 -0.3221  0.4462
17135TIP3    H272821   2.581   5.279   4.351 -2.3960  0.6549  1.3703
17136TIP3   OH272822   5.115   5.407   2.054  0.0106 -0.2782 -0.0757
17136TIP3    H172823   5.022   5.433   2.058 -0.0727 -0.6860  0.6196
17136TIP3    H272824   5.129   5.386   1.961  0.0431  2.0745 -0.6862
17137TIP3   OH272825   3.983   5.850   0.765  0.0766  0.2634  0.2033
17137TIP3    H172826   4.028   5.894   0.692  1.3266  0.4409  1.0372
17137TIP3    H272827   4.036   5.772   0.781 -0.0160  0.3662  1.0768
17138TIP3   OH272828   3.119   6.377  15.123 -0.0693 -0.4856 -0.4309
17138TIP3    H172829   3.037   6.347  15.162  0.7459 -0.8914  1.0588
17138TIP3    H272830   3.128   6.468  15.152  0.0756 -0.4881 -0.4672
17139TIP3   OH272831   0.043   4.250  13.900 -0.1596  0.1999  0.0560
17139TIP3    H172832   0.139   4.250  13.906 -0.1533 -0.1027 -0.0072
17139TIP3    H272833   0.024   4.283  13.813 -0.0564 -1.2707 -0.5574
17140TIP3   OH272834   1.263   5.566   5.794 -0.0829  0.1436 -0.2315
17140TIP3    H172835   1.331   5.634   5.793 -0.1903  0.2477 -0.9060
17140TIP3    H272836   1.293   5.501   5.731  0.2357 -0.6617  0.7399
17141TIP3   OH272837   0.197   2.017   1.424 -0.1298 -0.1378 -0.4159
17141TIP3    H172838   0.213   2.078   1.496 -2.1700  2.1859 -1.7337
17141TIP3    H272839   0.164   1.938   1.466 -1.1528  1.0936  1.2538
17142TIP3   OH272840   6.170   0.674  12.609 -0.0285 -0.3193  0.0444
17142TIP3    H172841   6.221   0.753  12.597 -0.3491 -0.2534 -0.9734
17142TIP3    H272842   6.083   0.705  12.634 -0.2603 -0.3186 -0.7278
17143TIP3   OH272843   1.467   2.766  14.024  0.0391  0.2509  0.0219
17143TIP3    H172844   1.447   2.828  13.954  0.2570  0.9360  0.5558
17143TIP3    H272845   1.400   2.781  14.090  0.1826  0.0239  0.2211
17144TIP3   OH272846   1.696   2.642   5.811 -0.4759 -0.3230  0.7210
17144TIP3    H172847   1.611   2.606   5.835 -1.7024  1.2667 -0.9663
17144TIP3    H272848   1.735   2.670   5.894 -1.6373 -0.9271  1.4979
17145TIP3   OH272849   6.363   1.416   1.802  0.4983  0.8920 -0.4251
17145TIP3    H172850   6.456   1.399   1.791  0.1033 -1.1884 -0.8082
17145TIP3    H272851   6.341   1.376   1.886 -0.3500 -0.0313 -1.0686
17146TIP3   OH272852   0.544   4.900   1.357 -0.2271  0.4688  0.3235
17146TIP3    H172853   0.522   4.880   1.266  0.4246  2.1016 -0.2295
17146TIP3    H272854   0.602   4.829   1.384  1.1457  0.9706 -1.1829
17147TIP3   OH272855   1.928   6.121  16.954 -0.0602  0.4852  0.0876
17147TIP3    H172856   1.905   6.078  17.036 -0.7343  1.0456  0.1970
17147TIP3    H272857   2.023   6.137  16.962  0.2420 -1.1209 -0.0406
17148TIP3   OH272858   0.044   2.008  16.776 -0.3139 -0.7283  0.4735
17148TIP3    H172859   0.061   1.914  16.784 -0.2517 -0.5916  2.4291
17148TIP3    H272860   0.122   2.049  16.811 -0.8356  0.0476  0.7328
17149TIP3   OH272861   6.188   5.507   0.112  0.0474  0.0775 -0.1031
17149TIP3    H172862   6.103   5.519   0.155 -0.9165 -0.8343 -1.6741
17149TIP3    H272863   6.210   5.415   0.128 -0.1566 -0.1810 -1.2013
17150TIP3   OH272864   2.432   4.686   6.200  0.3733  0.1842 -0.1455
17150TIP3    H172865   2.437   4.697   6.295 -0.1325 -0.2476 -0.0613
17150TIP3    H272866   2.479   4.604   6.183  1.2682  0.7261 -0.3859
17151TIP3   OH272867   0.330   1.829  10.560 -0.6103 -0.4137  0.4234
17151TIP3    H172868   0.419   1.814  10.593 -0.0742  0.4003 -0.6112
17151TIP3    H272869   0.337   1.818  10.465 -1.6286 -0.3978  0.3371
17152TIP3   OH272870   5.399   0.579  11.963  0.6054  0.3006 -0.0409
17152TIP3    H172871   5.462   0.649  11.980  1.3500 -0.5166  0.6322
17152TIP3    H272872   5.442   0.524  11.897  0.0492  0.4197 -0.5173
17153TIP3   OH272873   1.247   4.168  13.849 -0.3018  0.3918  0.3842
17153TIP3    H172874   1.181   4.219  13.801  0.7594  1.4421 -0.0243
17153TIP3    H272875   1.307   4.137  13.781 -0.4874 -0.7557  0.7267
17154TIP3   OH272876   6.595   0.458   5.610  0.5036 -0.0029 -0.0653
17154TIP3    H172877   6.608   0.477   5.703 -1.6120  0.3356  0.2162
17154TIP3    H272878   6.648   0.523   5.564  0.5390  0.6803  0.9143
17155TIP3   OH272879   2.795   5.378  15.103 -0.5026  0.0969 -0.0530
17155TIP3    H172880   2.711   5.410  15.137 -0.9195 -0.4374 -0.5597
17155TIP3    H272881   2.775   5.351  15.013  0.2791  0.2241 -0.2683
17156TIP3   OH272882   1.839   6.328   3.671 -0.0625 -0.3497  0.1578
17156TIP3    H172883   1.855   6.273   3.748  1.9080 -0.5017 -0.3185
17156TIP3    H272884   1.759   6.376   3.693  0.7495  0.0421  2.5426
17157TIP3   OH272885   5.015   0.994  14.540  0.3064  0.1525  0.0235
17157TIP3    H172886   4.983   0.946  14.617 -0.2203 -1.1517 -0.9572
17157TIP3    H272887   5.090   0.943  14.510  0.9587  1.0606  0.0758
17158TIP3   OH272888   0.264   4.441  13.945 -0.3747  0.3031 -0.4216
17158TIP3    H172889   0.191   4.472  13.891 -1.2130  1.5829  1.3400
17158TIP3    H272890   0.308   4.521  13.974 -1.5901 -0.0728  2.9133
17159TIP3   OH272891   4.670   1.008   3.908  0.1341 -0.7769  0.0650
17159TIP3    H172892   4.752   0.999   3.957  0.8207  0.1695 -0.8598
17159TIP3    H272893   4.688   0.968   3.823 -0.4798 -0.8477 -0.0388
17160TIP3   OH272894   4.860   1.648   5.910 -0.1567 -0.0722 -0.0244
17160TIP3    H172895   4.832   1.703   5.837  0.0315  0.2617  0.1514
17160TIP3    H272896   4.954   1.663   5.916 -0.0441 -0.6794 -0.1917
17161TIP3   OH272897   2.381   1.734  11.832 -0.0361 -0.3505  0.2441
17161TIP3    H172898   2.427   1.770  11.756  0.6475 -1.4904  0.0887
17161TIP3    H272899   2.352   1.811  11.881  0.9180  0.4122 -0.3414
17162TIP3   OH272900   0.248   3.021  12.518  0.9894 -0.5351  0.0674
17162TIP3    H172901   0.268   2.928  12.527  1.3459 -1.0324 -3.9175
17162TIP3    H272902   0.322   3.057  12.469  0.4876  1.7415  0.8358
17163TIP3   OH272903   1.217   2.371   0.102 -0.1541  0.0671 -0.2637
17163TIP3    H172904   1.198   2.281   0.075  1.6277  0.3148 -2.7341
17163TIP3    H272905   1.132   2.411   0.115 -1.0184 -1.4782 -0.9208
17164TIP3   OH272906   0.216   3.515  16.781 -0.1114  0.2489 -0.5934
17164TIP3    H172907   0.192   3.484  16.869 -1.4582 -0.4858 -1.1945
17164TIP3    H272908   0.230   3.609  16.792  1.3703 -0.0757  0.7188
17165TIP3   OH272909   3.914   5.872  14.492 -0.2167 -0.5353 -0.0914
17165TIP3    H172910   3.864   5.869  14.411 -0.3274 -0.7400 -0.0181
17165TIP3    H272911   3.880   5.798  14.543 -1.3641  0.5734  0.8445
17166TIP3   OH272912   0.939   2.009   4.264 -0.4804 -0.0938 -0.2547
17166TIP3    H172913   0.881   2.012   4.188  0.1639 -0.6339 -0.7736
17166TIP3    H272914   0.920   2.090   4.312 -0.2642  0.6893 -1.4586
17167TIP3   OH272915   4.675   0.859   4.246 -0.0234 -0.3950 -0.2555
17167TIP3    H172916   4.580   0.863   4.257 -0.3111  1.0914 -2.5937
17167TIP3    H272917   4.689   0.798   4.174  0.8159 -0.6101  0.0743
17168TIP3   OH272918   1.247   0.516   3.454  0.7162  0.1286  0.4789
17168TIP3    H172919   1.184   0.514   3.383  0.3980  1.4778  0.6998
17168TIP3    H272920   1.223   0.441   3.509 -0.1983  0.1662  0.1497
17169TIP3   OH272921   1.691   6.428  15.245 -0.0318  0.1055 -0.0410
17169TIP3    H172922   1.617   6.486  15.225 -0.4932 -0.6927 -0.7123
17169TIP3    H272923   1.705   6.439  15.339 -2.1049 -0.9733  0.4483
17170TIP3   OH272924   3.531   2.929  13.966 -0.1905  0.6619  0.4306
17170TIP3    H172925   3.535   2.837  13.990 -0.2542  0.2365 -1.0780
17170TIP3    H272926   3.441   2.956  13.986 -0.2349  0.3330  0.6697
17171TIP3   OH272927   2.067   0.841  10.966  0.7898 -0.4563 -0.0076
17171TIP3    H172928   2.009   0.850  11.042 -0.6229 -0.2340 -1.0833
17171TIP3    H272929   2.026   0.774  10.912  0.7653  0.6806 -1.4524
17172TIP3   OH272930   2.346   1.937   0.010  0.2820  0.6774  0.3425
17172TIP3    H172931   2.327   1.871   0.077  2.6123  1.8943  2.3690
17172TIP3    H272932   2.268   1.992   0.009 -0.4339 -0.2805  0.9128
17173TIP3   OH272933   6.538   3.072  15.521  0.1145 -0.1883  0.5302
17173TIP3    H172934   6.629   3.043  15.522  0.2973  0.1542 -1.3196
17173TIP3    H272935   6.486   2.991  15.528  0.5281 -0.3504  1.9950
17174TIP3   OH272936   2.995   5.456   5.337 -0.2442  0.1019 -0.6714
17174TIP3    H172937   2.905   5.484   5.354 -0.4879 -1.5960  1.2698
17174TIP3    H272938   2.991   5.413   5.251 -1.5337 -0.8208 -0.1792
17175TIP3   OH272939   4.496   1.371   4.646  0.0826  0.7926 -0.1409
17175TIP3    H172940   4.549   1.352   4.569  1.0041  0.4319  0.5543
17175TIP3    H272941   4.408   1.344   4.622  0.8204 -1.9735 -0.1511
17176TIP3   OH272942   3.496   2.029   3.386 -0.2514 -0.4385  0.2269
17176TIP3    H172943   3.450   2.101   3.430  2.2265  1.0456  0.5928
17176TIP3    H272944   3.431   1.991   3.328 -1.7542  1.9640  0.1977
17177TIP3   OH272945   2.624   3.760  10.372 -0.3008 -0.1506  0.3968
17177TIP3    H172946   2.710   3.720  10.388 -0.2978 -0.4022 -0.2066
17177TIP3    H272947   2.616   3.828  10.439 -0.3071 -1.1515  1.4348
17178TIP3   OH272948   4.958   5.801  15.209 -0.3906  0.1665  0.6628
17178TIP3    H172949   5.014   5.874  15.234 -0.6289  0.9250 -0.8846
17178TIP3    H272950   4.869   5.835  15.217 -0.5022  0.0826 -0.1065
17179TIP3   OH272951   0.257   1.905  10.296  0.0734 -0.6129  0.1381
17179TIP3    H172952   0.245   1.833  10.236  1.1055 -0.3341 -0.4331
17179TIP3    H272953   0.189   1.968  10.273 -0.3743 -1.0904  0.1596
17180TIP3   OH272954   1.588   0.652   0.455 -0.4122 -0.3646 -0.7546
17180TIP3    H172955   1.581   0.658   0.360  0.3380  0.8898 -0.7583
17180TIP3    H272956   1.673   0.691   0.476 -0.8396 -0.0306  0.4777
17181TIP3   OH272957   1.495   5.898   0.612  0.4505  0.8093 -0.1392
17181TIP3    H172958   1.550   5.968   0.648 -0.8921  1.2010  1.2592
17181TIP3    H272959   1.411   5.939   0.595  0.2547 -0.0118 -1.2819
17182TIP3   OH272960   4.544   2.492  12.636 -0.2994 -0.2347  0.2711
17182TIP3    H172961   4.559   2.587  12.641  0.9748 -0.4918  2.8022
17182TIP3    H272962   4.503   2.471  12.720  1.5203 -2.2374  0.7193
17183TIP3   OH272963   0.395   2.107   4.946 -0.0902 -0.2045  0.1211
17183TIP3    H172964   0.451   2.055   5.004 -0.2950  0.4833  0.9559
17183TIP3    H272965   0.402   2.196   4.979 -0.9618  0.0461 -0.3359
17184TIP3   OH272966   6.151   2.348  13.031  0.6971 -0.0464  0.3867
17184TIP3    H172967   6.206   2.399  13.091  0.5023 -0.7365  1.1819
17184TIP3    H272968   6.205   2.273  13.007  0.3816 -0.3407  0.5836
17185TIP3   OH272969   2.829   5.046   1.274  0.7706 -0.7236 -0.1653
17185TIP3    H172970   2.871   5.044   1.188 -0.0281 -1.7445 -0.5509
17185TIP3    H272971   2.897   5.013   1.334  1.3626  0.0891 -0.3712
17186TIP3   OH272972   0.890   0.890  16.282 -0.0090 -0.0193  0.2555
17186TIP3    H172973   0.830   0.819  16.259  0.2949 -0.2853  0.2785
17186TIP3    H272974   0.883   0.952  16.209  0.3350 -0.4615 -0.1528
17187TIP3   OH272975   5.472   4.428  12.645 -0.4685 -0.2117  0.3398
17187TIP3    H172976   5.494   4.521  12.638  1.0665 -0.6637 -1.4323
17187TIP3    H272977   5.384   4.421  12.607 -0.4300  0.4575  0.1218
17188TIP3   OH272978   5.407   6.181  13.800  0.2255 -0.0165 -0.0233
17188TIP3    H172979   5.392   6.269  13.764  2.7146  0.1820 -0.7263
17188TIP3    H272980   5.466   6.139  13.738 -1.0445 -2.3109  0.1985
17189TIP3   OH272981   4.882   1.906   3.050 -0.2104 -0.0565 -0.4327
17189TIP3    H172982   4.829   1.847   2.997 -0.1664  0.0146 -0.5545
17189TIP3    H272983   4.972   1.885   3.026 -0.1957  0.0866 -0.5039
17190TIP3   OH272984   5.320   0.613   0.559 -0.6131 -0.3422  0.1057
17190TIP3    H172985   5.350   0.648   0.643  2.1759  0.6985 -1.1954
17190TIP3    H272986   5.274   0.532   0.582  0.2023 -0.1816  2.6056
17191TIP3   OH272987   3.445   0.480   0.817  0.7978 -0.0930 -0.1561
17191TIP3    H172988   3.438   0.505   0.909  0.2976  2.0584 -0.7016
17191TIP3    H272989   3.517   0.418   0.814  0.9201 -0.0929  1.6652
17192TIP3   OH272990   2.386   3.344  12.246  0.1596  0.5923 -0.0849
17192TIP3    H172991   2.462   3.370  12.297 -1.1173 -0.4371  2.5832
17192TIP3    H272992   2.421   3.289  12.176  1.8942  0.5164  0.7872
17193TIP3   OH272993   0.709   6.015  13.768 -0.0719 -0.2277  0.1334
17193TIP3    H172994   0.639   5.951  13.768 -1.1835  0.9401  0.6040
17193TIP3    H272995   0.681   6.081  13.703 -0.1364  0.9761  1.3364
17194TIP3   OH272996   3.199   1.818   0.808  0.2546  0.2516 -0.1122
17194TIP3    H172997   3.181   1.767   0.887 -0.0686  0.6104  0.0479
17194TIP3    H272998   3.282   1.783   0.775  0.3726  0.0761  0.3672
17195TIP3   OH272999   6.549   4.885  13.470  0.1296 -0.5239 -0.3878
17195TIP3    H173000   6.586   4.849  13.550  3.1655  0.8698 -1.0160
17195TIP3    H273001   6.571   4.820  13.403 -0.2027 -0.5502 -0.4701
17196TIP3   OH273002   4.624   0.244   5.754 -0.0110  0.0858  0.4610
17196TIP3    H173003   4.691   0.215   5.816  0.5550 -0.3968 -0.3588
17196TIP3    H273004   4.549   0.188   5.771  0.0097  0.1882  0.9309
17197TIP3   OH273005   4.299   2.978  15.549 -0.2703  0.3221 -0.0918
17197TIP3    H173006   4.319   2.885  15.556  0.6451  0.3866 -1.4694
17197TIP3    H273007   4.383   3.022  15.564 -0.5986  0.9113  0.0547
17198TIP3   OH273008   0.096   4.376  16.376  0.0122 -0.0051  0.0467
17198TIP3    H173009   0.071   4.310  16.440 -1.5833  2.5118  2.2160
17198TIP3    H273010   0.069   4.459  16.415 -0.0745  1.7999 -3.4560
17199TIP3   OH273011   5.386   0.024   0.594 -0.0080  0.0601  0.1045
17199TIP3    H173012   5.439   0.101   0.572 -1.1376  0.9279  0.3647
17199TIP3    H273013   5.440  -0.050   0.566  1.0693  0.9369 -0.2285
17200TIP3   OH273014   0.848   3.033   1.292 -0.3770  0.6170  0.4055
17200TIP3    H173015   0.772   2.976   1.302  0.4351 -0.6309 -0.2156
17200TIP3    H273016   0.851   3.052   1.198 -0.7847  1.9254  0.6417
17201TIP3   OH273017   3.988   2.950  16.363 -0.1956 -0.4921  0.2116
17201TIP3    H173018   3.932   2.926  16.438 -0.9380 -1.1519 -0.5348
17201TIP3    H273019   3.982   3.046  16.360 -0.0538 -0.4430  1.0670
17202TIP3   OH273020   0.713   2.052   1.523 -0.4595 -0.6598  0.0932
17202TIP3    H173021   0.623   2.023   1.537 -0.1881 -1.0249  1.1472
17202TIP3    H273022   0.756   1.976   1.484 -0.5168 -0.5931 -0.1056
17203TIP3   OH273023   1.974   4.737   5.840  0.3784 -0.2019 -0.0448
17203TIP3    H173024   1.884   4.769   5.851  0.7753  0.2075  2.4416
17203TIP3    H273025   1.976   4.654   5.888  1.0418 -0.8801 -1.1747
17204TIP3   OH273026   0.605   5.803  16.167  0.4404  0.0717 -0.0116
17204TIP3    H173027   0.696   5.805  16.138  0.4588 -0.2702  0.0139
17204TIP3    H273028   0.609   5.776  16.258  0.3138  0.0434 -0.0142
17205TIP3   OH273029   6.287   5.352   0.918  0.4186 -0.0097 -0.2539
17205TIP3    H173030   6.218   5.287   0.905 -1.5739  1.2165  3.0206
17205TIP3    H273031   6.258   5.429   0.869 -0.4063  0.3473  0.7454
17206TIP3   OH273032   3.638   4.741  17.059 -0.0389 -0.1301  0.1275
17206TIP3    H173033   3.592   4.822  17.039 -0.3249  0.3234  2.3136
17206TIP3    H273034   3.712   4.768  17.114 -0.2914 -1.3360  1.1232
17207TIP3   OH273035   2.040   1.523  13.334 -0.8003 -0.3823 -0.0043
17207TIP3    H173036   2.060   1.615  13.352 -0.3310 -0.4239 -0.2792
17207TIP3    H273037   2.109   1.475  13.380  0.9675 -0.4597 -2.5017
17208TIP3   OH273038   2.466   1.007  13.400  0.2788  0.0728 -0.2026
17208TIP3    H173039   2.494   1.069  13.333  0.7190 -1.5977 -1.6669
17208TIP3    H273040   2.520   0.929  13.384  0.1148 -0.5259  1.8669
17209TIP3   OH273041   5.352   0.446   3.048 -0.3202  0.3804 -0.0299
17209TIP3    H173042   5.289   0.455   3.120 -0.6562  2.2374 -0.4983
17209TIP3    H273043   5.385   0.356   3.056 -1.3154  0.1156  1.6261
17210TIP3   OH273044   4.288   5.234  16.530 -0.0747  0.1077 -0.3583
17210TIP3    H173045   4.244   5.153  16.557  0.9400 -0.1765  0.5180
17210TIP3    H273046   4.238   5.304  16.574  0.2747 -0.2084  0.5707
17211TIP3   OH273047   2.927   5.584   2.771  0.0821  0.2018  0.3001
17211TIP3    H173048   2.976   5.653   2.815  0.4336  0.0683  0.1268
17211TIP3    H273049   2.911   5.618   2.683  1.1456 -0.3404 -0.1156
17212TIP3   OH273050   1.050   4.702  14.487 -0.2143  0.6604  0.0131
17212TIP3    H173051   0.971   4.694  14.540 -2.0175 -0.2988 -2.5762
17212TIP3    H273052   1.106   4.631  14.516 -0.1715  1.4582  2.0146
17213TIP3   OH273053   4.602   2.444   2.054 -0.6150 -0.3965 -0.3018
17213TIP3    H173054   4.635   2.423   1.967  0.3041 -0.5983  0.0865
17213TIP3    H273055   4.633   2.373   2.110 -1.6645 -0.5613  0.0971
17214TIP3   OH273056   1.491   6.494  12.323 -0.3255  0.5286 -0.0152
17214TIP3    H173057   1.583   6.520  12.323  0.1518 -0.9996 -0.6016
17214TIP3    H273058   1.494   6.399  12.311 -1.9118  0.1248  2.2117
17215TIP3   OH273059   0.852   1.849  14.084  0.2301 -0.0543 -0.2372
17215TIP3    H173060   0.806   1.790  14.026 -0.3557 -0.4749  0.6287
17215TIP3    H273061   0.890   1.915  14.027 -1.6153  0.4199 -0.9811
17216TIP3   OH273062   6.303   4.485   3.198 -0.8552  0.2519  0.2221
17216TIP3    H173063   6.210   4.469   3.219 -0.3607 -2.1893  0.8796
17216TIP3    H273064   6.349   4.465   3.279  0.3967 -0.6295 -0.6728
17217TIP3   OH273065   2.953   4.715   0.734  0.1689 -0.1436 -0.0364
17217TIP3    H173066   2.909   4.653   0.791 -0.7877  0.5805  0.0456
17217TIP3    H273067   3.046   4.692   0.739  0.1186 -0.0715  1.8284
17218TIP3   OH273068   4.000   0.845   1.637  0.5779  0.2170  0.8004
17218TIP3    H173069   4.019   0.856   1.544  0.6649  1.3688  0.9410
17218TIP3    H273070   4.065   0.899   1.682  0.4410 -0.2075  1.5284
17219TIP3   OH273071   3.602   6.483   3.872  0.4953  0.0250 -0.5415
17219TIP3    H173072   3.568   6.536   3.945  1.3375  0.6353 -0.5699
17219TIP3    H273073   3.689   6.520   3.855  1.5245 -1.9636  0.0539
17220TIP3   OH273074   5.206   5.179   5.360 -0.3988  0.3538  0.1262
17220TIP3    H173075   5.214   5.244   5.290  1.1666 -0.4573 -0.5070
17220TIP3    H273076   5.287   5.128   5.354  0.3227  0.9216  3.2013
17221TIP3   OH273077   5.364   3.398   3.194 -0.1319  0.6073 -0.0384
17221TIP3    H173078   5.447   3.393   3.147  0.5413 -0.5210  1.1933
17221TIP3    H273079   5.383   3.451   3.272 -0.1113 -1.0117  1.0931
17222TIP3   OH273080   4.583   6.697   5.600  0.0870 -0.0565 -0.1216
17222TIP3    H173081   4.612   6.620   5.551 -0.4931 -1.4805  1.6473
17222TIP3    H273082   4.633   6.694   5.682 -0.1478  1.3040  0.1008
17223TIP3   OH273083   1.618   6.685   3.847  0.0480  0.1880 -0.7730
17223TIP3    H173084   1.564   6.721   3.777 -1.8208 -0.7598  0.1050
17223TIP3    H273085   1.638   6.596   3.819 -0.5519 -0.1321 -0.2293
17224TIP3   OH273086   0.007   5.196  16.799  0.0416  0.0567  0.1867
17224TIP3    H173087   0.000   5.202  16.894  2.2923  0.6378  0.3670
17224TIP3    H273088  -0.072   5.237  16.766 -0.0840  1.1688  1.8068
17225TIP3   OH273089   4.214   2.332  15.070 -0.1209 -0.5634 -0.2880
17225TIP3    H173090   4.270   2.406  15.092 -0.8062 -0.4478  1.2445
17225TIP3    H273091   4.159   2.364  14.998  0.0198  0.2003 -0.0664
17226TIP3   OH273092   3.734   2.379   1.616  0.1511 -0.0726  0.1017
17226TIP3    H173093   3.771   2.412   1.697  2.0557  1.9760 -1.4730
17226TIP3    H273094   3.672   2.446   1.588  0.6251  0.0059 -0.8339
17227TIP3   OH273095   4.085   2.283  10.771  0.5410  0.4920 -0.2905
17227TIP3    H173096   4.050   2.365  10.736  0.9906  1.0990  0.6264
17227TIP3    H273097   4.177   2.302  10.787  0.9227 -0.5747 -1.1495
17228TIP3   OH273098   0.550   5.730   2.272  0.0826 -0.2681  0.0125
17228TIP3    H173099   0.636   5.706   2.306 -1.1202 -2.6505  1.6829
17228TIP3    H273100   0.499   5.752   2.350 -0.9675  0.6262 -0.8935
17229TIP3   OH273101   3.641   3.097  11.587  0.0008  0.2132  1.0405
17229TIP3    H173102   3.725   3.054  11.603  0.3617  0.1990 -0.6765
17229TIP3    H273103   3.579   3.051  11.643  1.2849  0.9217  3.1778
17230TIP3   OH273104   3.931   6.241   5.201 -0.1384  0.2576  0.8741
17230TIP3    H173105   3.926   6.331   5.232  0.2138  0.9545 -0.9805
17230TIP3    H273106   3.958   6.248   5.109  1.9805 -1.8323  1.2396
17231TIP3   OH273107   2.755   3.159  15.324 -0.6085  0.6365  0.5821
17231TIP3    H173108   2.693   3.207  15.270  0.3653  0.9368 -0.3066
17231TIP3    H273109   2.732   3.067  15.311 -0.9264  0.7503  0.3322
17232TIP3   OH273110   0.875   2.858   3.829 -0.0319  0.6923 -0.1627
17232TIP3    H173111   0.882   2.772   3.870  0.2971  1.0272  0.5029
17232TIP3    H273112   0.828   2.911   3.894  1.1230  1.4276  0.1077
17233TIP3   OH273113   6.438   2.170   4.081 -0.5125  0.4710 -0.3789
17233TIP3    H173114   6.381   2.093   4.071 -0.4624  0.4282 -0.3344
17233TIP3    H273115   6.480   2.180   3.996 -0.8971  0.7477 -0.5420
17234TIP3   OH273116   0.596   6.007   4.776 -0.6354  0.4665 -0.2418
17234TIP3    H173117   0.509   5.985   4.744  0.9730 -2.0401 -3.4432
17234TIP3    H273118   0.634   6.060   4.706  0.9676  0.0922  0.3101
17235TIP3   OH273119   3.701   0.143  15.185  0.4773  0.5924 -0.2407
17235TIP3    H173120   3.679   0.140  15.092  1.5336  0.7689 -0.5044
17235TIP3    H273121   3.618   0.164  15.229 -0.1914 -0.2648 -1.0673
17236TIP3   OH273122   5.412   3.057  15.438 -0.5896 -0.5433  0.4890
17236TIP3    H173123   5.384   3.101  15.358  1.2815  1.3003  0.7735
17236TIP3    H273124   5.407   3.124  15.506  3.5898 -0.1933  0.6917
17237TIP3   OH273125   0.761   3.290   5.550 -0.3963  0.2432 -0.4753
17237TIP3    H173126   0.676   3.246   5.555 -0.9964  1.4983  1.5068
17237TIP3    H273127   0.751   3.354   5.480 -0.8075 -0.1085 -0.7483
17238TIP3   OH273128   4.580   4.559  14.158  0.1771 -0.2550  0.2789
17238TIP3    H173129   4.638   4.488  14.130 -1.6352 -1.8176  0.2867
17238TIP3    H273130   4.513   4.516  14.211 -2.2925  1.0383 -1.5824
17239TIP3   OH273131   5.714   5.561  14.879 -0.7247  0.3034  0.8251
17239TIP3    H173132   5.690   5.510  14.956 -0.5487  1.8678  1.9696
17239TIP3    H273133   5.633   5.605  14.853 -0.3415  1.4511  1.4706
17240TIP3   OH273134   5.648   2.947   2.884 -0.0004 -0.1055  0.4076
17240TIP3    H173135   5.663   2.852   2.879 -4.2475 -0.9704  0.2199
17240TIP3    H273136   5.624   2.971   2.794 -0.7348  0.7125  0.8103
17241TIP3   OH273137   4.940   4.694  14.576  0.1269 -0.1451  0.2616
17241TIP3    H173138   4.898   4.746  14.507  2.1221  0.6329 -0.4352
17241TIP3    H273139   4.869   4.644  14.614 -1.4712  1.2718 -0.6966
17242TIP3   OH273140   1.409   5.806   5.101 -0.1088  0.1581  0.5753
17242TIP3    H173141   1.424   5.900   5.098  2.1372 -0.1796 -0.1884
17242TIP3    H273142   1.314   5.797   5.094 -0.3115  2.3205 -0.0619
17243TIP3   OH273143   1.794   0.065   1.304  0.1466 -0.3998  0.1069
17243TIP3    H173144   1.884   0.033   1.312  1.0920  2.1749  0.4550
17243TIP3    H273145   1.770   0.089   1.393 -0.4075  0.1424 -0.1870
17244TIP3   OH273146   4.820   6.151   6.550 -0.3299 -0.3734 -0.2190
17244TIP3    H173147   4.898   6.120   6.504 -0.9182  0.6100 -1.9420
17244TIP3    H273148   4.753   6.086   6.529 -0.0569 -1.1874  1.2173
17245TIP3   OH273149   3.793   5.971  13.975 -0.5741 -0.2314  0.4195
17245TIP3    H173150   3.728   5.955  13.907  0.2776 -1.4535 -0.1568
17245TIP3    H273151   3.779   6.062  14.002  0.3567  0.9883 -2.8039
17246TIP3   OH273152   1.317   5.796  16.132  0.2897  0.7509 -0.1446
17246TIP3    H173153   1.233   5.834  16.108 -0.0780 -1.3069 -2.4530
17246TIP3    H273154   1.349   5.756  16.052  3.0805  0.6762  0.8947
17247TIP3   OH273155   6.625   2.608   1.131 -0.9527  0.0708  0.1437
17247TIP3    H173156   6.704   2.612   1.185 -0.1854  0.1337 -0.9536
17247TIP3    H273157   6.573   2.537   1.170  0.5070 -1.2641 -0.2564
17248TIP3   OH273158   1.102   0.255  14.524 -0.4055 -0.3891 -0.5369
17248TIP3    H173159   1.012   0.272  14.553 -0.3949 -1.3040  0.0998
17248TIP3    H273160   1.119   0.320  14.457 -1.2056  0.4283  0.0311
17249TIP3   OH273161   0.253   5.046   5.290 -0.2291 -0.2437  0.7523
17249TIP3    H173162   0.248   4.950   5.288  0.7833 -0.2977 -0.1049
17249TIP3    H273163   0.177   5.073   5.342  0.4964 -1.5784  2.6044
17250TIP3   OH273164   5.084   5.274  15.714 -0.2454  0.0343  0.1110
17250TIP3    H173165   5.164   5.246  15.758  0.7113 -0.0842 -1.5925
17250TIP3    H273166   5.019   5.208  15.738  0.9535 -1.5219 -0.7465
17251TIP3   OH273167   1.073   6.187   3.061  0.3316  0.4141  0.1732
17251TIP3    H173168   1.099   6.114   3.117  0.5941 -0.2949 -0.8428
17251TIP3    H273169   0.981   6.203   3.083  0.1944 -0.4024  0.2140
17252TIP3   OH273170   0.268   3.797  11.229  0.1654 -0.4078  0.0318
17252TIP3    H173171   0.342   3.813  11.170  0.7234  1.6356  1.1732
17252TIP3    H273172   0.261   3.878  11.281 -2.0240 -1.0741  0.8852
17253TIP3   OH273173   1.255   3.947   4.597  0.2229  0.0465 -0.4296
17253TIP3    H173174   1.339   3.919   4.633 -0.2856 -0.2070  0.5999
17253TIP3    H273175   1.253   3.909   4.509  0.5080 -1.3008  0.1222
17254TIP3   OH273176   6.158   6.045   6.515  0.1969 -0.6328 -0.1131
17254TIP3    H173177   6.214   6.013   6.444  0.0625  0.6562 -0.8287
17254TIP3    H273178   6.083   6.085   6.471  0.7934  1.4755  0.6407
17255TIP3   OH273179   6.087   6.463  14.668  0.1816 -0.3069 -0.0455
17255TIP3    H173180   6.086   6.391  14.605  1.4913 -0.7738  0.4422
17255TIP3    H273181   5.995   6.474  14.693  0.0396 -2.4566  0.5757
17256TIP3   OH273182   2.521   2.463   3.999  0.1072 -0.0906  0.0309
17256TIP3    H173183   2.501   2.496   3.911 -0.2903  1.6478  0.7195
17256TIP3    H273184   2.613   2.435   3.993  0.1439  0.1821 -0.8875
17257TIP3   OH273185   5.937   1.243   5.802 -0.2774  0.0356  0.2247
17257TIP3    H173186   6.007   1.305   5.781 -0.2587 -0.0269  0.1038
17257TIP3    H273187   5.937   1.181   5.730 -0.5777  0.1415  0.1296
17258TIP3   OH273188   6.701   4.038   2.916 -0.2187  0.4438 -0.4975
17258TIP3    H173189   6.792   4.010   2.916  0.3632  2.1709 -1.5275
17258TIP3    H273190   6.658   3.983   2.850  0.2147  0.0365 -0.4423
17259TIP3   OH273191   2.946   2.127   4.736 -0.2281 -0.3762 -0.3036
17259TIP3    H173192   3.036   2.144   4.764  0.4666 -1.7904 -1.5861
17259TIP3    H273193   2.893   2.183   4.793  1.4296  0.3215  0.6277
17260TIP3   OH273194   3.071   1.062  15.155 -0.0663 -0.4296  0.3224
17260TIP3    H173195   3.128   1.055  15.079  0.9610  0.1877  1.0167
17260TIP3    H273196   3.063   1.156  15.171  0.0814 -0.5603  1.2328
17261TIP3   OH273197   0.104   4.584  15.660 -0.3819 -0.5687 -0.0379
17261TIP3    H173198   0.099   4.601  15.754  2.1479  1.3271 -0.1467
17261TIP3    H273199   0.186   4.626  15.632  0.4517 -3.5535 -2.5926
17262TIP3   OH273200   4.074   3.364   0.438 -0.2892 -0.9563 -0.2828
17262TIP3    H173201   4.055   3.457   0.446 -4.2270 -1.6587  0.4740
17262TIP3    H273202   4.103   3.352   0.348 -0.9352  0.8403 -0.7635
17263TIP3   OH273203   6.148   1.331  16.589 -0.6625  0.3966  0.4031
17263TIP3    H173204   6.055   1.354  16.579  0.1500  3.5368 -1.0842
17263TIP3    H273205   6.184   1.335  16.500  1.1386  0.3696  1.0938
17264TIP3   OH273206   5.119   5.049   1.557 -1.0423 -0.3602  0.4676
17264TIP3    H173207   5.090   5.012   1.474  0.1517  0.7413 -0.4825
17264TIP3    H273208   5.215   5.048   1.551 -0.9611  1.1190  1.2044
17265TIP3   OH273209   6.005   1.257   2.544 -0.3327  0.1631  0.0809
17265TIP3    H173210   5.957   1.293   2.620  0.3536 -1.7466  1.4911
17265TIP3    H273211   5.945   1.194   2.505  0.6236 -1.6187  1.3502
17266TIP3   OH273212   6.474   2.778  16.809  0.0341 -0.3085  0.4105
17266TIP3    H173213   6.477   2.739  16.897  0.9740 -0.1227  0.4679
17266TIP3    H273214   6.550   2.836  16.806 -0.5845  0.4751 -0.1686
17267TIP3   OH273215   5.531   5.252  13.118 -0.6193  0.3390  0.1920
17267TIP3    H173216   5.614   5.235  13.074 -0.0647  1.1446  0.8828
17267TIP3    H273217   5.540   5.209  13.203 -1.7485 -1.3519 -0.5087
17268TIP3   OH273218   0.516   2.809  14.175 -0.4258  0.0459 -0.3138
17268TIP3    H173219   0.594   2.841  14.220 -1.0620  0.5912  0.4341
17268TIP3    H273220   0.531   2.828  14.082  0.2412  0.3165 -0.1520
17269TIP3   OH273221   0.767   3.452  16.166  0.0528  0.3986  0.1005
17269TIP3    H173222   0.744   3.360  16.155 -0.4539  0.1217  2.8842
17269TIP3    H273223   0.731   3.495  16.088 -0.6410 -1.5715 -0.7261
17270TIP3   OH273224   1.753   1.646  12.263  0.2926 -0.4891 -0.1393
17270TIP3    H173225   1.743   1.677  12.353 -1.2288 -0.1895 -0.3890
17270TIP3    H273226   1.688   1.695  12.213  1.6380 -0.0633 -1.5732
17271TIP3   OH273227   1.499   1.686   4.092 -0.3046  0.0991 -0.0606
17271TIP3    H173228   1.437   1.684   4.164  1.4355  0.4719  1.5198
17271TIP3    H273229   1.521   1.594   4.075  0.9743  0.0808  1.4745
17272TIP3   OH273230   2.897   3.851   0.363  0.3506  0.0968  0.0179
17272TIP3    H173231   2.919   3.759   0.352 -0.7655 -0.4573  2.0149
17272TIP3    H273232   2.908   3.869   0.456 -3.2338  0.8572  0.4587
17273TIP3   OH273233   3.411   2.419   0.194  0.0390 -0.3119 -0.7192
17273TIP3    H173234   3.368   2.424   0.279  2.0634 -0.9839  0.4258
17273TIP3    H273235   3.423   2.510   0.167 -0.5175 -0.0848 -0.2194
17274TIP3   OH273236   3.754   3.772   2.006 -0.4208  0.0768 -0.4198
17274TIP3    H173237   3.845   3.746   2.020 -0.4270  0.0670 -0.3976
17274TIP3    H273238   3.747   3.785   1.911 -0.5132 -0.3642 -0.4790
17275TIP3   OH273239   4.560   6.451  15.654  0.4655  0.1674  0.0829
17275TIP3    H173240   4.560   6.477  15.562 -2.4363  0.0296 -0.0414
17275TIP3    H273241   4.636   6.496  15.692  0.4764  1.9839 -1.9140
17276TIP3   OH273242   5.279   4.742  12.343  0.0422  0.6035 -0.1661
17276TIP3    H173243   5.349   4.788  12.387  0.6610  0.5291 -1.0518
17276TIP3    H273244   5.231   4.809  12.295 -1.2454  0.8434  1.3593
17277TIP3   OH273245   6.627   6.813   3.852  0.5790 -0.8149  0.1313
17277TIP3    H173246   6.550   6.870   3.844  1.0714 -0.1262  0.2452
17277TIP3    H273247   6.663   6.809   3.763  1.5094  0.4311  0.4290
17278TIP3   OH273248   6.759   6.425  13.937  0.1790 -0.4013 -0.6245
17278TIP3    H173249   6.706   6.485  13.989 -0.6671 -1.3071 -0.4244
17278TIP3    H273250   6.849   6.439  13.968 -0.3236 -1.0754  1.2604
17279TIP3   OH273251   1.064   1.408   1.197  0.0456 -0.7686 -0.5742
17279TIP3    H173252   1.028   1.334   1.245 -1.2795 -0.6744 -1.3709
17279TIP3    H273253   1.155   1.413   1.225 -0.2469 -1.7555  0.6207
17280TIP3   OH273254   3.247   6.284   0.056 -0.2553 -0.4525  0.0267
17280TIP3    H173255   3.193   6.231  -0.002 -1.8999 -0.1610  1.2111
17280TIP3    H273256   3.287   6.221   0.116 -1.0563 -0.5235  0.5141
17281TIP3   OH273257   3.367   5.103  14.564 -0.2972 -0.3359 -0.0524
17281TIP3    H173258   3.293   5.049  14.594 -1.3915  0.9357 -0.3492
17281TIP3    H273259   3.379   5.078  14.473 -0.5196 -0.3834 -0.0694
17282TIP3   OH273260   3.058   0.125  15.839 -0.4149  0.0512  0.3673
17282TIP3    H173261   3.107   0.044  15.851 -0.1569  0.3064  1.0844
17282TIP3    H273262   3.091   0.161  15.757 -1.6630 -1.3464 -0.7996
17283TIP3   OH273263   4.667   5.836  13.745 -0.0122  0.2537 -0.4773
17283TIP3    H173264   4.662   5.912  13.688 -2.1629  0.1675 -0.4646
17283TIP3    H273265   4.621   5.766  13.697  0.2767 -0.5062  0.3139
17284TIP3   OH273266   1.103   0.704   1.409  0.4658  0.3396  0.3054
17284TIP3    H173267   1.059   0.695   1.325 -0.8477  0.1977  0.9849
17284TIP3    H273268   1.193   0.675   1.393  0.0408 -0.3617 -0.8727
17285TIP3   OH273269   5.589   4.259  12.410 -0.2205  0.2712  0.2571
17285TIP3    H173270   5.633   4.315  12.474  0.7660  0.2496 -0.3825
17285TIP3    H273271   5.504   4.300  12.396  0.4441  1.5630 -0.1298
17286TIP3   OH273272   5.927   0.936  10.523 -0.7640  0.3856  0.1667
17286TIP3    H173273   6.000   0.874  10.526 -0.6618  0.5562  1.5018
17286TIP3    H273274   5.921   0.970  10.612 -2.0738  0.8404 -0.0852
17287TIP3   OH273275   0.705   5.600  13.653  0.4649 -0.8321 -0.0797
17287TIP3    H173276   0.636   5.663  13.671  0.5020 -0.4516 -1.1729
17287TIP3    H273277   0.735   5.571  13.739 -0.4130 -0.3033  0.4117
17288TIP3   OH273278   0.009   4.131  13.343  0.1915  0.0535  0.0346
17288TIP3    H173279  -0.066   4.155  13.398  1.3834  0.1817  1.6588
17288TIP3    H273280   0.048   4.215  13.318 -1.3873  0.0937 -2.6172
17289TIP3   OH273281   4.684   6.060   3.390  0.0488 -0.1860  0.1761
17289TIP3    H173282   4.660   5.983   3.338  0.9816 -1.0566  1.0038
17289TIP3    H273283   4.764   6.035   3.435 -0.2770  0.8437  1.3949
17290TIP3   OH273284   3.075   4.813   0.417 -0.3714  0.4056 -0.0956
17290TIP3    H173285   3.168   4.833   0.426 -0.1675 -0.0067 -1.1853
17290TIP3    H273286   3.071   4.718   0.415 -0.7940  0.4257 -0.2867
17291TIP3   OH273287   1.852   5.634   3.436  0.3663  0.0373 -0.3962
17291TIP3    H173288   1.902   5.710   3.463 -0.2355  0.4202 -0.3457
17291TIP3    H273289   1.839   5.645   3.342  1.2043 -0.5576 -0.5969
17292TIP3   OH273290   5.869   6.692   2.307 -0.2025 -0.3158 -0.6676
17292TIP3    H173291   5.826   6.616   2.345  1.0104 -0.9621 -0.5413
17292TIP3    H273292   5.798   6.747   2.275 -1.1429 -0.8647  0.4425
17293TIP3   OH273293   1.136   6.140  13.986 -0.0486 -0.2460 -0.4758
17293TIP3    H173294   1.144   6.215  13.927  1.8621  0.6843  0.8480
17293TIP3    H273295   1.107   6.069  13.930 -2.2380  1.5124 -1.7308
17294TIP3   OH273296   6.151   4.195   6.323 -0.1483  0.5640  0.1141
17294TIP3    H173297   6.084   4.140   6.363 -0.8971  0.3286 -1.4045
17294TIP3    H273298   6.228   4.139   6.317 -0.6589 -0.0737 -0.6607
17295TIP3   OH273299   3.242   4.598  13.805  0.2922  0.0209  0.4200
17295TIP3    H173300   3.151   4.593  13.833 -0.2006  3.1548 -0.2044
17295TIP3    H273301   3.258   4.517  13.757 -1.5370 -1.4489  2.1518
17296TIP3   OH273302   0.156   1.869  12.719 -0.5591  0.5101  0.2286
17296TIP3    H173303   0.121   1.787  12.683 -2.1314  0.8890  0.8187
17296TIP3    H273304   0.108   1.938  12.673  1.1044  1.1678 -0.6310
17297TIP3   OH273305   6.586   2.276  15.081 -0.1095 -0.1924 -0.1630
17297TIP3    H173306   6.537   2.208  15.127  0.4327 -0.0996  0.5694
17297TIP3    H273307   6.631   2.230  15.010 -0.0913 -0.5280  0.0616
17298TIP3   OH273308   4.043   5.068   0.194  0.6113  0.8733 -0.2167
17298TIP3    H173309   4.134   5.097   0.194  0.7016  0.6667  1.0651
17298TIP3    H273310   4.045   4.981   0.235 -0.1052  0.6823 -0.5703
17299TIP3   OH273311   5.997   3.942  11.647 -0.0771  0.2120 -0.0764
17299TIP3    H173312   5.947   3.910  11.722  1.5256 -0.0692  0.9256
17299TIP3    H273313   6.038   4.022  11.678  0.7112  0.0273 -0.6043
17300TIP3   OH273314   2.054   1.672   1.717 -0.0215  0.4044  0.2070
17300TIP3    H173315   2.068   1.641   1.806  0.1253  1.1396  0.4501
17300TIP3    H273316   2.122   1.629   1.666 -1.1838 -1.4040  0.0968
17301TIP3   OH273317   3.764   4.644   5.170 -0.4100  0.1358 -0.0403
17301TIP3    H173318   3.832   4.588   5.210 -1.3834 -1.4216 -0.4677
17301TIP3    H273319   3.766   4.620   5.078 -0.3331  1.4170 -0.3905
17302TIP3   OH273320   3.562   1.425   1.374 -0.5763  0.2241 -0.2939
17302TIP3    H173321   3.501   1.384   1.436 -1.6297 -0.3148 -1.6400
17302TIP3    H273322   3.576   1.513   1.409 -0.7051 -0.2464  0.9957
17303TIP3   OH273323   3.809   0.296  16.587 -0.1858 -0.0291 -0.0734
17303TIP3    H173324   3.876   0.277  16.652 -1.2108 -4.9589 -0.0485
17303TIP3    H273325   3.730   0.313  16.638 -0.7558 -2.8816  0.1460
17304TIP3   OH273326   5.994   2.349  15.323 -0.0759  0.3300  0.3452
17304TIP3    H173327   5.940   2.301  15.260 -0.5540 -0.3819  1.2780
17304TIP3    H273328   5.933   2.412  15.363  0.3431  1.1253 -0.2505
17305TIP3   OH273329   6.129   4.101   3.549 -0.2451 -0.0219 -0.0802
17305TIP3    H173330   6.057   4.064   3.498 -0.4238  0.7555 -0.4013
17305TIP3    H273331   6.151   4.032   3.612  1.6326 -2.0494 -2.7384
17306TIP3   OH273332   6.390   4.119  14.251 -0.0416 -0.3673  0.3178
17306TIP3    H173333   6.386   4.088  14.160 -1.7579 -0.9896  0.5773
17306TIP3    H273334   6.435   4.204  14.244  1.4035 -1.1689 -0.8646
17307TIP3   OH273335   2.964   0.094  11.872  0.3148  0.0131  0.9635
17307TIP3    H173336   3.046   0.082  11.920  0.6452  1.0039  0.6723
17307TIP3    H273337   2.971   0.182  11.835 -0.2348 -0.4615 -0.3172
17308TIP3   OH273338   0.044   3.006  15.217  0.9715  0.9985  0.0233
17308TIP3    H173339   0.081   2.918  15.211  0.5154  0.6990  1.3256
17308TIP3    H273340   0.045   3.026  15.311  0.6675  2.2085 -0.2174
17309TIP3   OH273341   4.488   1.617   5.805 -0.6083 -0.5343 -0.1124
17309TIP3    H173342   4.529   1.670   5.873  0.9373  0.0188 -1.4208
17309TIP3    H273343   4.484   1.529   5.843  0.4548 -0.2965  0.6070
17310TIP3   OH273344   3.336   4.459   0.444  0.5578 -0.0312  0.0931
17310TIP3    H173345   3.317   4.432   0.533  2.4344  0.9240  0.8564
17310TIP3    H273346   3.337   4.378   0.393 -0.3697 -0.6055  0.9730
17311TIP3   OH273347   0.028   1.276   0.096  0.4896  0.0335 -0.0012
17311TIP3    H173348   0.027   1.216   0.171 -2.0901  1.7227  1.4755
17311TIP3    H273349  -0.028   1.234   0.031 -1.4315  0.8273  1.0837
17312TIP3   OH273350   4.252   6.261  12.520 -0.1197  0.7065 -0.2575
17312TIP3    H173351   4.251   6.270  12.425 -1.6908  1.9612 -0.1720
17312TIP3    H273352   4.161   6.242  12.543  0.2227  0.4957  0.9980
17313TIP3   OH273353   4.898   2.106   1.523  0.0765 -0.1935 -0.0570
17313TIP3    H173354   4.884   2.040   1.455  1.0631 -0.5104  0.0348
17313TIP3    H273355   4.818   2.103   1.576 -1.0457  0.6122 -1.6464
17314TIP3   OH273356   6.462   1.237  16.305  0.4545 -0.4339 -0.3459
17314TIP3    H173357   6.523   1.294  16.352  1.2438 -1.2357 -0.3838
17314TIP3    H273358   6.376   1.258  16.344  0.5915  1.2974 -0.8604
17315TIP3   OH273359   1.229   2.446  15.894  0.0619 -0.2012 -0.5513
17315TIP3    H173360   1.155   2.388  15.879  0.1598 -0.5453  0.2582
17315TIP3    H273361   1.222   2.471  15.986  0.4961  0.4103 -0.6737
17316TIP3   OH273362   0.297   2.704   2.840 -0.2575  0.4572  0.3258
17316TIP3    H173363   0.255   2.658   2.913  0.2868 -1.8361 -0.7191
17316TIP3    H273364   0.226   2.724   2.780 -0.2931 -0.9409 -0.1505
17317TIP3   OH273365   4.114   2.763   1.973  0.3214  0.0009  0.2411
17317TIP3    H173366   4.206   2.746   1.992  0.6093 -0.0175 -1.0374
17317TIP3    H273367   4.095   2.708   1.897  0.1059  2.1187 -1.3601
17318TIP3   OH273368   1.545   2.555   5.407  0.4890 -0.4940  0.2287
17318TIP3    H173369   1.547   2.463   5.434 -0.7636  0.0219  2.3025
17318TIP3    H273370   1.455   2.583   5.426  0.3221  0.7149 -2.0538
17319TIP3   OH273371   0.776   3.060  13.512 -0.2265  0.4041  0.0701
17319TIP3    H173372   0.729   3.051  13.429  0.1652  1.4634 -0.2720
17319TIP3    H273373   0.860   3.016  13.497 -0.6326 -0.5016  0.3259
17320TIP3   OH273374   3.189   0.794   1.777 -0.4994  0.0451 -0.0052
17320TIP3    H173375   3.258   0.745   1.822  0.1075 -0.6996 -1.6806
17320TIP3    H273376   3.184   0.876   1.826 -0.5756 -1.0908  2.0148
17321TIP3   OH273377   6.156   5.172   4.309  0.3462 -0.2802  0.2910
17321TIP3    H173378   6.088   5.127   4.358 -1.4538 -0.4916 -2.1726
17321TIP3    H273379   6.185   5.243   4.366 -1.4427 -0.6348  1.7124
17322TIP3   OH273380   4.789   1.059   5.469 -0.3998  0.3019 -0.3485
17322TIP3    H173381   4.861   1.085   5.527 -0.5637  1.4877 -0.6425
17322TIP3    H273382   4.738   1.139   5.458 -1.5415 -0.4225 -0.4719
17323TIP3   OH273383   5.713   0.721   5.962 -0.3355  0.2279  0.0452
17323TIP3    H173384   5.798   0.763   5.970 -1.5946  3.2432 -0.9806
17323TIP3    H273385   5.731   0.639   5.916  2.4054 -1.1645  3.1655
17324TIP3   OH273386   1.842   6.171  16.538  0.6022 -0.7099  0.0829
17324TIP3    H173387   1.909   6.197  16.474  1.8195  0.3155  1.6607
17324TIP3    H273388   1.893   6.139  16.613 -0.8037 -3.2225  0.0433
17325TIP3   OH273389   3.995   6.189   2.104 -0.6749  0.0939 -0.1140
17325TIP3    H173390   3.934   6.117   2.089 -0.3669  0.0346 -1.2044
17325TIP3    H273391   4.077   6.160   2.063 -0.7002  1.2771 -1.0503
17326TIP3   OH273392   0.805   0.249  13.783  0.5249 -0.0102 -0.1195
17326TIP3    H173393   0.895   0.223  13.805  0.5828  0.4439  0.1998
17326TIP3    H273394   0.752   0.172  13.804  0.6391  0.2318  1.1820
17327TIP3   OH273395   3.496   2.858  16.320 -1.0563 -0.5019 -0.4552
17327TIP3    H173396   3.511   2.908  16.240  0.0125  2.0187  1.2027
17327TIP3    H273397   3.570   2.797  16.324 -1.2425 -0.8125 -1.4509
17328TIP3   OH273398   6.146   3.630  12.423 -0.3179  0.0879  0.6721
17328TIP3    H173399   6.063   3.598  12.460  0.1627 -1.1983  0.6875
17328TIP3    H273400   6.163   3.572  12.349  0.6307  0.2485  0.7561
17329TIP3   OH273401   3.263   5.666  11.245  0.3559 -0.1715 -0.0773
17329TIP3    H173402   3.308   5.726  11.305  2.0748 -3.0929  1.8243
17329TIP3    H273403   3.171   5.670  11.272  0.6592  0.6335  0.9208
17330TIP3   OH273404   1.880   6.680   1.461 -0.4233  0.3379 -0.0257
17330TIP3    H173405   1.940   6.642   1.396  0.5781 -0.1079  1.1222
17330TIP3    H273406   1.863   6.609   1.522 -0.1194  1.1757  1.0514
17331TIP3   OH273407   3.379   4.698  12.612  0.7463 -0.2230 -0.4667
17331TIP3    H173408   3.330   4.617  12.623  1.3041 -0.5414 -0.2914
17331TIP3    H273409   3.352   4.753  12.686 -0.5215  0.2269 -1.2203
17332TIP3   OH273410   2.700   0.793   5.731  0.4724  0.3833 -0.1223
17332TIP3    H173411   2.644   0.718   5.748  0.1377  0.4761 -0.8149
17332TIP3    H273412   2.709   0.835   5.817 -2.2533  1.5816 -0.3269
17333TIP3   OH273413   1.952   4.348  16.442 -0.0196  0.3096 -0.4096
17333TIP3    H173414   1.981   4.396  16.365 -0.4278  0.0152 -0.7550
17333TIP3    H273415   1.868   4.388  16.465 -0.7698 -0.7329 -1.1892
17334TIP3   OH273416   4.623   1.906   4.984 -0.4258  0.1238 -0.1968
17334TIP3    H173417   4.644   1.952   5.065  2.8824 -2.3559  0.5732
17334TIP3    H273418   4.549   1.954   4.948  1.4444  4.7870  1.3949
17335TIP3   OH273419   5.412   3.827   5.159  0.0173 -0.2387  0.3706
17335TIP3    H173420   5.445   3.825   5.069  0.3803  0.3715  0.4836
17335TIP3    H273421   5.346   3.896   5.159  1.1540  0.8795  0.9382
17336TIP3   OH273422   1.837   4.636  15.009 -0.4135 -0.5338 -0.4182
17336TIP3    H173423   1.850   4.647  15.104  1.0301 -2.0006 -0.4202
17336TIP3    H273424   1.872   4.549  14.990  1.8462  0.7535 -2.7332
17337TIP3   OH273425   6.078   3.411  13.797 -0.6808  0.2494  0.1532
17337TIP3    H173426   6.029   3.331  13.817 -0.2441  0.0484  0.4253
17337TIP3    H273427   6.169   3.382  13.792 -0.5069  0.7586  0.3916
17338TIP3   OH273428   1.413   4.081  12.731  0.2458 -0.2964 -0.0931
17338TIP3    H173429   1.444   3.997  12.697  0.4868 -0.5462  0.7222
17338TIP3    H273430   1.493   4.125  12.762  0.4112  1.0895 -2.2814
17339TIP3   OH273431   2.822   2.958   2.930  0.2962  0.3884 -0.8178
17339TIP3    H173432   2.755   2.943   2.996 -0.7736 -0.9612 -2.1368
17339TIP3    H273433   2.775   2.953   2.847  1.8373  0.6026 -1.7364
17340TIP3   OH273434   1.143   2.190   3.157  0.0717  0.4730 -0.1794
17340TIP3    H173435   1.171   2.281   3.157  2.2376 -0.0704  2.2167
17340TIP3    H273436   1.180   2.153   3.237 -3.1191 -1.8364  0.4439
17341TIP3   OH273437   0.519   5.990  11.722 -0.2207  0.2877 -0.3106
17341TIP3    H173438   0.568   5.910  11.742 -1.0936 -0.2785 -0.3676
17341TIP3    H273439   0.580   6.043  11.671 -0.0022 -0.8351 -1.2616
17342TIP3   OH273440   0.604   3.703  15.239  0.0739  0.3730 -0.1933
17342TIP3    H173441   0.592   3.723  15.332 -0.1079  0.7708 -0.3003
17342TIP3    H273442   0.537   3.755  15.195 -1.7729 -1.9205 -0.3411
17343TIP3   OH273443   3.949   5.961  15.757  0.4818 -0.0033 -0.1166
17343TIP3    H173444   3.970   5.990  15.846  0.3522  3.8213 -1.1593
17343TIP3    H273445   3.865   6.001  15.738 -0.0412 -1.6924 -1.6466
17344TIP3   OH273446   2.296   2.049  15.031  0.3488  0.0027  0.2050
17344TIP3    H173447   2.296   2.142  15.009 -0.2249  0.2885  1.2935
17344TIP3    H273448   2.249   2.007  14.959  1.1848  0.4534 -0.6245
17345TIP3   OH273449   2.220   5.046   0.126 -0.5110 -0.0083  0.3242
17345TIP3    H173450   2.278   4.974   0.151  0.8922  0.9054 -0.1570
17345TIP3    H273451   2.250   5.121   0.177 -0.1351  0.9057 -1.1586
17346TIP3   OH273452   2.963   4.091  14.086  0.1595  0.3802 -0.1002
17346TIP3    H173453   2.878   4.057  14.058 -1.0845  3.0457  0.1689
17346TIP3    H273454   2.974   4.056  14.175  0.0213 -1.0540 -0.6151
17347TIP3   OH273455   0.615   5.256  12.602 -0.3795 -0.1313 -0.0555
17347TIP3    H173456   0.646   5.298  12.683 -0.7355 -0.0735  0.0527
17347TIP3    H273457   0.690   5.260  12.543  0.7247 -2.3187  1.0616
17348TIP3   OH273458   1.502   1.741  12.355 -0.1154  0.4967  0.0013
17348TIP3    H173459   1.487   1.799  12.280 -2.1316 -0.4616 -0.4194
17348TIP3    H273460   1.460   1.659  12.330 -0.3390 -0.0293  1.9457
17349TIP3   OH273461   1.039   6.774  16.639  0.2974  0.2762 -0.3112
17349TIP3    H173462   1.030   6.722  16.559 -1.1596 -1.2556  0.7805
17349TIP3    H273463   0.964   6.749  16.692  1.0852  1.4633  1.4381
17350TIP3   OH273464   1.279   2.125   2.092  0.4872  0.3788  0.3752
17350TIP3    H173465   1.333   2.056   2.129 -0.2156 -0.5770 -0.3412
17350TIP3    H273466   1.321   2.147   2.009  0.4159  0.4542  0.3584
17351TIP3   OH273467   5.099   3.508   5.062  0.3459  0.1251  0.1217
17351TIP3    H173468   5.105   3.575   4.995 -2.2563 -0.9769 -1.3563
17351TIP3    H273469   5.045   3.547   5.131  0.5598  0.2421  0.2245
17352TIP3   OH273470   3.464   5.367   2.228 -0.1116  0.2426 -0.3175
17352TIP3    H173471   3.435   5.456   2.246  0.9094  0.5002  0.1183
17352TIP3    H273472   3.447   5.319   2.309 -0.0513  0.2023 -0.3284
17353TIP3   OH273473   2.298   4.421   2.598  0.2742 -0.4877 -0.0612
17353TIP3    H173474   2.367   4.362   2.628  0.7526  0.1770  0.1944
17353TIP3    H273475   2.342   4.478   2.535 -0.7815 -2.0291 -2.3024
17354TIP3   OH273476   1.704   5.864   4.961 -0.0603 -0.1373 -0.3003
17354TIP3    H173477   1.769   5.887   5.028 -0.3681 -0.2380  0.0362
17354TIP3    H273478   1.641   5.809   5.007  0.2721 -1.0620 -0.9158
17355TIP3   OH273479   3.164   6.002   5.508 -0.2714 -0.2638 -0.0640
17355TIP3    H173480   3.222   5.959   5.446  1.1191  2.4589 -0.7981
17355TIP3    H273481   3.077   5.971   5.485  0.6396 -3.0864 -0.1043
17356TIP3   OH273482   0.842   1.123  13.349  0.8895  0.4285 -0.0760
17356TIP3    H173483   0.864   1.134  13.257  1.7721 -0.2465  0.0343
17356TIP3    H273484   0.869   1.034  13.370  1.3303  0.7824  0.9924
17357TIP3   OH273485   0.233   5.694  14.719 -0.2476  0.2247  0.0098
17357TIP3    H173486   0.228   5.604  14.689 -0.3556  0.3021 -0.2023
17357TIP3    H273487   0.238   5.746  14.639  0.5324  0.3605  0.1398
17358TIP3   OH273488   1.890   3.393   1.465  0.0528  0.2962  0.0184
17358TIP3    H173489   1.885   3.447   1.544 -1.3802  0.2221  0.0060
17358TIP3    H273490   1.905   3.456   1.394 -0.9612  0.6280  0.0838
17359TIP3   OH273491   5.105   3.644   4.205  0.6625 -0.5218 -0.1793
17359TIP3    H173492   5.149   3.617   4.124  1.2420  1.1649 -0.4769
17359TIP3    H273493   5.029   3.694   4.175  2.0130  1.9284  0.2138
17360TIP3   OH273494   4.587   5.493   4.615  0.4298  0.0863  0.2679
17360TIP3    H173495   4.536   5.568   4.584 -0.6362 -1.4475 -1.9683
17360TIP3    H273496   4.521   5.432   4.649  1.3732  0.5775  3.3606
17361TIP3   OH273497   4.470   4.768  15.146  0.1166 -0.2510  0.4748
17361TIP3    H173498   4.508   4.839  15.094 -1.3668  0.5120  0.3977
17361TIP3    H273499   4.389   4.804  15.181 -0.5608 -1.8362  0.6215
17362TIP3   OH273500   2.664   2.399   4.731 -0.7280 -0.7029 -0.1562
17362TIP3    H173501   2.673   2.493   4.748 -2.1468 -0.6788  0.5911
17362TIP3    H273502   2.723   2.357   4.793 -1.2582 -0.3461  0.6119
17363TIP3   OH273503   0.370   0.055  14.541 -0.2966 -0.6173 -0.1075
17363TIP3    H173504   0.370  -0.014  14.475  2.1417 -1.8384  1.0518
17363TIP3    H273505   0.383   0.136  14.491 -0.9073 -1.2174 -1.2851
17364TIP3   OH273506   3.618   6.232   1.985 -0.2238  0.2052 -0.5916
17364TIP3    H173507   3.645   6.184   2.064 -0.2364 -0.6877 -1.1207
17364TIP3    H273508   3.691   6.292   1.968  0.8950 -1.2901 -1.2682
17365TIP3   OH273509   5.457   4.452  16.783 -0.0477 -0.5356  0.3739
17365TIP3    H173510   5.414   4.441  16.699 -0.6094  0.6067  0.4851
17365TIP3    H273511   5.517   4.378  16.790 -1.8013 -2.0420  0.1018
17366TIP3   OH273512   2.279   2.914   5.100  0.4198 -0.2199 -0.0434
17366TIP3    H173513   2.252   2.871   5.181  0.2493  0.2905  0.1710
17366TIP3    H273514   2.209   2.975   5.080  0.1101 -0.8689 -0.9830
17367TIP3   OH273515   2.492   2.108   1.764 -0.0497  0.4307  0.2828
17367TIP3    H173516   2.497   2.122   1.859  0.3282  1.3644  0.1307
17367TIP3    H273517   2.563   2.048   1.745  0.2776  0.7486  0.4991
17368TIP3   OH273518   3.204   4.287   5.502 -0.2141 -0.3030  0.1119
17368TIP3    H173519   3.122   4.330   5.528 -0.0360 -0.0957  0.3297
17368TIP3    H273520   3.273   4.346   5.532 -0.0053  0.0685 -1.0413
17369TIP3   OH273521   6.117   6.812  15.327 -0.0222 -0.0146  0.1427
17369TIP3    H173522   6.150   6.809  15.417  0.3458  1.0474  0.0596
17369TIP3    H273523   6.027   6.844  15.335  0.4053  1.2742  0.0663
17370TIP3   OH273524   1.630   2.393  12.975 -0.3700 -0.0849 -0.0839
17370TIP3    H173525   1.664   2.400  13.065  0.3728  2.5956 -0.4946
17370TIP3    H273526   1.700   2.351  12.926  0.7022  1.6106 -0.0705
17371TIP3   OH273527   2.814   1.005  12.474 -0.2709  0.0544  0.8741
17371TIP3    H173528   2.825   1.022  12.567  1.5109 -0.1731  0.7345
17371TIP3    H273529   2.808   1.092  12.434  3.6200  0.4255  0.7438
17372TIP3   OH273530   6.690   4.103  10.511 -0.0759 -0.2425 -0.0406
17372TIP3    H173531   6.712   4.017  10.548 -1.0278 -0.0632  1.0188
17372TIP3    H273532   6.635   4.083  10.435 -1.0343 -0.5763  0.7206
17373TIP3   OH273533   5.462   0.799   1.565  0.4404 -0.7692 -0.5849
17373TIP3    H173534   5.426   0.876   1.609  1.1110 -0.1746 -1.0670
17373TIP3    H273535   5.520   0.834   1.497 -0.9320 -1.6447 -2.2900
17374TIP3   OH273536   3.504   3.466  12.145 -0.7261 -0.7364 -0.2450
17374TIP3    H173537   3.545   3.510  12.219 -1.8091 -0.8082  0.4189
17374TIP3    H273538   3.554   3.495  12.069  2.8941 -3.5323  0.7706
17375TIP3   OH273539   6.420   0.729   5.603  0.5419  0.9211 -0.3848
17375TIP3    H173540   6.496   0.772   5.641 -0.4387  1.3087  1.2421
17375TIP3    H273541   6.409   0.649   5.654  0.1465  0.6215 -0.9262
17376TIP3   OH273542   3.822   2.685   2.996 -0.5822  0.1175 -0.2868
17376TIP3    H173543   3.850   2.622   2.929  0.1793 -0.7606  0.8116
17376TIP3    H273544   3.870   2.659   3.074 -1.0643  1.4377  0.4770
17377TIP3   OH273545   4.076   6.431   5.970 -1.1477  0.1307  0.4921
17377TIP3    H173546   3.988   6.394   5.978 -0.7528 -1.0705 -0.3875
17377TIP3    H273547   4.127   6.389   6.039 -1.0212  0.0682  0.3614
17378TIP3   OH273548   3.627   6.424   5.687 -0.3288  0.0941 -0.5187
17378TIP3    H173549   3.584   6.485   5.628 -0.0326  0.7339 -0.0852
17378TIP3    H273550   3.634   6.471   5.770  0.0260 -0.4801 -0.2117
17379TIP3   OH273551   0.863   4.267   3.212 -0.4415  0.2482  0.0684
17379TIP3    H173552   0.897   4.178   3.216  0.6181  0.6699  0.9554
17379TIP3    H273553   0.874   4.301   3.301 -1.6231  0.9920 -0.0440
17380TIP3   OH273554   5.383   6.819  16.077  0.7508 -0.0875 -0.3358
17380TIP3    H173555   5.467   6.820  16.032  1.1038 -0.6938  0.2839
17380TIP3    H273556   5.321   6.789  16.011  1.3390 -1.4324 -0.3210
17381TIP3   OH273557   1.320   2.987   3.388 -0.1634  1.0797 -0.1157
17381TIP3    H173558   1.411   2.956   3.392  0.5215  3.1002  1.0947
17381TIP3    H273559   1.287   2.953   3.304  1.1960 -0.9359  0.0821
17382TIP3   OH273560   3.012   1.023   3.166  0.1279  0.0222  0.7964
17382TIP3    H173561   3.074   0.974   3.219 -1.0535 -0.6543  1.6177
17382TIP3    H273562   2.989   0.963   3.094  2.2974  1.2103 -1.0214
17383TIP3   OH273563   5.493   0.138  13.587  0.8522  0.6552  0.0342
17383TIP3    H173564   5.473   0.125  13.495  2.7784 -1.6968 -0.1419
17383TIP3    H273565   5.408   0.148  13.629 -0.4084 -2.6277 -1.4420
17384TIP3   OH273566   5.598   0.507  12.865 -0.2073 -0.2865  0.2730
17384TIP3    H173567   5.526   0.448  12.842 -0.5353  0.6360 -1.2028
17384TIP3    H273568   5.675   0.469  12.823 -0.4238  0.3288 -0.7003
17385TIP3   OH273569   3.729   2.892   1.415  0.0851  0.1528  0.2445
17385TIP3    H173570   3.784   2.813   1.413 -3.1184 -2.3050 -1.7904
17385TIP3    H273571   3.665   2.874   1.483 -0.0046  1.5837  0.5553
17386TIP3   OH273572   2.150   0.158  15.007  0.6577  0.0423  1.3697
17386TIP3    H173573   2.098   0.138  15.085  0.5221  1.1050  1.5640
17386TIP3    H273574   2.090   0.142  14.934  0.2797  0.5682  1.5616
17387TIP3   OH273575   1.757   1.733   2.517 -0.3326 -0.3916  0.4232
17387TIP3    H173576   1.807   1.670   2.570  1.3320 -0.2582 -0.9142
17387TIP3    H273577   1.667   1.721   2.546  0.3563 -1.0644  2.5410
17388TIP3   OH273578   4.271   2.931  13.848  0.3940  0.2175  0.3254
17388TIP3    H173579   4.244   3.016  13.884  0.2830 -0.1370  1.0934
17388TIP3    H273580   4.193   2.876  13.855  0.1349  0.3527 -1.1771
17389TIP3   OH273581   6.495   5.388   5.216  0.6841 -0.1386  0.2536
17389TIP3    H173582   6.444   5.456   5.259 -0.4802 -0.8452  0.0421
17389TIP3    H273583   6.584   5.400   5.248  0.2674  0.7335  1.1219
17390TIP3   OH273584   2.519   1.715   5.088 -0.3296 -0.4416  0.3659
17390TIP3    H173585   2.612   1.724   5.110 -0.5676 -2.0343  2.2256
17390TIP3    H273586   2.518   1.704   4.993  1.1583  1.8849 -0.0070
17391TIP3   OH273587   6.422   3.411  15.071 -0.0560 -0.7804  0.3973
17391TIP3    H173588   6.419   3.375  14.982  0.6816  1.2025 -0.4929
17391TIP3    H273589   6.509   3.451  15.078 -0.6342  0.3609  1.4755
17392TIP3   OH273590   3.025   2.950   5.113  0.4415  0.1454 -0.1934
17392TIP3    H173591   2.951   3.011   5.111 -1.0985 -1.6494 -0.6925
17392TIP3    H273592   3.031   2.922   5.205  1.0515  0.9105  0.0066
17393TIP3   OH273593   5.372   4.949   0.849 -0.1234  0.2309 -0.1006
17393TIP3    H173594   5.454   4.901   0.835  0.0863  0.5525  0.0058
17393TIP3    H273595   5.393   5.012   0.918 -0.3745  0.5180 -0.2824
17394TIP3   OH273596   5.602   2.986   4.630 -0.1174 -0.5122 -0.2553
17394TIP3    H173597   5.552   3.054   4.585 -0.9800 -1.1308 -0.2539
17394TIP3    H273598   5.564   2.981   4.717 -0.6973 -1.6203 -0.5450
17395TIP3   OH273599   5.314   1.879  12.227  0.1194 -0.3605  0.8281
17395TIP3    H173600   5.335   1.933  12.303 -1.7141  0.1390  1.0169
17395TIP3    H273601   5.379   1.808  12.229  0.5414  0.0365  2.4316
17396TIP3   OH273602   6.057   6.158   4.411  0.5075  0.1890  0.3158
17396TIP3    H173603   6.036   6.074   4.453 -0.1479  0.3760  0.3708
17396TIP3    H273604   6.010   6.156   4.328 -0.6475  1.0784  0.9277
17397TIP3   OH273605   5.243   5.211  12.482 -0.4493 -0.3753 -0.3511
17397TIP3    H173606   5.209   5.165  12.406 -0.8881 -0.1723 -0.2779
17397TIP3    H273607   5.313   5.267  12.448 -1.0671  0.1902 -0.7017
17398TIP3   OH273608   4.420   1.803  11.653  0.3758  0.3745  0.2445
17398TIP3    H173609   4.503   1.758  11.674 -0.1172 -0.9246 -0.4551
17398TIP3    H273610   4.431   1.832  11.563  0.4597  1.1358  0.4986
17399TIP3   OH273611   5.055   5.471   5.001 -0.0034  0.1162 -0.1492
17399TIP3    H173612   4.990   5.445   4.935 -1.0248  0.8511  0.5456
17399TIP3    H273613   5.123   5.516   4.951  1.7052 -3.4148 -1.3883
17400TIP3   OH273614   0.726   1.802   6.154 -0.4985  0.0620  0.1984
17400TIP3    H173615   0.789   1.875   6.158 -0.8502  0.4898 -1.3589
17400TIP3    H273616   0.710   1.780   6.246  3.1686 -1.1775  0.7139
17401TIP3   OH273617   6.746   5.523   6.265  0.1644  0.2552 -0.4903
17401TIP3    H173618   6.739   5.607   6.220 -0.4212 -0.5559 -1.9935
17401TIP3    H273619   6.838   5.499   6.257  0.3550  0.7752  0.0287
17402TIP3   OH273620   4.570   2.180   1.462  0.0792 -0.2788  0.2179
17402TIP3    H173621   4.569   2.091   1.426  0.1443 -0.6032  0.9941
17402TIP3    H273622   4.537   2.170   1.551  0.1716  0.4672  0.3417
17403TIP3   OH273623   0.135   2.318   4.134 -0.5233 -0.2885 -0.2275
17403TIP3    H173624   0.070   2.250   4.156 -1.6525  0.4639 -1.1176
17403TIP3    H273625   0.087   2.400   4.142  0.8729  0.4485  1.0060
17404TIP3   OH273626   4.429   5.188   5.901  0.4390 -0.0531  0.1861
17404TIP3    H173627   4.400   5.106   5.940  0.5137  0.8847  2.3712
17404TIP3    H273628   4.513   5.167   5.860  0.7291 -0.9542  1.2122
17405TIP3   OH273629   6.238   1.718   0.857  0.1882 -0.2011  0.0779
17405TIP3    H173630   6.170   1.761   0.908  1.3947  1.9240  0.0403
17405TIP3    H273631   6.225   1.750   0.768  2.4236  2.0577  0.4269
17406TIP3   OH273632   0.096   1.897  11.828  0.2335  0.7836 -0.2868
17406TIP3    H173633   0.043   1.822  11.804 -1.1684  2.0260 -1.2525
17406TIP3    H273634   0.185   1.862  11.836 -0.6610 -1.3198  1.2742
17407TIP3   OH273635   3.124   3.655  13.302  0.8792 -0.0731  0.0202
17407TIP3    H173636   3.036   3.644  13.266  0.6426  0.1393  0.5133
17407TIP3    H273637   3.167   3.571  13.288  0.9538  0.1540 -1.1706
17408TIP3   OH273638   5.923   1.701  14.731 -0.3008  0.5284  0.0154
17408TIP3    H173639   5.928   1.740  14.818  0.3888  1.6543 -0.5100
17408TIP3    H273640   6.014   1.696  14.702 -0.5664  0.6351 -0.8508
17409TIP3   OH273641   0.141   6.220  12.662  0.0980  0.0114 -0.5314
17409TIP3    H173642   0.224   6.242  12.704  1.2608 -1.7443 -1.7654
17409TIP3    H273643   0.077   6.278  12.704  1.4464 -0.3873  2.3880
17410TIP3   OH273644   5.912   2.330   0.161 -0.6839  0.6279 -0.5633
17410TIP3    H173645   6.006   2.316   0.155 -1.1661 -3.9803 -0.9353
17410TIP3    H273646   5.881   2.321   0.071 -1.6194 -0.0405 -0.1916
17411TIP3   OH273647   1.353   0.576  14.859 -0.2932 -0.1453  0.1478
17411TIP3    H173648   1.285   0.635  14.828 -1.2264 -0.4119  1.6147
17411TIP3    H273649   1.373   0.521  14.783 -2.3911 -0.6836 -0.0814
17412TIP3   OH273650   5.420   3.866   3.399 -0.1439 -0.4018 -0.8664
17412TIP3    H173651   5.472   3.879   3.478 -1.2081  0.6787 -0.3147
17412TIP3    H273652   5.484   3.842   3.332  0.7718 -1.3871  0.3162
17413TIP3   OH273653   1.977   0.180  16.831  0.5587  0.4811  0.8070
17413TIP3    H173654   1.883   0.166  16.818  0.6725  1.3636 -1.2331
17413TIP3    H273655   1.984   0.203  16.924 -0.8195 -2.6207  1.8272
17414TIP3   OH273656   6.264   4.634  11.442  0.2343  0.0904  0.0537
17414TIP3    H173657   6.251   4.711  11.498  1.1698 -0.0822  0.5228
17414TIP3    H273658   6.358   4.630  11.428  0.0712 -0.1882 -1.1017
17415TIP3   OH273659   4.401   5.442  11.404  0.3937 -0.2072 -0.2983
17415TIP3    H173660   4.424   5.356  11.370 -2.1873 -0.2840 -2.1579
17415TIP3    H273661   4.473   5.465  11.463  1.1536 -3.6202  0.3053
17416TIP3   OH273662   5.559   6.443  12.110 -0.0986  0.0614 -0.0524
17416TIP3    H173663   5.471   6.431  12.076  0.6924 -0.2715 -2.1113
17416TIP3    H273664   5.616   6.433  12.034  1.6950  0.7750  1.1305
17417TIP3   OH273665   1.047   0.506   4.991 -0.0891 -0.3525  0.2064
17417TIP3    H173666   1.137   0.476   4.980  0.0422  0.2011 -0.2589
17417TIP3    H273667   1.001   0.472   4.914 -0.2520 -0.5109  0.3705
17418TIP3   OH273668   2.195   4.637   3.056 -0.8600 -0.0747  0.2892
17418TIP3    H173669   2.210   4.721   3.013  1.2957  0.9866  2.8272
17418TIP3    H273670   2.283   4.608   3.084 -1.5843 -2.9782 -0.1093
17419TIP3   OH273671   0.162   0.564  11.464  0.2283  0.2512  0.2196
17419TIP3    H173672   0.165   0.588  11.371 -1.0131 -2.0949 -0.4975
17419TIP3    H273673   0.083   0.606  11.497  0.3985  0.6752  0.0931
17420TIP3   OH273674   3.736   0.200   0.266 -0.2163  0.0399 -0.6493
17420TIP3    H173675   3.826   0.184   0.295 -0.5440 -0.8743 -0.0947
17420TIP3    H273676   3.687   0.124   0.296 -1.5247  1.3159  0.6341
17421TIP3   OH273677   1.715   2.355  10.689  0.6059 -0.2652  0.1203
17421TIP3    H173678   1.747   2.267  10.669  1.8595  0.2865 -0.4233
17421TIP3    H273679   1.794   2.404  10.712  0.1343  1.1032 -1.0517
17422TIP3   OH273680   1.361   6.326   5.645 -0.3435 -0.0114 -0.0992
17422TIP3    H173681   1.277   6.368   5.624  0.3240  0.0809 -3.1468
17422TIP3    H273682   1.397   6.378   5.716 -3.1482 -0.5300  1.8768
17423TIP3   OH273683   2.552   4.405  14.651  0.4321 -0.5280  0.2872
17423TIP3    H173684   2.507   4.370  14.574 -0.1792 -2.8174  1.6014
17423TIP3    H273685   2.637   4.434  14.617  0.0920 -1.2412 -1.2938
17424TIP3   OH273686   2.859   6.045   2.077 -0.2175 -0.6602  0.2581
17424TIP3    H173687   2.778   6.002   2.049 -0.9959  1.4961 -1.0229
17424TIP3    H273688   2.918   6.036   2.002  0.1243 -0.7218  0.5322
17425TIP3   OH273689   5.446   3.880   0.207 -0.2685  0.3204 -0.1672
17425TIP3    H173690   5.409   3.795   0.229  0.4118 -0.3765 -1.6032
17425TIP3    H273691   5.373   3.941   0.217 -1.1485 -0.6501 -0.5439
17426TIP3   OH273692   1.486   4.785  14.687 -0.0223  0.0250  0.0833
17426TIP3    H173693   1.580   4.798  14.692 -0.0853  0.0045  1.6204
17426TIP3    H273694   1.449   4.873  14.691 -0.0823  0.0378 -0.5816
17427TIP3   OH273695   0.095   1.319  12.941 -0.3183  0.3249 -0.4159
17427TIP3    H173696   0.051   1.272  12.871 -3.5743  3.2663 -0.6341
17427TIP3    H273697   0.111   1.406  12.905 -0.2368  1.3107  1.8441
17428TIP3   OH273698   5.538   0.629  10.666 -0.3644 -0.2151 -0.3843
17428TIP3    H173699   5.603   0.563  10.690  0.2104 -0.0254 -1.3928
17428TIP3    H273700   5.586   0.693  10.614 -1.1388  0.4717 -0.2769
17429TIP3   OH273701   3.203   0.428   4.603 -0.1868  0.3047 -0.1722
17429TIP3    H173702   3.236   0.477   4.679  0.0531 -0.8290  0.4996
17429TIP3    H273703   3.123   0.386   4.635  0.1847 -0.5874 -0.3673
17430TIP3   OH273704   0.558   1.274  14.332 -0.3163  0.3871  0.3063
17430TIP3    H173705   0.600   1.279  14.246 -0.1217  0.8365  0.4271
17430TIP3    H273706   0.468   1.303  14.316 -0.1084  1.0758  0.3721
17431TIP3   OH273707   0.582   5.030  14.295  0.3322  0.4699 -0.2313
17431TIP3    H173708   0.599   4.989  14.211  1.2476  2.8282 -1.2963
17431TIP3    H273709   0.487   5.043  14.298  0.2726  0.1523 -0.8031
17432TIP3   OH273710   4.120   4.574   3.076 -0.1226 -0.6593  0.1193
17432TIP3    H173711   4.215   4.583   3.079 -0.3291  2.8691  0.3042
17432TIP3    H273712   4.093   4.563   3.167  0.0192  0.1044  0.2561
17433TIP3   OH273713   4.426   2.827  14.669  0.1116  0.2522  0.5825
17433TIP3    H173714   4.476   2.800  14.746 -0.6267 -1.9323  0.3605
17433TIP3    H273715   4.336   2.802  14.689 -0.2135  0.2931 -0.7148
17434TIP3   OH273716   2.753   1.647   1.067  0.3440 -0.1601  0.0378
17434TIP3    H173717   2.809   1.679   0.997 -1.7691 -1.2692 -2.3360
17434TIP3    H273718   2.810   1.640   1.143  2.9892  0.2754 -1.7823
17435TIP3   OH273719   2.741   3.908   3.896  0.2773 -0.7788  0.1365
17435TIP3    H173720   2.681   3.979   3.870  1.2044 -0.6234 -1.7980
17435TIP3    H273721   2.803   3.949   3.955  2.1463  0.7055 -2.6665
17436TIP3   OH273722   0.272   1.797   5.230 -0.2074 -0.0593 -0.2983
17436TIP3    H173723   0.350   1.850   5.216  0.1371 -0.5908 -0.4071
17436TIP3    H273724   0.250   1.762   5.144  0.1135 -0.8435 -0.0706
17437TIP3   OH273725   4.253   0.368   3.165 -0.0829  0.4722 -0.2229
17437TIP3    H173726   4.277   0.310   3.093 -0.3083  0.5132 -0.3309
17437TIP3    H273727   4.328   0.428   3.173  0.6635 -0.5359  0.6358
17438TIP3   OH273728   2.938   1.932   2.297 -0.1339  0.0690  0.8284
17438TIP3    H173729   2.984   1.896   2.221  0.8965 -0.4326  1.6779
17438TIP3    H273730   2.948   2.027   2.289 -0.3378  0.0414  0.1631
17439TIP3   OH273731   3.731   1.746   0.312  0.4337 -0.0280  0.4037
17439TIP3    H173732   3.707   1.833   0.280  0.2269 -0.5052 -0.8113
17439TIP3    H273733   3.740   1.756   0.407 -1.5605  0.8520  0.5368
17440TIP3   OH273734   6.763   4.738   0.312  0.3974  0.5194  0.2549
17440TIP3    H173735   6.670   4.732   0.332  0.4149  0.8276  0.4322
17440TIP3    H273736   6.777   4.674   0.242 -0.1906  1.3163 -0.6332
17441TIP3   OH273737   2.910   0.158  10.883  0.1113  0.2357  0.3047
17441TIP3    H173738   2.947   0.224  10.825  0.0758 -1.2517 -1.5298
17441TIP3    H273739   2.961   0.079  10.866 -1.7421 -1.0102  0.1381
17442TIP3   OH273740   1.477   1.769  16.581 -0.4367 -0.1106 -0.1767
17442TIP3    H173741   1.453   1.827  16.653 -0.1257  0.7606 -0.7716
17442TIP3    H273742   1.400   1.713  16.569  0.4360 -2.1193  2.5833
17443TIP3   OH273743   2.993   4.553   4.224 -0.0553  0.7399  0.4231
17443TIP3    H173744   2.965   4.493   4.294  1.0200  0.2684  0.4779
17443TIP3    H273745   3.061   4.606   4.265  2.1156 -0.9407 -0.7762
17444TIP3   OH273746   6.587   1.312  14.499 -0.1365  0.0635 -0.1311
17444TIP3    H173747   6.604   1.285  14.589 -1.4949  1.5673  0.6206
17444TIP3    H273748   6.671   1.349  14.470  0.8212 -1.9804 -0.1314
17445TIP3   OH273749   0.502   1.889   0.600 -0.1049 -0.4722  0.2748
17445TIP3    H173750   0.414   1.852   0.607 -1.1819  1.9583  0.5109
17445TIP3    H273751   0.515   1.936   0.682  0.7513  0.5634 -0.4290
17446TIP3   OH273752   5.849   2.849   1.753  0.8065 -0.1636  0.9531
17446TIP3    H173753   5.868   2.903   1.830  0.7719  0.2236  0.6971
17446TIP3    H273754   5.774   2.892   1.712  1.4512  0.2302  0.1487
17447TIP3   OH273755   1.901   5.326  11.188  0.2797 -0.0976 -0.0366
17447TIP3    H173756   1.834   5.262  11.211  2.2466 -1.6672  1.6528
17447TIP3    H273757   1.856   5.411  11.195 -1.5217 -1.0810  1.1117
17448TIP3   OH273758   2.052   4.638  11.777 -0.0101 -0.1028  0.1050
17448TIP3    H173759   1.967   4.656  11.817 -0.2005 -0.6246 -0.0509
17448TIP3    H273760   2.050   4.544  11.758  0.6528 -0.1445  0.2199
17449TIP3   OH273761   2.821   6.266   5.179  0.2866  0.2922 -0.3642
17449TIP3    H173762   2.732   6.230   5.178  0.3193  0.1995  0.0016
17449TIP3    H273763   2.866   6.217   5.247  1.0870 -0.7538 -1.5894
17450TIP3   OH273764   6.720   3.801  15.555  0.1765 -0.2270  0.1686
17450TIP3    H173765   6.760   3.858  15.489  0.4151 -1.0922 -0.4487
17450TIP3    H273766   6.634   3.840  15.572 -0.6235 -0.9426 -1.9570
17451TIP3   OH273767   1.158   3.528  12.711  0.4290 -0.5948  0.3469
17451TIP3    H173768   1.104   3.517  12.789  0.5986 -0.1057  0.5358
17451TIP3    H273769   1.219   3.599  12.733  1.2213 -1.2013  0.1787
17452TIP3   OH273770   4.618   3.597  15.021 -0.3708 -0.3104 -0.2951
17452TIP3    H173771   4.575   3.657  15.082  0.6632  0.5329 -0.3688
17452TIP3    H273772   4.566   3.603  14.941 -1.0817 -0.5715  0.1405
17453TIP3   OH273773   5.830   4.276  15.826  0.2185 -0.2210 -0.2580
17453TIP3    H173774   5.735   4.265  15.825  0.4010 -2.0469 -0.9944
17453TIP3    H273775   5.859   4.233  15.906  0.1915  3.7432  2.1779
17454TIP3   OH273776   6.240   1.063  14.191 -0.1117 -0.3719 -0.0018
17454TIP3    H173777   6.318   1.080  14.244 -0.7500  0.5111  0.6749
17454TIP3    H273778   6.269   1.078  14.101  0.3140  0.7091  0.3016
17455TIP3   OH273779   0.307   3.464   1.269 -0.1735  0.6321  0.1554
17455TIP3    H173780   0.280   3.555   1.253  0.2149  0.8048  0.4727
17455TIP3    H273781   0.225   3.414   1.266 -0.2247  0.7583 -1.5867
17456TIP3   OH273782   4.567   3.157   3.159 -0.0544 -0.5524 -0.0730
17456TIP3    H173783   4.566   3.062   3.158  0.1707 -0.5519 -0.5254
17456TIP3    H273784   4.656   3.182   3.136 -0.4514 -0.2343 -1.4002
17457TIP3   OH273785   3.331   1.814   6.231  0.0441  0.4022  0.2613
17457TIP3    H173786   3.257   1.757   6.252  0.5814 -1.4372 -2.2271
17457TIP3    H273787   3.311   1.897   6.273 -2.7887 -0.4195  0.7501
17458TIP3   OH273788   3.006   5.291   4.347 -0.3432 -0.5020  0.1271
17458TIP3    H173789   3.027   5.199   4.359 -0.7079 -1.1886 -3.5044
17458TIP3    H273790   2.933   5.292   4.285  1.0757  2.2074 -1.7272
17459TIP3   OH273791   3.422   1.726   0.669 -0.5755  0.4631 -0.1359
17459TIP3    H173792   3.506   1.681   0.678 -0.9204  0.0645  1.2915
17459TIP3    H273793   3.434   1.786   0.595  0.6856 -0.1853 -0.4735
17460TIP3   OH273794   4.609   2.593  14.036 -0.3362  0.4738  0.8421
17460TIP3    H173795   4.598   2.535  13.961  1.1284  0.0536  0.9312
17460TIP3    H273796   4.524   2.637  14.044 -1.4714 -1.5532  0.7074
17461TIP3   OH273797   3.503   5.910  16.476 -0.3515 -0.6845 -0.0852
17461TIP3    H173798   3.589   5.953  16.476 -0.4686 -0.4362 -0.4614
17461TIP3    H273799   3.513   5.835  16.533 -0.8875  1.2901  2.8464
17462TIP3   OH273800   1.542   6.788   0.170  0.3012 -0.2199 -0.1097
17462TIP3    H173801   1.539   6.853   0.100 -0.2494  0.5555  0.6144
17462TIP3    H273802   1.543   6.704   0.124 -1.0009  0.2309 -1.0506
17463TIP3   OH273803   6.773   4.507  14.251  0.2633 -0.0317  0.3996
17463TIP3    H173804   6.761   4.465  14.336 -0.1843  0.5421  0.6276
17463TIP3    H273805   6.857   4.474  14.219  0.2082 -0.6180  0.8478
17464TIP3   OH273806   5.918   5.962  17.069 -0.1490 -0.3633 -0.1824
17464TIP3    H173807   5.822   5.961  17.070 -0.2919 -0.4335 -3.4330
17464TIP3    H273808   5.941   6.050  17.038  0.6755 -1.1305 -1.8898
17465TIP3   OH273809   1.729   6.805   0.375 -0.5030 -0.4178 -0.0199
17465TIP3    H173810   1.691   6.828   0.460  1.2606  2.8800  0.0275
17465TIP3    H273811   1.653   6.791   0.318 -1.7146 -1.0954  1.6514
17466TIP3   OH273812   1.184   4.135   3.230 -0.5571 -0.2924 -0.2409
17466TIP3    H173813   1.191   4.220   3.187 -0.7786 -0.9443 -1.6349
17466TIP3    H273814   1.107   4.094   3.191 -0.8730 -0.8654  0.9224
17467TIP3   OH273815   0.313   2.402  12.366 -0.2278 -0.2797  0.2097
17467TIP3    H173816   0.219   2.392  12.349 -0.8163  3.6436  0.2702
17467TIP3    H273817   0.354   2.398  12.279 -0.3595 -2.1547  0.1956
17468TIP3   OH273818   3.141   0.868  17.003 -0.2538 -0.3872  0.2946
17468TIP3    H173819   3.080   0.850  16.931 -0.1327 -2.0420  0.5617
17468TIP3    H273820   3.092   0.846  17.082  0.7958 -2.3285  0.4878
17469TIP3   OH273821   0.675   4.114   2.242 -0.2928  0.0803 -0.3825
17469TIP3    H173822   0.668   4.128   2.337  0.3327  0.0315 -0.3236
17469TIP3    H273823   0.744   4.175   2.214 -1.2695  0.9338 -1.0000
17470TIP3   OH273824   4.193   5.350  12.804 -0.1481  0.3914  0.0289
17470TIP3    H173825   4.106   5.378  12.835 -0.0671  0.3852  0.2623
17470TIP3    H273826   4.185   5.256  12.793  0.0353  0.2890  0.7256
17471TIP3   OH273827   0.211   6.815  13.607 -0.1863  0.3791 -0.1319
17471TIP3    H173828   0.127   6.779  13.636 -0.1448  0.5776  0.2306
17471TIP3    H273829   0.275   6.747  13.630 -0.3332 -0.0943 -1.0662
17472TIP3   OH273830   4.077   1.608  11.326 -0.3761  0.5636  0.2214
17472TIP3    H173831   4.110   1.542  11.265 -0.4890  0.2344  0.5141
17472TIP3    H273832   3.986   1.623  11.299 -0.7382 -0.3122  0.9193
17473TIP3   OH273833   6.696   2.610  13.254 -0.0365  0.2985  0.1595
17473TIP3    H173834   6.637   2.536  13.270 -0.0289  0.1179 -0.6183
17473TIP3    H273835   6.640   2.677  13.215  0.4716 -0.2792 -1.6308
17474TIP3   OH273836   5.460   5.983  13.612 -0.1729 -0.2443  0.1068
17474TIP3    H173837   5.494   5.915  13.553  0.7443  0.4923 -0.2321
17474TIP3    H273838   5.366   5.964  13.618 -0.3493 -0.1942 -1.7965
17475TIP3   OH273839   1.837   2.908   0.068 -0.7751  0.2980 -0.4678
17475TIP3    H173840   1.913   2.870   0.024  0.2365  2.1044 -0.3511
17475TIP3    H273841   1.779   2.936  -0.003 -0.2530  1.0283 -0.6081
17476TIP3   OH273842   1.861   1.382  13.966 -0.0095  0.3049  0.0318
17476TIP3    H173843   1.911   1.394  14.047 -1.0147 -1.1043  0.9026
17476TIP3    H273844   1.791   1.446  13.972  0.7007  1.1562 -0.4170
17477TIP3   OH273845   6.170   4.658   0.913  0.3808  0.5092 -0.0332
17477TIP3    H173846   6.220   4.628   0.989 -1.2465 -2.5231  0.0167
17477TIP3    H273847   6.227   4.641   0.838 -0.0700 -2.0499  0.1039
17478TIP3   OH273848   5.309   0.356   0.695  0.0527  0.4534  0.4973
17478TIP3    H173849   5.397   0.331   0.665  0.1060  1.2242 -0.0225
17478TIP3    H273850   5.310   0.339   0.789 -0.0726 -1.9246  0.1438
17479TIP3   OH273851   1.290   2.272   5.479 -0.2418 -0.3303  0.0824
17479TIP3    H173852   1.260   2.183   5.461  0.8138 -0.8947  0.9473
17479TIP3    H273853   1.312   2.271   5.572  0.0511  0.7618  0.0369
17480TIP3   OH273854   1.714   4.150   3.139 -0.4066 -0.0459 -0.5957
17480TIP3    H173855   1.807   4.128   3.133 -0.1771  0.2027  1.4043
17480TIP3    H273856   1.669   4.068   3.121  0.3145 -0.9770  1.5135
17481TIP3   OH273857   5.476   3.326  13.863 -0.1409 -0.3016 -0.2981
17481TIP3    H173858   5.563   3.360  13.886  1.3098 -3.0413 -1.3094
17481TIP3    H273859   5.424   3.404  13.847  1.8399  1.4870  1.2758
17482TIP3   OH273860   2.623   3.676   3.920 -0.2739 -0.3428 -0.3137
17482TIP3    H173861   2.585   3.668   4.007  0.0858  0.6909 -0.0392
17482TIP3    H273862   2.686   3.748   3.928  0.1358 -0.5728 -1.2966
17483TIP3   OH273863   0.918   3.653  13.788 -0.1969  0.1291 -0.8561
17483TIP3    H173864   0.964   3.572  13.808 -2.0864 -1.0875 -1.1089
17483TIP3    H273865   0.902   3.693  13.873  0.2758 -0.0413 -0.6865
17484TIP3   OH273866   4.111   1.243   3.735 -0.2111 -0.0271  0.5029
17484TIP3    H173867   4.110   1.278   3.824  1.0006  1.1608  0.0804
17484TIP3    H273868   4.162   1.162   3.742 -1.2767 -0.6685  1.1101
17485TIP3   OH273869   4.956   4.830   2.839  0.3122 -0.0063 -0.2160
17485TIP3    H173870   4.911   4.876   2.768  0.3718  0.3426 -0.0277
17485TIP3    H273871   4.914   4.743   2.841  0.3931 -0.0623 -0.7536
17486TIP3   OH273872   5.221   0.453  12.215 -0.2959  0.1389  0.4053
17486TIP3    H173873   5.311   0.450  12.249  0.1119 -0.6789 -0.6605
17486TIP3    H273874   5.219   0.531  12.160  0.1459 -0.4499 -0.4868
17487TIP3   OH273875   5.769   5.065   2.621 -0.3116 -0.1485 -0.0285
17487TIP3    H173876   5.824   5.030   2.550  0.9198  0.5917  0.5332
17487TIP3    H273877   5.686   5.018   2.612 -0.2379 -0.0000 -2.0298
17488TIP3   OH273878   2.024   0.944  13.820  0.2011  0.3484 -0.1358
17488TIP3    H173879   2.060   0.875  13.765  0.0800  0.7603 -0.7461
17488TIP3    H273880   2.038   1.024  13.770  1.5046  0.9504  1.1092
17489TIP3   OH273881   6.314   0.772   0.303  0.1397  0.8605  0.5198
17489TIP3    H173882   6.345   0.681   0.306 -0.9442  0.4620  0.1799
17489TIP3    H273883   6.245   0.771   0.236 -0.4346  1.7604  1.0816
17490TIP3   OH273884   6.433   3.311  14.786  0.5727  0.0919 -0.4385
17490TIP3    H173885   6.413   3.356  14.704 -1.5175 -2.1110 -1.2572
17490TIP3    H273886   6.393   3.225  14.776  0.2824 -0.2744  2.8999
17491TIP3   OH273887   4.943   1.248  15.044 -0.3811  0.1193  0.4760
17491TIP3    H173888   4.933   1.324  14.987 -1.1736 -0.1945  0.1746
17491TIP3    H273889   4.917   1.280  15.130 -0.1531  0.3360  0.4660
17492TIP3   OH273890   3.486   0.078   0.986 -0.3835 -0.0903  0.5590
17492TIP3    H173891   3.580   0.094   0.977 -0.5299  0.8977  0.6113
17492TIP3    H273892   3.472   0.069   1.081 -0.3928  0.1463  0.5812
17493TIP3   OH273893   3.667   6.627  11.290 -0.2272  0.2109  0.1136
17493TIP3    H173894   3.634   6.597  11.205  0.8152 -0.8143  0.0522
17493TIP3    H273895   3.752   6.665  11.271 -1.4596  3.2685  0.2051
17494TIP3   OH273896   0.712   1.201   5.118 -0.0409 -0.2370 -0.8229
17494TIP3    H173897   0.726   1.158   5.203  1.0275 -0.5365 -1.1275
17494TIP3    H273898   0.659   1.139   5.068 -1.9620  0.5858  0.1141
17495TIP3   OH273899   1.348   0.420   2.222  0.4446  0.1220  0.0962
17495TIP3    H173900   1.290   0.496   2.229  1.2148  0.6688  0.8288
17495TIP3    H273901   1.377   0.421   2.131 -0.2383  0.1816 -0.1245
17496TIP3   OH273902   2.655   5.237   6.669 -0.0607 -0.9076  0.3382
17496TIP3    H173903   2.658   5.276   6.757 -2.5141 -1.1048  0.5802
17496TIP3    H273904   2.606   5.156   6.680 -0.4565 -0.9148 -1.2102
17497TIP3   OH273905   2.666   3.368  14.461  0.2514  0.3983  0.2409
17497TIP3    H173906   2.639   3.350  14.551 -1.0740 -1.4468 -0.4523
17497TIP3    H273907   2.761   3.359  14.462  0.0897 -1.8564  1.0534
17498TIP3   OH273908   2.495   3.777   6.191  0.1369  0.2195 -0.3083
17498TIP3    H173909   2.541   3.726   6.259 -2.7593 -2.4402 -0.0998
17498TIP3    H273910   2.563   3.831   6.151  2.8711 -1.5373  1.6118
17499TIP3   OH273911   3.950   5.808  10.899  0.0521  0.1740 -0.6155
17499TIP3    H173912   3.914   5.808  10.988  0.1047  1.8377 -0.5648
17499TIP3    H273913   3.873   5.805  10.842 -0.0076 -0.2014 -0.5179
17500TIP3   OH273914   0.830   1.524   5.187  0.0429 -0.1351  0.1077
17500TIP3    H173915   0.855   1.593   5.125  1.1992 -1.5079 -1.0222
17500TIP3    H273916   0.735   1.517   5.178  0.0156  0.7246 -0.3806
17501TIP3   OH273917   0.163   4.384   3.747  0.8070  0.1347  0.0656
17501TIP3    H173918   0.145   4.411   3.657 -0.0468 -2.0316 -0.4550
17501TIP3    H273919   0.155   4.465   3.798 -1.0628  0.9909 -1.4609
17502TIP3   OH273920   0.072   0.806  11.255  0.0638 -0.4564 -0.3837
17502TIP3    H173921   0.126   0.792  11.177  1.5010 -0.3837  0.5614
17502TIP3    H273922   0.022   0.886  11.235  0.1739 -0.6132 -1.3443
17503TIP3   OH273923   2.726   5.600   5.605 -0.2855  0.9863 -0.6598
17503TIP3    H173924   2.807   5.632   5.644  0.0434 -2.6900  2.2040
17503TIP3    H273925   2.658   5.623   5.668 -0.7223  0.0883 -0.7898
17504TIP3   OH273926   1.442   3.185  14.259 -0.2038 -0.7090  0.1910
17504TIP3    H173927   1.524   3.142  14.235  0.0987 -0.7561  1.2347
17504TIP3    H273928   1.376   3.143  14.204  0.6226  0.2008 -1.5891
17505TIP3   OH273929   5.532   3.798  14.059 -0.6235  0.7607  0.3651
17505TIP3    H173930   5.543   3.784  14.154  0.7053 -1.3587 -0.0305
17505TIP3    H273931   5.606   3.852  14.034 -1.2765  1.7849  0.5988
17506TIP3   OH273932   1.504   3.369  16.956 -0.2074  0.4205  0.0159
17506TIP3    H173933   1.450   3.352  17.033 -0.3788  3.5618  0.7266
17506TIP3    H273934   1.594   3.357  16.987 -0.3438 -0.4220  0.0949
17507TIP3   OH273935   1.762   0.907   0.751  0.0053  0.1149  0.3126
17507TIP3    H173936   1.834   0.867   0.702  0.7118  1.7997 -0.0930
17507TIP3    H273937   1.753   0.853   0.829 -0.0499 -1.6629 -0.8671
17508TIP3   OH273938   0.453   3.281  14.825  0.2099  0.4538 -0.0402
17508TIP3    H173939   0.507   3.287  14.746  0.1718  0.0796 -0.0982
17508TIP3    H273940   0.434   3.372  14.849  0.0758  0.5637 -0.5584
17509TIP3   OH273941   4.966   1.796  12.548 -0.2199 -0.3364 -0.1476
17509TIP3    H173942   4.885   1.837  12.517  0.4267  2.1201  1.0806
17509TIP3    H273943   5.031   1.867  12.546  1.1715 -1.4557  1.5926
17510TIP3   OH273944   1.798   2.231   2.615  0.7718 -0.3065  0.6475
17510TIP3    H173945   1.848   2.150   2.617  0.7480 -0.3109  1.0811
17510TIP3    H273946   1.736   2.224   2.687  0.0046 -0.3849 -0.0006
17511TIP3   OH273947   4.420   0.523  15.457 -0.4417 -0.1635  0.5806
17511TIP3    H173948   4.461   0.463  15.395 -0.5757  0.0968  0.2385
17511TIP3    H273949   4.335   0.483  15.475 -0.7389  0.1761 -0.0354
17512TIP3   OH273950   4.639   4.759   1.295  0.4161 -0.7753 -0.2330
17512TIP3    H173951   4.564   4.721   1.341 -0.4772  0.8218 -0.2841
17512TIP3    H273952   4.604   4.789   1.211  0.6046  1.6559  0.4677
17513TIP3   OH273953   3.561   2.097   4.262  0.3314  0.4319  0.0916
17513TIP3    H173954   3.513   2.026   4.305 -0.1214  0.4227 -0.4115
17513TIP3    H273955   3.642   2.057   4.231 -0.8761 -0.4534 -2.1543
17514TIP3   OH273956   2.126   0.131   1.873  0.0637  0.2200  0.8515
17514TIP3    H173957   2.068   0.197   1.910  0.4542  1.6696 -0.9641
17514TIP3    H273958   2.081   0.100   1.794  1.2283  0.5698  0.0196
17515TIP3   OH273959   5.582   4.216  12.774 -0.6106 -0.0823  0.2021
17515TIP3    H173960   5.536   4.270  12.709 -0.0047 -1.8209 -1.7671
17515TIP3    H273961   5.675   4.236  12.760 -0.4760 -0.3812  0.6454
17516TIP3   OH273962   4.960   5.249  12.781  0.1970 -0.0776  0.0470
17516TIP3    H173963   4.993   5.159  12.777 -1.5956 -0.7795  0.0111
17516TIP3    H273964   4.955   5.269  12.874 -0.7881 -0.5893  0.1203
17517TIP3   OH273965   5.666   4.323  13.179  0.2701  0.4372 -0.2560
17517TIP3    H173966   5.607   4.272  13.123 -0.0373  0.2115  0.2730
17517TIP3    H273967   5.751   4.280  13.168 -0.1164 -0.6398  0.7152
17518TIP3   OH273968   2.848   5.136  16.069 -0.0983 -0.3516 -0.6960
17518TIP3    H173969   2.895   5.053  16.077 -0.5750 -0.7371 -1.7280
17518TIP3    H273970   2.791   5.140  16.146  0.0214 -0.9235 -0.5806
17519TIP3   OH273971   2.479   1.931   2.825  0.2075 -0.0576  0.0671
17519TIP3    H173972   2.561   1.883   2.838  0.7720  1.0192  0.5857
17519TIP3    H273973   2.473   1.944   2.730  1.2964  0.9424  0.1082
17520TIP3   OH273974   4.953   2.872   2.378 -0.4447  0.3863 -0.5665
17520TIP3    H173975   5.012   2.861   2.304  0.5495  3.8924 -0.4939
17520TIP3    H273976   4.891   2.939   2.349 -2.0974 -0.5493  0.6699
17521TIP3   OH273977   6.574   2.980   2.443  0.0380 -0.2242 -0.4932
17521TIP3    H173978   6.552   2.890   2.419 -1.7267 -0.1609  0.6970
17521TIP3    H273979   6.619   2.972   2.527 -0.5092  0.0424 -0.1767
17522TIP3   OH273980   3.398   1.979   0.221  0.5177 -0.1467 -0.7729
17522TIP3    H173981   3.307   2.007   0.213  0.0133 -0.9654  1.3733
17522TIP3    H273982   3.448   2.061   0.222 -0.3447  0.3954 -0.4877
17523TIP3   OH273983   2.732   3.746  14.192 -0.1507  0.2488  0.7890
17523TIP3    H173984   2.755   3.833  14.222 -0.5830 -0.3609  3.0690
17523TIP3    H273985   2.803   3.722  14.132 -0.0438  2.1331  0.0983
17524TIP3   OH273986   4.611   3.884  15.780  0.7546  0.2538 -0.0801
17524TIP3    H173987   4.642   3.876  15.870  0.4808  1.0629  0.0978
17524TIP3    H273988   4.650   3.810  15.734 -1.6636 -2.1590  1.3998
17525TIP3   OH273989   3.095   0.620   1.591  0.5754 -0.7532 -0.1102
17525TIP3    H173990   3.122   0.695   1.644  0.3648 -1.7399  1.4826
17525TIP3    H273991   3.003   0.606   1.616  0.7132 -1.7307 -0.1339
17526TIP3   OH273992   2.461   2.969  16.771  0.3142  0.0829  0.2429
17526TIP3    H173993   2.373   2.941  16.746  0.3078 -0.4467  0.8445
17526TIP3    H273994   2.462   2.963  16.866  1.1657 -0.4082  0.2084
17527TIP3   OH273995   4.892   2.847  16.888 -0.8218 -0.2650  0.2562
17527TIP3    H173996   4.825   2.795  16.932  0.8887 -2.3237  0.6053
17527TIP3    H273997   4.887   2.819  16.796 -0.4991 -0.4068  0.2782
17528TIP3   OH273998   5.628   5.984  13.927  0.5367 -0.0131  0.2621
17528TIP3    H173999   5.599   6.056  13.983  0.7480 -1.9076  3.0260
17528TIP3    H274000   5.549   5.933  13.910  0.6705 -0.0726 -0.1763
17529TIP3   OH274001   1.946   0.394  11.487  0.4861 -0.0724  0.1989
17529TIP3    H174002   1.965   0.311  11.443  1.9302 -0.2955  1.1956
17529TIP3    H274003   2.007   0.397  11.560  1.2076  2.3791 -0.4281
17530TIP3   OH274004   3.529   4.330  12.219  0.1437  0.2635 -0.0745
17530TIP3    H174005   3.568   4.292  12.298 -1.2935  0.6053  0.8323
17530TIP3    H274006   3.534   4.261  12.154  1.9672  0.1978  0.0949
17531TIP3   OH274007   0.179   3.183   0.715  0.1596 -0.2621  0.0640
17531TIP3    H174008   0.111   3.191   0.782  0.6980  0.2745  0.5562
17531TIP3    H274009   0.252   3.140   0.760  0.0289 -1.1556 -0.5553
17532TIP3   OH274010   2.676   4.208   0.850  0.3590  0.0536 -0.0961
17532TIP3    H174011   2.707   4.220   0.940  1.8756  0.9322 -0.6912
17532TIP3    H274012   2.600   4.151   0.858  1.1978 -0.9068  1.6284
17533TIP3   OH274013   3.968   5.427  12.554 -0.4467 -0.0405  0.2436
17533TIP3    H174014   3.873   5.419  12.562 -0.9646  2.8558 -1.5057
17533TIP3    H274015   3.993   5.490  12.622  0.1671 -0.4267  0.3871
17534TIP3   OH274016   5.037   5.014  11.446 -0.3618 -0.1565 -0.3219
17534TIP3    H174017   5.085   4.981  11.370 -0.4782  1.1113 -0.9772
17534TIP3    H274018   5.068   5.104  11.457 -1.6282  0.2651  0.0316
17535TIP3   OH274019   4.689   3.219  14.814  0.6795 -0.0905 -0.7550
17535TIP3    H174020   4.737   3.286  14.863 -1.8183  2.5864 -1.6471
17535TIP3    H274021   4.659   3.264  14.735 -2.4859 -1.7569 -0.6816
17536TIP3   OH274022   2.657   3.775  13.594 -0.0273  0.2585  0.1133
17536TIP3    H174023   2.710   3.811  13.665  0.4580 -3.1337  1.6895
17536TIP3    H274024   2.699   3.806  13.514  1.1608  1.8570  1.3011
17537TIP3   OH274025   6.073   5.625  12.263 -0.3186  0.1061 -0.1303
17537TIP3    H174026   6.153   5.678  12.260 -0.5231  0.4082 -0.3252
17537TIP3    H274027   6.078   5.578  12.346 -0.0217  0.2544 -0.0624
17538TIP3   OH274028   6.321   6.709   4.125 -0.1377 -0.0057 -0.0873
17538TIP3    H174029   6.303   6.706   4.031 -0.1408 -2.6389 -0.0918
17538TIP3    H274030   6.409   6.674   4.134 -0.5327 -0.8105  0.9355
17539TIP3   OH274031   5.270   1.485   1.286  0.3130  1.2261  0.5603
17539TIP3    H174032   5.199   1.430   1.319  0.5502 -0.3888 -1.3882
17539TIP3    H274033   5.240   1.574   1.300 -0.9416  0.6026  2.1165
17540TIP3   OH274034   0.883   6.318  12.273 -0.4407  0.5675  0.4805
17540TIP3    H174035   0.892   6.384  12.342  2.6213  0.9297 -0.1506
17540TIP3    H274036   0.882   6.235  12.320  1.4289  0.8178  1.0437
17541TIP3   OH274037   6.640   6.753   6.356  0.0923 -0.0712 -0.5352
17541TIP3    H174038   6.682   6.720   6.436  1.3615  1.0871 -0.6833
17541TIP3    H274039   6.694   6.718   6.285 -0.1432  0.1347 -0.8160
17542TIP3   OH274040   1.448   0.524  13.123  0.0685 -0.4509  0.5493
17542TIP3    H174041   1.366   0.481  13.102 -1.8625  2.3760  1.7450
17542TIP3    H274042   1.509   0.494  13.055 -2.7824 -0.2243 -2.3378
17543TIP3   OH274043   5.245   4.199  14.246 -0.0346 -0.2108  0.4893
17543TIP3    H174044   5.230   4.121  14.193  1.9029  1.5454 -3.0175
17543TIP3    H274045   5.329   4.185  14.288 -0.2528 -0.4860  0.8336
17544TIP3   OH274046   2.003   3.016   2.202  0.3970  0.7431 -0.2151
17544TIP3    H174047   1.989   3.105   2.234  1.9253  0.7192  0.6210
17544TIP3    H274048   1.918   2.973   2.213  0.1204  1.5771  1.1391
17545TIP3   OH274049   2.923   0.618   1.839  0.2156 -0.1583  0.0400
17545TIP3    H174050   2.861   0.676   1.883 -0.7356 -0.5406 -0.7349
17545TIP3    H274051   2.993   0.675   1.809 -0.9050  0.7051 -1.0770
17546TIP3   OH274052   1.343   3.081   6.134 -0.3860  0.0794 -0.4311
17546TIP3    H174053   1.325   3.038   6.218 -0.2400 -0.2026 -0.5435
17546TIP3    H274054   1.365   3.009   6.075  0.6716  0.3760 -0.4185
17547TIP3   OH274055   0.758   1.143   3.537 -0.0787  0.2664  0.0366
17547TIP3    H174056   0.667   1.116   3.549 -0.3821  1.1660 -0.1869
17547TIP3    H274057   0.805   1.062   3.517 -1.1978  0.0804 -2.0060
17548TIP3   OH274058   2.710   0.506  11.733 -0.3325 -0.2710 -0.1680
17548TIP3    H174059   2.729   0.586  11.781 -0.5131 -0.4702  0.2370
17548TIP3    H274060   2.721   0.530  11.641 -0.5724  0.2670 -0.0579
17549TIP3   OH274061   0.708   5.642  15.080  0.0597  0.0543 -0.2698
17549TIP3    H174062   0.629   5.675  15.038  0.3309  1.1578  0.0681
17549TIP3    H274063   0.689   5.549  15.095 -0.0407 -0.3845 -2.7784
17550TIP3   OH274064   2.996   5.367   1.982  0.2894 -0.4679  0.2915
17550TIP3    H174065   3.090   5.346   1.978  0.3747  0.0735 -0.9315
17550TIP3    H274066   2.953   5.281   1.986  0.8343 -0.7167  1.4864
17551TIP3   OH274067   2.174   2.371   2.415  0.2773 -0.2560  0.5122
17551TIP3    H174068   2.108   2.406   2.474 -1.0373 -1.9898  0.1544
17551TIP3    H274069   2.178   2.278   2.436  1.3322 -0.5045 -0.6807
17552TIP3   OH274070   0.145   3.733  15.661  0.0290 -0.2522  0.1661
17552TIP3    H174071   0.052   3.738  15.640 -0.0011 -0.6707  0.1943
17552TIP3    H274072   0.171   3.824  15.676  0.0139  0.0563 -1.4946
17553TIP3   OH274073   4.367   5.553   5.706  0.1893 -0.0197 -0.0219
17553TIP3    H174074   4.386   5.580   5.796 -1.2865 -0.0333  0.3194
17553TIP3    H274075   4.365   5.457   5.710 -0.9030 -0.0055  0.1854
17554TIP3   OH274076   6.651   3.855   0.727 -0.3151 -0.1266  0.1309
17554TIP3    H174077   6.594   3.866   0.804  0.4220 -1.0528  0.8177
17554TIP3    H274078   6.738   3.841   0.763  0.0788 -0.3680 -0.8866
17555TIP3   OH274079   6.811   6.787   1.264 -0.5667  0.6186 -0.0852
17555TIP3    H174080   6.898   6.764   1.294 -1.0136 -1.0469  0.0542
17555TIP3    H274081   6.752   6.740   1.322 -1.5853  1.8134 -0.0946
17556TIP3   OH274082   4.958   5.671  11.747  0.2698 -0.0690 -0.8920
17556TIP3    H174083   4.868   5.648  11.728 -0.3464  0.0259  1.5480
17556TIP3    H274084   4.992   5.597  11.797  1.5159 -0.0231 -1.6054
17557TIP3   OH274085   5.584   4.022  16.262  0.3475  0.1831  0.1303
17557TIP3    H174086   5.610   4.029  16.354  0.4119  0.8135  0.0720
17557TIP3    H274087   5.637   3.951  16.227  0.5856  0.1770  0.4935
17558TIP3   OH274088   0.216   5.872  11.689 -0.9436 -0.2666 -0.0833
17558TIP3    H174089   0.195   5.792  11.737 -2.8766 -1.0859 -2.1086
17558TIP3    H274090   0.235   5.937  11.757  0.5012 -2.3573  1.6152
17559TIP3   OH274091   1.593   0.365   6.169 -0.3570  0.0861 -0.3177
17559TIP3    H174092   1.550   0.374   6.255 -0.6009  0.3925 -0.4697
17559TIP3    H274093   1.585   0.451   6.129  0.0439  0.0311 -0.5199
17560TIP3   OH274094   2.230   2.591  13.666 -0.8014  0.2707 -0.1986
17560TIP3    H174095   2.270   2.676  13.650  1.3745 -0.2130  2.0035
17560TIP3    H274096   2.285   2.529  13.617 -0.5997 -0.1093  0.4828
17561TIP3   OH274097   5.740   3.933  14.884  0.2147 -0.0622 -0.5235
17561TIP3    H174098   5.702   3.959  14.968  1.6861 -2.4708  1.0317
17561TIP3    H274099   5.680   3.968  14.818 -3.6350 -1.9412  1.6450
17562TIP3   OH274100   2.418   6.135   3.905 -0.3611  0.6911 -0.0005
17562TIP3    H174101   2.341   6.192   3.912  0.4810  1.7019  3.0098
17562TIP3    H274102   2.436   6.108   3.995 -1.5704 -5.8164 -1.2535
17563TIP3   OH274103   6.289   5.465   6.055 -0.1358 -0.1383 -0.7618
17563TIP3    H174104   6.265   5.372   6.053  0.7902 -0.3979 -0.7896
17563TIP3    H274105   6.370   5.467   6.107 -0.2063  0.6693 -0.6695
17564TIP3   OH274106   5.417   0.403  11.586 -0.1417  0.1497  0.1631
17564TIP3    H174107   5.487   0.440  11.531 -0.8283  1.4653  0.1283
17564TIP3    H274108   5.336   0.426  11.539 -0.7730  1.6653  1.8816
17565TIP3   OH274109   2.092   3.983  11.093  0.0710  0.2216  0.5921
17565TIP3    H174110   2.175   4.014  11.059  1.1970 -4.1208 -1.3633
17565TIP3    H274111   2.105   3.975  11.187 -0.1772  4.5594  1.1781
17566TIP3   OH274112   3.335   1.834   1.107  0.2430 -0.1172  0.5600
17566TIP3    H174113   3.371   1.757   1.150 -2.4840 -1.5555  0.4722
17566TIP3    H274114   3.317   1.895   1.180 -1.1514 -1.1563  1.1272
17567TIP3   OH274115   1.330   4.239   0.453 -0.1656 -0.1577  0.0194
17567TIP3    H174116   1.348   4.147   0.432  1.0731  0.5547 -2.3030
17567TIP3    H274117   1.415   4.277   0.473 -0.4954  0.7567 -0.2454
17568TIP3   OH274118   1.679   5.946  11.714  0.1516  0.4404  0.0368
17568TIP3    H174119   1.704   5.856  11.694 -2.1737 -0.3584  0.4956
17568TIP3    H274120   1.761   5.996  11.705  1.9961 -2.0234  1.8884
17569TIP3   OH274121   2.277   5.085  14.929 -0.6477 -0.0137  0.7644
17569TIP3    H174122   2.199   5.084  14.984 -0.5061  1.3510  1.0324
17569TIP3    H274123   2.289   5.177  14.905  1.1244 -0.1070  1.1080
17570TIP3   OH274124   2.865   3.962  13.130 -0.1038  0.6589  0.0034
17570TIP3    H174125   2.880   4.045  13.085 -1.3630  0.9864  0.1456
17570TIP3    H274126   2.826   3.906  13.062 -1.5772  1.0063  0.5224
17571TIP3   OH274127   6.819   2.577  13.498 -0.3421  0.3013  0.1033
17571TIP3    H174128   6.799   2.599  13.407  1.1231  2.1152  0.1588
17571TIP3    H274129   6.749   2.618  13.549 -0.8930 -0.2948 -0.1688
17572TIP3   OH274130   2.668   4.602  11.987  0.6132  0.5888 -0.1062
17572TIP3    H174131   2.659   4.613  12.082 -3.4637 -0.8405 -0.1232
17572TIP3    H274132   2.614   4.672  11.950 -0.3987 -0.6979 -1.1791
17573TIP3   OH274133   5.486   3.134   2.350  0.0301  0.1325  0.3069
17573TIP3    H174134   5.492   3.064   2.285  0.0262  0.3096  0.1147
17573TIP3    H274135   5.563   3.189   2.332  0.2884 -0.0718  0.7518
17574TIP3   OH274136   4.709   1.122  13.394 -0.0087 -0.0056 -0.2427
17574TIP3    H174137   4.684   1.213  13.380 -1.1198 -0.2000  0.3555
17574TIP3    H274138   4.626   1.074  13.396  0.6219 -1.4103 -2.8725
17575TIP3   OH274139   6.061   1.086   6.212 -0.1255  0.5997  0.2868
17575TIP3    H174140   6.097   0.999   6.230  0.6911  0.9456  0.4145
17575TIP3    H274141   6.097   1.141   6.282  1.3234  1.5315 -1.1197
17576TIP3   OH274142   2.079   3.418  16.287 -0.1611  0.3269  0.7599
17576TIP3    H174143   1.984   3.422  16.280 -0.3588 -1.4621  1.8337
17576TIP3    H274144   2.099   3.457  16.372  0.0629  0.5254  0.6185
17577TIP3   OH274145   3.039   3.203   2.297  0.4035 -0.0697 -0.5649
17577TIP3    H174146   3.134   3.187   2.302  0.4860  0.1225 -1.3543
17577TIP3    H274147   3.023   3.220   2.204 -0.8017 -2.3765 -0.8265
17578TIP3   OH274148   1.269   2.428   0.589  0.2994  0.2398  0.6555
17578TIP3    H174149   1.237   2.465   0.507  1.9816  1.5230  0.5153
17578TIP3    H274150   1.312   2.347   0.564  1.5267  1.0277  0.0922
17579TIP3   OH274151   0.462   4.816  13.433 -0.1996  0.3281  0.0918
17579TIP3    H174152   0.446   4.758  13.508 -1.4739  0.1114 -0.3150
17579TIP3    H274153   0.381   4.867  13.425  1.1241  2.6961  0.8454
17580TIP3   OH274154   4.796   5.303   6.339  0.1358 -0.6487  0.3276
17580TIP3    H174155   4.773   5.393   6.361 -0.4781 -1.0528  1.4924
17580TIP3    H274156   4.746   5.283   6.260  2.2995  0.8297 -1.5394
17581TIP3   OH274157   4.910   6.259  15.121 -0.3350  0.2615  0.2882
17581TIP3    H174158   4.975   6.311  15.168 -0.7258  0.5151  0.5642
17581TIP3    H274159   4.953   6.232  15.041  0.3833 -0.2607  0.8372
17582TIP3   OH274160   3.608   0.987   4.044  0.3046 -0.3964  0.0649
17582TIP3    H174161   3.689   1.018   4.084  0.5296 -1.3326  0.3492
17582TIP3    H274162   3.555   1.066   4.032  0.5597 -0.0004  1.4680
17583TIP3   OH274163   1.916   5.735  15.364  0.1953 -0.0852  0.5300
17583TIP3    H174164   1.933   5.765  15.453 -1.5385  0.2603  0.7863
17583TIP3    H274165   1.981   5.781  15.310 -1.0004  2.5700  1.1913
17584TIP3   OH274166   1.283   4.776   1.949  0.1039  0.6939 -0.5464
17584TIP3    H174167   1.286   4.813   1.861 -1.0091  1.2281 -0.3796
17584TIP3    H274168   1.335   4.696   1.944 -0.3942  0.4373 -1.8337
17585TIP3   OH274169   4.479   6.488  12.460  0.3540  0.4787 -0.5741
17585TIP3    H174170   4.475   6.440  12.543  0.0108  1.6962  0.1473
17585TIP3    H274171   4.572   6.498  12.442  0.4672  1.3499  0.3820
17586TIP3   OH274172   1.231   4.661  15.774  0.3895 -0.0086 -0.1246
17586TIP3    H174173   1.200   4.742  15.734 -1.4321 -0.6247 -0.0606
17586TIP3    H274174   1.211   4.672  15.867 -0.2582 -0.6702 -0.1731
17587TIP3   OH274175   6.733   0.695  14.703  0.8817  0.0380  0.3735
17587TIP3    H174176   6.804   0.759  14.706 -1.0926  2.3422  1.5977
17587TIP3    H274177   6.719   0.669  14.794 -0.2096  0.0501  0.2227
17588TIP3   OH274178   1.977   4.066   4.617 -0.2103  0.1490  0.6060
17588TIP3    H174179   1.936   4.142   4.657  0.4438  0.6905  0.2674
17588TIP3    H274180   1.904   4.006   4.599 -0.8965  1.2090 -0.2734
17589TIP3   OH274181   6.754   3.213   2.698 -0.4852 -0.7722 -0.1761
17589TIP3    H174182   6.776   3.305   2.714 -1.9902 -0.6316  1.3385
17589TIP3    H274183   6.838   3.171   2.682  0.5519  0.3839  1.8184
17590TIP3   OH274184   3.235   6.311   1.327  0.5703  0.4422  0.4578
17590TIP3    H174185   3.325   6.342   1.317  1.0049 -0.6115  0.8728
17590TIP3    H274186   3.184   6.390   1.344  1.3383  1.1094 -0.2577
17591TIP3   OH274187   3.070   5.529  13.302  0.1355  0.6974 -0.5734
17591TIP3    H174188   3.041   5.531  13.393 -0.7937 -1.5112 -0.7388
17591TIP3    H274189   3.157   5.568  13.303  0.1174  0.7561  1.2520
17592TIP3   OH274190   6.035   0.752  14.398 -0.0796  0.2751 -0.1123
17592TIP3    H174191   6.107   0.761  14.461  2.2438 -0.8054 -2.4395
17592TIP3    H274192   6.017   0.842  14.371  2.2320  0.4563 -1.3259
17593TIP3   OH274193   6.537   4.927  11.507 -0.5409  0.4043  0.1945
17593TIP3    H174194   6.632   4.933  11.520 -0.6547  2.5637  0.4735
17593TIP3    H274195   6.518   4.833  11.508  1.5073 -0.0550  0.6975
17594TIP3   OH274196   5.217   3.014   4.449  0.1506  0.2454 -0.5151
17594TIP3    H174197   5.220   2.921   4.470  0.9624  0.4636  0.4340
17594TIP3    H274198   5.279   3.054   4.510 -1.6940  1.6842  0.5226
17595TIP3   OH274199   2.003   5.543  15.948  0.0078 -0.0159 -0.1695
17595TIP3    H174200   2.081   5.512  15.902  0.5186 -0.2549  0.8381
17595TIP3    H274201   2.027   5.630  15.980  0.2333 -0.4894  0.9972
17596TIP3   OH274202   2.447   3.324   2.435 -0.3851 -0.1485 -0.3502
17596TIP3    H174203   2.382   3.368   2.490 -0.4737 -1.2714  0.4692
17596TIP3    H274204   2.508   3.393   2.411  1.0063  0.0241  3.1066
17597TIP3   OH274205   5.154   0.537   5.810 -0.0334  0.4227  0.2613
17597TIP3    H174206   5.085   0.472   5.798 -0.5709  0.9652  0.3624
17597TIP3    H274207   5.170   0.538   5.905  0.8929 -0.4811  0.1349
17598TIP3   OH274208   3.415   6.770   1.844  0.1461  0.4242 -0.1818
17598TIP3    H174209   3.480   6.807   1.904  0.4122 -0.2260 -0.0606
17598TIP3    H274210   3.456   6.775   1.758  1.0549 -1.4760  0.0973
17599TIP3   OH274211   5.694   2.214  11.482 -0.0419  0.0749  0.2403
17599TIP3    H174212   5.695   2.124  11.514 -0.8273  0.6273  1.9436
17599TIP3    H274213   5.622   2.256  11.529 -0.8425  1.1700 -1.8169
17600TIP3   OH274214   0.067   5.440  16.236 -0.2878 -0.1039  0.3305
17600TIP3    H174215   0.069   5.376  16.165 -0.2128  1.1647 -0.8517
17600TIP3    H274216  -0.013   5.420  16.284  0.6472 -2.2236  1.1199
17601TIP3   OH274217   1.826   0.559   2.280  0.3605  0.3007  0.1831
17601TIP3    H174218   1.866   0.475   2.261 -0.4513  0.1516 -0.9503
17601TIP3    H274219   1.754   0.538   2.340  0.0277  0.1526 -0.2637
17602TIP3   OH274220   0.363   4.103   3.622  0.2923 -0.2362 -0.0424
17602TIP3    H174221   0.436   4.153   3.587  1.4397 -1.1837  0.9350
17602TIP3    H274222   0.316   4.072   3.544  1.9679 -1.1139 -0.7605
17603TIP3   OH274223   0.497   0.265  15.497 -0.3141  0.2918 -0.5368
17603TIP3    H174224   0.480   0.357  15.475  0.6512  0.6800  0.2736
17603TIP3    H274225   0.571   0.241  15.443  1.1601  0.8281  1.1405
17604TIP3   OH274226   4.856   5.823   5.457 -0.3139 -0.0291 -0.4805
17604TIP3    H174227   4.871   5.869   5.540  0.6138 -0.1043 -0.5929
17604TIP3    H274228   4.762   5.810   5.454 -0.3787  0.0782  0.5108
17605TIP3   OH274229   3.812   0.827   3.245 -0.4947  0.1522  0.1627
17605TIP3    H174230   3.883   0.843   3.183  0.1051 -1.1279  0.4774
17605TIP3    H274231   3.749   0.897   3.229  1.1213  1.7119  0.3000
17606TIP3   OH274232   4.258   4.501   5.609  0.0667  0.0195  0.6441
17606TIP3    H174233   4.179   4.556   5.605  0.8822  1.2033  0.4945
17606TIP3    H274234   4.226   4.418   5.645 -1.5067 -0.0167 -0.6899
17607TIP3   OH274235   4.515   1.307  16.508 -0.2328  0.6144  0.5999
17607TIP3    H174236   4.551   1.389  16.474 -2.0124  1.5814  0.9194
17607TIP3    H274237   4.586   1.243  16.498  0.0166  1.2850 -3.0846
17608TIP3   OH274238   2.344   0.050  15.795  0.1799  0.1611 -0.6178
17608TIP3    H174239   2.297  -0.017  15.745  0.5522  0.5524 -1.5192
17608TIP3    H274240   2.387   0.103  15.728  1.2096  0.3213  0.1578
17609TIP3   OH274241   1.062   2.969  12.154 -0.2614 -0.2974  0.4620
17609TIP3    H174242   1.002   3.036  12.121 -0.6464 -0.6680  0.3996
17609TIP3    H274243   1.014   2.926  12.224 -0.2567 -0.9253  0.0844
17610TIP3   OH274244   2.403   6.219   0.709  0.0396  0.4252  0.3567
17610TIP3    H174245   2.408   6.171   0.791 -0.9662  0.7195  0.5970
17610TIP3    H274246   2.445   6.303   0.727  0.6419  0.1386  0.3029
17611TIP3   OH274247   1.692   4.247   2.195 -0.4304 -0.0821 -0.0188
17611TIP3    H174248   1.758   4.234   2.127 -0.8169 -1.4218 -0.1693
17611TIP3    H274249   1.655   4.160   2.209  0.1854 -0.0268  2.4879
17612TIP3   OH274250   3.826   2.757  15.297  0.2095 -0.2025 -0.5941
17612TIP3    H174251   3.847   2.664  15.296  0.3234 -0.1871 -1.8072
17612TIP3    H274252   3.770   2.768  15.374  1.4853 -0.9564  0.4785
17613TIP3   OH274253   6.734   2.392  16.668 -0.6541  0.3460  1.0465
17613TIP3    H174254   6.664   2.343  16.624  0.0006 -0.7756  1.2001
17613TIP3    H274255   6.727   2.481  16.633 -0.1682 -0.4684 -1.3709
17614TIP3   OH274256   4.503   4.564   3.450  0.5813 -0.0316  0.1281
17614TIP3    H174257   4.521   4.550   3.543  1.0340 -0.6044 -0.0446
17614TIP3    H274258   4.470   4.480   3.419  0.5382  0.1278 -0.2605
17615TIP3   OH274259   0.946   5.290   1.068  0.1490 -0.5956  0.3430
17615TIP3    H174260   0.901   5.374   1.062  1.0930 -0.0903  0.2450
17615TIP3    H274261   1.038   5.310   1.052  0.3629 -1.6771  0.1073
17616TIP3   OH274262   0.019   5.163   5.006 -0.1447  0.2312  0.6263
17616TIP3    H174263   0.024   5.114   4.923  0.4930  1.4820 -0.0937
17616TIP3    H274264  -0.072   5.152   5.034 -0.0600 -1.2298  0.4090
17617TIP3   OH274265   4.951   5.664  12.383  0.0265 -0.2704  0.0401
17617TIP3    H174266   4.864   5.687  12.349  1.2306 -0.5403 -3.5827
17617TIP3    H274267   4.945   5.569  12.399 -0.4230 -0.2408  0.0657
17618TIP3   OH274268   1.546   6.002   2.352  0.1483  0.4792  0.1978
17618TIP3    H174269   1.573   6.032   2.439 -0.3570  0.9772  0.1874
17618TIP3    H274270   1.570   6.074   2.294  0.5165  0.1332 -0.0895
17619TIP3   OH274271   2.265   4.645   6.801  0.2317 -0.8135  0.2416
17619TIP3    H174272   2.264   4.638   6.706 -0.6192  2.7204 -0.1481
17619TIP3    H274273   2.210   4.572   6.831  0.0165 -1.6407 -1.9871
17620TIP3   OH274274   0.207   5.925   6.323  0.0408  0.1130  0.5959
17620TIP3    H174275   0.261   5.971   6.387 -0.3010 -2.0957  2.6238
17620TIP3    H274276   0.118   5.934   6.356 -0.3175  0.0765 -0.3314
17621TIP3   OH274277   3.239   2.563   0.372 -0.1600 -0.0999 -0.3074
17621TIP3    H174278   3.216   2.619   0.298 -0.4983  0.3109  0.1074
17621TIP3    H274279   3.278   2.622   0.436 -0.0833 -0.4187 -0.0554
17622TIP3   OH274280   3.257   0.926  11.702  0.2375 -0.2317 -0.3205
17622TIP3    H174281   3.178   0.928  11.648 -0.2678 -3.0821  0.1106
17622TIP3    H274282   3.302   0.846  11.675  1.8796  0.2054  0.9360
17623TIP3   OH274283   5.501   2.950   4.878 -0.1746 -0.1572  0.2915
17623TIP3    H174284   5.455   3.022   4.921  0.0840 -0.5993  1.3418
17623TIP3    H274285   5.460   2.871   4.913 -0.2935 -0.5258 -0.6669
17624TIP3   OH274286   3.903   4.313   3.602 -0.6585  0.7106 -0.2450
17624TIP3    H174287   3.866   4.302   3.515  0.5720  0.1321 -0.7112
17624TIP3    H274288   3.833   4.356   3.652 -2.8994 -2.3314 -0.4482
17625TIP3   OH274289   4.572   6.336  16.581 -0.0055 -0.1261 -0.4631
17625TIP3    H174290   4.654   6.306  16.619  0.1790 -1.0914 -1.5578
17625TIP3    H274291   4.587   6.334  16.486 -1.2535 -0.2396 -0.6774
17626TIP3   OH274292   1.006   0.439  11.111 -0.0547  0.4727  0.0709
17626TIP3    H174293   0.974   0.515  11.064 -0.8429  0.2077  0.1755
17626TIP3    H274294   1.084   0.412  11.063 -0.6886  0.3675 -0.9196
17627TIP3   OH274295   1.810   1.757   6.158  0.0012  0.0232 -0.3568
17627TIP3    H174296   1.870   1.809   6.211 -1.2946  0.8737  0.3267
17627TIP3    H274297   1.852   1.671   6.153  0.5764  0.1539  1.3418
17628TIP3   OH274298   2.474   3.407  11.941  0.1621  0.1383 -0.0712
17628TIP3    H174299   2.482   3.332  11.999  1.3632  1.7240  1.9552
17628TIP3    H274300   2.386   3.400  11.904 -0.0431 -1.8108  0.6611
17629TIP3   OH274301   3.668   0.350   1.583  0.0097  0.1154 -0.2946
17629TIP3    H174302   3.751   0.366   1.628  0.0324 -0.3510 -0.1637
17629TIP3    H274303   3.686   0.369   1.491  0.1894  0.2794 -0.2235
17630TIP3   OH274304   3.911   6.617  13.842  0.1541 -0.1618 -0.3814
17630TIP3    H174305   3.834   6.649  13.888  0.2186  0.8945 -0.9884
17630TIP3    H274306   3.876   6.561  13.773 -0.0197 -0.4633 -0.0514
17631TIP3   OH274307   2.975   5.551  14.855 -0.8676  0.4299 -0.0850
17631TIP3    H174308   2.909   5.540  14.786  0.4678  1.0435 -1.5447
17631TIP3    H274309   3.019   5.467  14.860  0.1606  0.8594 -1.2650
17632TIP3   OH274310   3.541   3.411  11.319 -0.3822  0.0712 -0.2898
17632TIP3    H174311   3.572   3.323  11.338  1.1867  0.2543 -1.6938
17632TIP3    H274312   3.517   3.409  11.226  1.5783  1.5247 -0.9275
17633TIP3   OH274313   1.528   3.739  11.695  0.4253 -0.2461  0.3976
17633TIP3    H174314   1.582   3.674  11.651  2.1652  0.9605  0.6667
17633TIP3    H274315   1.590   3.797  11.740 -1.1602  0.0880  2.3205
17634TIP3   OH274316   1.769   0.751   0.979  0.1323 -0.3449  0.6257
17634TIP3    H174317   1.770   0.688   0.907 -0.5406  0.7669 -0.3954
17634TIP3    H274318   1.802   0.702   1.054  0.8900 -1.5310 -0.4362
17635TIP3   OH274319   2.376   1.822   1.538 -0.2245 -0.5340  0.2947
17635TIP3    H174320   2.398   1.803   1.629 -0.4098  0.4179  0.5435
17635TIP3    H274321   2.305   1.886   1.543 -1.4877 -1.8296 -0.5180
17636TIP3   OH274322   3.810   3.384  13.519  0.0581 -0.0114 -0.0203
17636TIP3    H174323   3.823   3.297  13.482 -0.8676  0.2576 -1.0499
17636TIP3    H274324   3.739   3.373  13.583 -1.2078  0.2440 -1.3210
17637TIP3   OH274325   5.041   4.572  12.266  0.5398 -0.7379 -0.4926
17637TIP3    H174326   5.065   4.577  12.173  2.3726 -2.2249 -0.1409
17637TIP3    H274327   5.119   4.598  12.313 -0.3663 -0.0300  0.6680
17638TIP3   OH274328   3.677   4.118   5.464  0.1204  0.2465  0.4498
17638TIP3    H174329   3.589   4.081   5.469 -0.4348  1.3542 -0.7140
17638TIP3    H274330   3.733   4.046   5.436 -0.5618 -0.2344  0.3311
17639TIP3   OH274331   2.978   4.431   5.541 -0.0429  0.0947 -0.3942
17639TIP3    H174332   2.913   4.436   5.612  0.2905 -0.0923 -0.0751
17639TIP3    H274333   2.942   4.488   5.473  0.0657  0.9776  0.2655
17640TIP3   OH274334   4.546   5.676  10.939  0.0661  0.2745 -0.2038
17640TIP3    H174335   4.590   5.612  10.884  2.7275  1.0368  0.9022
17640TIP3    H274336   4.602   5.754  10.936 -1.4463  1.4838  0.9577
17641TIP3   OH274337   3.126   2.295  14.126 -0.4442  0.0073  0.3436
17641TIP3    H174338   3.148   2.265  14.038  2.0387  1.6175  0.2871
17641TIP3    H274339   3.054   2.239  14.155 -0.3517 -1.5032 -2.1374
17642TIP3   OH274340   2.251   5.609  13.495  0.6198  0.2072 -0.1040
17642TIP3    H174341   2.240   5.663  13.574  0.9404  1.6647 -1.0146
17642TIP3    H274342   2.345   5.606  13.481  0.5262  0.7061 -0.9076
17643TIP3   OH274343   6.170   2.894   4.319  0.2007  0.4310  0.0288
17643TIP3    H174344   6.136   2.977   4.353 -1.2385 -0.6993  1.4491
17643TIP3    H274345   6.119   2.879   4.239 -0.9634 -0.0290  0.8279
17644TIP3   OH274346   3.947   2.499  13.783  0.6107 -0.4491 -0.1565
17644TIP3    H174347   3.935   2.475  13.875 -0.0601  0.8371  0.1143
17644TIP3    H274348   3.955   2.415  13.737 -0.0456 -1.1387  0.9432
17645TIP3   OH274349   6.161   0.493   0.701  0.0096  0.1118 -0.4323
17645TIP3    H174350   6.135   0.404   0.681  0.6825 -0.2289  0.1634
17645TIP3    H274351   6.146   0.542   0.620  0.0515 -0.6347 -0.8934
17646TIP3   OH274352   1.348   6.312  15.343  0.4200  0.3414 -0.8474
17646TIP3    H174353   1.412   6.240  15.341  1.0903  0.7759  1.5264
17646TIP3    H274354   1.396   6.388  15.310  1.0953  0.6003  0.6550
17647TIP3   OH274355   6.000   2.980   2.458 -0.0993  0.3732  0.1123
17647TIP3    H174356   5.907   2.971   2.479  0.4042 -0.8190  2.0514
17647TIP3    H274357   6.040   3.016   2.537  1.4574 -1.5689  0.3070
17648TIP3   OH274358   4.298   0.889  11.781 -0.2468 -0.1570  0.0109
17648TIP3    H174359   4.309   0.896  11.876  0.5302  1.1396 -0.1523
17648TIP3    H274360   4.207   0.864  11.769 -0.2179 -0.8885  1.1076
17649TIP3   OH274361   0.536   2.267  13.102  0.4354 -0.1644  0.6138
17649TIP3    H174362   0.622   2.241  13.135  1.2590  0.2868 -1.0445
17649TIP3    H274363   0.538   2.363  13.104 -0.6214 -0.1410  1.9352
17650TIP3   OH274364   5.006   5.322  14.733 -0.2869 -0.6099 -0.2365
17650TIP3    H174365   4.913   5.297  14.734 -0.9086  1.4810  0.4810
17650TIP3    H274366   5.026   5.337  14.641 -1.1984  0.5663 -0.2760
17651TIP3   OH274367   1.053   3.120  10.889 -0.4701 -0.2388 -0.0251
17651TIP3    H174368   1.103   3.108  10.808  1.7951 -0.1399  1.2780
17651TIP3    H274369   1.114   3.097  10.958 -1.7613  1.4240  1.7709
17652TIP3   OH274370   3.582   5.356   0.212  0.6030 -0.4326 -0.0087
17652TIP3    H174371   3.653   5.292   0.210  1.2195  0.2463 -0.1486
17652TIP3    H274372   3.581   5.387   0.303  0.9207  0.0329 -0.1617
17653TIP3   OH274373   6.464   3.729   1.651 -0.3268  0.2375 -0.3730
17653TIP3    H174374   6.382   3.680   1.651 -0.4692  0.4593  0.8442
17653TIP3    H274375   6.490   3.734   1.743  0.9111  0.4192 -0.7103
17654TIP3   OH274376   0.727   5.102   0.020  0.6165  0.3746 -0.2913
17654TIP3    H174377   0.663   5.171   0.034  0.3891 -0.0844  1.1122
17654TIP3    H274378   0.681   5.021   0.042  1.0621 -0.1763 -1.2886
17655TIP3   OH274379   4.417   5.901   0.305 -0.2443 -0.3165  0.2637
17655TIP3    H174380   4.416   5.926   0.213  0.1400 -2.2567 -0.3160
17655TIP3    H274381   4.490   5.951   0.343 -0.9955  1.2174 -0.2212
17656TIP3   OH274382   5.018   3.134   0.975 -0.4511 -0.6432  0.4203
17656TIP3    H174383   5.038   3.047   0.940  0.0773 -0.5650  0.5250
17656TIP3    H274384   4.943   3.120   1.033 -1.8563 -0.6643 -1.3015
17657TIP3   OH274385   6.418   6.187  16.927  0.4279  0.6014  0.0400
17657TIP3    H174386   6.414   6.115  16.864  0.7110  1.6231 -1.2059
17657TIP3    H274387   6.373   6.259  16.883 -1.1732  0.7759  1.8714
17658TIP3   OH274388   4.996   3.391  15.121  0.4335  0.2065 -0.3152
17658TIP3    H174389   5.035   3.478  15.129  0.8573 -0.1273  2.2034
17658TIP3    H274390   5.007   3.352  15.208  0.9465 -2.6647 -1.5536
17659TIP3   OH274391   5.983   0.208  14.102 -0.1459  0.1824 -0.1202
17659TIP3    H174392   6.042   0.276  14.133  0.8033 -0.7552  0.1674
17659TIP3    H274393   5.966   0.231  14.011 -0.3812  1.1704  0.1587
17660TIP3   OH274394   5.530   5.166   1.316 -0.2208  0.0682 -0.2994
17660TIP3    H174395   5.535   5.253   1.355  0.3158 -0.7212  1.5331
17660TIP3    H274396   5.621   5.142   1.300 -0.2126 -0.8548  0.9578
17661TIP3   OH274397   4.078   0.294   4.229  0.0077  0.0622 -0.0265
17661TIP3    H174398   4.159   0.338   4.203  0.3340  0.6687  1.8213
17661TIP3    H274399   4.008   0.350   4.194  0.3914  0.2642 -0.4821
17662TIP3   OH274400   0.360   3.060   4.364 -0.1842  0.0709  0.0103
17662TIP3    H174401   0.279   3.111   4.359 -0.5432 -0.1853  2.0750
17662TIP3    H274402   0.355   3.017   4.450  1.9663 -0.2511  0.0216
17663TIP3   OH274403   4.335   6.208  11.559 -0.0590  0.1016  0.0763
17663TIP3    H174404   4.301   6.297  11.547 -0.7937 -0.0331  0.9865
17663TIP3    H274405   4.369   6.183  11.473 -2.5359  0.1658 -1.0240
17664TIP3   OH274406   4.617   6.327  11.142  0.0582  0.2480 -0.0069
17664TIP3    H174407   4.602   6.347  11.050  2.6906 -0.7429 -0.7579
17664TIP3    H274408   4.702   6.366  11.162  0.9321 -2.0051  1.1138
17665TIP3   OH274409   1.589   0.452  11.054 -0.6862 -0.0441 -0.6922
17665TIP3    H174410   1.551   0.397  10.986 -1.6891  0.2484 -0.3770
17665TIP3    H274411   1.535   0.531  11.055  1.1021  1.2809 -1.5798
17666TIP3   OH274412   6.551   5.569  13.710 -0.0325 -0.9522 -0.2374
17666TIP3    H174413   6.581   5.596  13.797 -0.6618 -3.0733  0.7198
17666TIP3    H274414   6.631   5.557  13.659  0.5039 -1.9183  0.7933
17667TIP3   OH274415   3.105   3.844  13.514 -0.2844 -0.0985  0.1412
17667TIP3    H174416   3.032   3.821  13.572  1.7699 -1.7661  2.2378
17667TIP3    H274417   3.124   3.763  13.467  0.8368  0.0193  0.3779
17668TIP3   OH274418   1.919   0.029  13.511 -0.7352 -0.4291 -0.4197
17668TIP3    H174419   1.890   0.113  13.475  0.5471  0.2467  0.0463
17668TIP3    H274420   1.889  -0.036  13.447 -0.6353  0.5079 -1.4482
17669TIP3   OH274421   5.122   3.358  13.219 -0.3906  0.1540 -0.6011
17669TIP3    H174422   5.154   3.448  13.230  1.3913 -0.4642 -0.3992
17669TIP3    H274423   5.027   3.368  13.206 -0.3040  2.0205 -0.1457
17670TIP3   OH274424   2.670   5.405  12.023 -0.5834  0.1849 -0.2466
17670TIP3    H174425   2.689   5.498  12.018 -0.5224  0.1426 -0.8856
17670TIP3    H274426   2.574   5.400  12.024 -0.5840  0.2998  0.8521
17671TIP3   OH274427   3.773   1.094  16.396  0.1626 -0.1073  0.2781
17671TIP3    H174428   3.854   1.140  16.414  0.4662 -0.7237  0.5037
17671TIP3    H274429   3.798   1.023  16.337 -0.0775 -0.7310  0.9054
17672TIP3   OH274430   3.220   3.491  12.648  0.4212  0.1803  0.7105
17672TIP3    H174431   3.183   3.454  12.728  0.0418  1.5107  1.1685
17672TIP3    H274432   3.202   3.584  12.654  2.1214  0.5854 -0.0082
17673TIP3   OH274433   4.243   1.676   3.205 -0.1703 -0.0235  0.0538
17673TIP3    H174434   4.274   1.723   3.282 -0.7686 -0.2146  0.4184
17673TIP3    H274435   4.292   1.594   3.206  1.6731  0.9945 -1.1829
17674TIP3   OH274436   6.011   4.953   1.164 -0.2214  0.3160 -0.1844
17674TIP3    H174437   5.977   4.865   1.177 -2.0693  1.0980  0.6565
17674TIP3    H274438   6.094   4.954   1.212 -0.2881 -0.8937 -0.0185
17675TIP3   OH274439   2.700   5.541   2.180  0.4712 -0.0642 -0.2735
17675TIP3    H174440   2.712   5.493   2.262 -0.9200  2.9849  1.8956
17675TIP3    H274441   2.786   5.540   2.139  1.8891  0.3857  2.4698
17676TIP3   OH274442   0.357   4.196  16.961 -0.0329 -0.1727 -0.2078
17676TIP3    H174443   0.285   4.242  16.917  1.2292  1.6493 -0.5053
17676TIP3    H274444   0.426   4.190  16.895 -0.3268 -3.1956 -0.3867
17677TIP3   OH274445   0.564   4.860   1.035 -0.1172 -0.0262 -0.4296
17677TIP3    H174446   0.471   4.880   1.042 -0.1525  0.0303 -0.9948
17677TIP3    H274447   0.604   4.939   0.999  0.2870  0.2474  0.5807
17678TIP3   OH274448   6.074   4.381   2.513 -0.3115 -0.1601 -0.1908
17678TIP3    H174449   6.109   4.384   2.424 -1.5611  0.2213 -0.6957
17678TIP3    H274450   6.049   4.471   2.532  0.1914 -0.1879  0.6652
17679TIP3   OH274451   5.779   6.366   5.257 -0.5226  0.5058 -0.1109
17679TIP3    H174452   5.773   6.320   5.173  0.8250  1.5680 -0.8216
17679TIP3    H274453   5.690   6.396   5.274 -0.4560  2.2837 -2.3626
17680TIP3   OH274454   1.785   0.719  16.243  0.0003  0.0277 -0.2497
17680TIP3    H174455   1.876   0.693  16.230  0.2748  0.9470 -0.2833
17680TIP3    H274456   1.779   0.736  16.337  0.3869  1.7034 -0.4778
17681TIP3   OH274457   4.165   1.461  13.292  0.2286  0.5613 -0.1242
17681TIP3    H174458   4.162   1.535  13.353  1.5448  1.7089 -1.3734
17681TIP3    H274459   4.138   1.499  13.208  1.3588 -0.2749 -0.8758
17682TIP3   OH274460   1.076   6.237  16.723  0.2640 -0.1400 -0.4297
17682TIP3    H174461   1.021   6.315  16.724 -0.8638 -0.8983  1.3604
17682TIP3    H274462   1.016   6.164  16.739  1.4511 -1.2514 -0.8188
17683TIP3   OH274463   5.777   3.133   3.034 -0.4685  0.1223  0.2858
17683TIP3    H174464   5.855   3.166   2.989 -0.7494  1.0001  0.4450
17683TIP3    H274465   5.739   3.071   2.971  0.6573 -0.7635  0.4302
17684TIP3   OH274466   5.813   5.204   0.285 -0.3918  0.4663 -0.5784
17684TIP3    H174467   5.754   5.259   0.233 -1.2712 -0.0098 -0.1215
17684TIP3    H274468   5.778   5.115   0.275  0.1380  0.2000 -0.1450
17685TIP3   OH274469   0.116   5.182  11.820 -0.5203  0.4687 -0.3322
17685TIP3    H174470   0.139   5.125  11.893  0.9660  0.3008 -0.9187
17685TIP3    H274471   0.106   5.269  11.861  0.4718  0.4114  0.0529
17686TIP3   OH274472   1.608   1.793   0.121  0.3655  0.1443 -0.0942
17686TIP3    H174473   1.649   1.731   0.062 -1.5789  0.3146 -1.7423
17686TIP3    H274474   1.557   1.739   0.181  0.5728  0.0671  0.0151
17687TIP3   OH274475   6.330   3.858   1.391 -0.3365 -0.3190 -0.2374
17687TIP3    H174476   6.266   3.814   1.447 -2.1728 -0.7053 -2.4729
17687TIP3    H274477   6.415   3.840   1.431 -1.3306 -2.9147  0.8814
17688TIP3   OH274478   2.800   2.201   1.615  0.8288  0.2341 -0.4395
17688TIP3    H174479   2.870   2.253   1.576  0.3914  0.7415 -0.5653
17688TIP3    H274480   2.723   2.220   1.561  0.5252 -0.0875 -0.1261
17689TIP3   OH274481   1.309   1.739   0.462  0.1338 -0.3673 -0.1278
17689TIP3    H174482   1.352   1.824   0.477 -2.7339  0.8992  1.8172
17689TIP3    H274483   1.225   1.746   0.508  0.4150 -4.8815  1.6413
17690TIP3   OH274484   2.231   5.949  13.475  0.0648 -0.2863  0.3302
17690TIP3    H174485   2.271   6.012  13.415 -0.5892 -1.0494 -0.9467
17690TIP3    H274486   2.301   5.928  13.537  0.3430  1.5541  0.6989
17691TIP3   OH274487   5.929   4.499   5.270 -0.1787  0.1004  0.2123
17691TIP3    H174488   5.929   4.584   5.315 -0.0342  0.6568 -0.7959
17691TIP3    H274489   5.878   4.442   5.327  1.3311  0.3066  1.9049
17692TIP3   OH274490   3.219   0.365  12.202 -0.1525 -0.0326  0.5500
17692TIP3    H174491   3.268   0.339  12.124  0.3740  0.7861  0.6027
17692TIP3    H274492   3.280   0.418  12.253 -0.5617 -0.3722  1.4235
17693TIP3   OH274493   6.139   2.504  12.696 -0.0542  0.0701 -0.3433
17693TIP3    H174494   6.139   2.408  12.704  2.2304  0.1087  1.0052
17693TIP3    H274495   6.229   2.529  12.717 -0.8541  2.6118  0.3062
17694TIP3   OH274496   2.616   1.259   5.134 -0.2711 -0.0920  0.1925
17694TIP3    H174497   2.660   1.262   5.049 -0.0766 -0.8490  0.2538
17694TIP3    H274498   2.677   1.302   5.194 -0.1835  0.0019  0.0350
17695TIP3   OH274499   1.484   3.630   0.495 -0.1238  0.1993  0.4774
17695TIP3    H174500   1.418   3.599   0.557 -1.8211 -0.1948 -1.4225
17695TIP3    H274501   1.482   3.725   0.504  1.8114  0.1137  3.0543
17696TIP3   OH274502   4.660   3.396   2.825  0.1730 -0.4409 -0.7520
17696TIP3    H174503   4.601   3.339   2.874 -2.1655  0.3221 -2.4949
17696TIP3    H274504   4.713   3.336   2.773  1.7320 -1.1888  1.5606
17697TIP3   OH274505   2.179   4.386   1.599 -0.0399 -0.0204 -0.7058
17697TIP3    H174506   2.110   4.443   1.633 -0.8802 -0.1387 -2.1265
17697TIP3    H274507   2.254   4.444   1.586  0.1650  0.1112  0.8525
17698TIP3   OH274508   4.911   3.191   0.065  0.5227  0.6645  0.4253
17698TIP3    H174509   4.834   3.233   0.025  0.1898  0.2187  0.5915
17698TIP3    H274510   4.895   3.195   0.159 -0.4524 -1.5241  0.4149
17699TIP3   OH274511   0.300   5.661  14.316  0.4991  0.0907  0.1608
17699TIP3    H174512   0.263   5.740  14.355  1.0097  0.6288 -0.4333
17699TIP3    H274513   0.393   5.663  14.339  0.4192 -0.6219  0.5987
17700TIP3   OH274514   2.424   4.562  12.768  0.1216  0.5868  0.1462
17700TIP3    H174515   2.412   4.557  12.673  0.2746 -0.1764  0.1588
17700TIP3    H274516   2.455   4.651  12.783  1.6392  0.2423 -0.7152
17701TIP3   OH274517   3.494   1.164   0.887  0.4351 -0.3838 -0.5160
17701TIP3    H174518   3.478   1.255   0.862 -1.0077 -0.8070 -1.2494
17701TIP3    H274519   3.584   1.163   0.919  1.0327  0.9821 -2.0373
17702TIP3   OH274520   2.075   3.095   3.170 -0.2343 -0.2626  0.0087
17702TIP3    H174521   1.997   3.135   3.132 -0.0104 -0.9527 -1.2024
17702TIP3    H274522   2.148   3.143   3.130  0.0329 -1.7250 -1.3095
17703TIP3   OH274523   1.799   0.429   5.334  0.2870  0.0184 -0.0403
17703TIP3    H174524   1.732   0.491   5.305  1.2203  0.7158 -0.7705
17703TIP3    H274525   1.825   0.382   5.254  0.9857  0.0758  0.1446
17704TIP3   OH274526   1.442   5.429   2.782  0.2468  0.1175 -0.1209
17704TIP3    H174527   1.521   5.379   2.764  1.5072  1.4272  1.4675
17704TIP3    H274528   1.396   5.433   2.698  0.8976 -2.2181 -0.6710
17705TIP3   OH274529   2.918   5.285  16.718  0.0880 -0.0635  0.2322
17705TIP3    H174530   2.864   5.348  16.672 -0.7253  0.4515  1.8038
17705TIP3    H274531   2.863   5.255  16.791  1.7551  0.2071  1.6697
17706TIP3   OH274532   4.542   6.582  13.135 -0.9349 -0.2264  0.1488
17706TIP3    H174533   4.595   6.554  13.060  0.6159  1.3936  0.5707
17706TIP3    H274534   4.535   6.504  13.190  1.2008 -0.4661  0.1445
17707TIP3   OH274535   0.811   3.671  12.095 -0.1207 -0.3799 -0.0210
17707TIP3    H174536   0.739   3.705  12.149  0.2257  0.7260 -0.2341
17707TIP3    H274537   0.810   3.725  12.016  0.5298 -0.7875 -0.3156
17708TIP3   OH274538   0.407   0.220  11.337 -0.1085  0.3414 -0.6078
17708TIP3    H174539   0.454   0.235  11.255 -1.6906  2.9293 -1.1714
17708TIP3    H274540   0.315   0.237  11.315 -0.6578  0.4208  1.5442
17709TIP3   OH274541   2.004   3.488  12.390 -0.6954  0.4833 -0.2263
17709TIP3    H174542   1.936   3.539  12.435  1.2037  2.0794  1.0253
17709TIP3    H274543   2.017   3.411  12.446 -1.3789  0.2203 -0.4189
17710TIP3   OH274544   5.528   4.717   4.927  0.2834 -0.0588 -0.5049
17710TIP3    H174545   5.450   4.706   4.873  0.1127 -1.7854  0.0080
17710TIP3    H274546   5.501   4.774   4.998 -0.5468 -0.6635 -0.3229
17711TIP3   OH274547   2.601   3.904  10.955  0.1369 -0.5336  0.0724
17711TIP3    H174548   2.642   3.976  10.907 -1.5324 -0.3820 -1.2319
17711TIP3    H274549   2.572   3.844  10.887 -1.0932 -0.9970  0.9760
17712TIP3   OH274550   0.152   6.047  15.939 -0.6871 -0.1158 -0.1292
17712TIP3    H174551   0.130   6.119  15.880 -2.3957  1.0483  1.7981
17712TIP3    H274552   0.109   5.970  15.900 -0.4717  0.2902 -1.1979
17713TIP3   OH274553   6.380   2.423  15.423 -0.4158 -0.4535  0.0354
17713TIP3    H174554   6.411   2.412  15.333  0.5960 -0.7110  0.3973
17713TIP3    H274555   6.326   2.346  15.440  0.3771 -1.0252  0.0334
17714TIP3   OH274556   2.311   4.065   3.773 -0.4780 -0.3014 -0.5508
17714TIP3    H174557   2.246   4.023   3.828  0.0541 -2.3667 -1.4022
17714TIP3    H274558   2.277   4.153   3.757 -2.9140 -1.2198 -0.7455
17715TIP3   OH274559   0.532   5.904  11.353 -0.1309  0.0904 -0.6081
17715TIP3    H174560   0.568   5.992  11.340 -1.0486  0.1995 -2.7601
17715TIP3    H274561   0.603   5.856  11.397  0.3009  1.9180  0.8154
17716TIP3   OH274562   2.153   6.637   1.603 -0.1499  0.0883  0.1217
17716TIP3    H174563   2.148   6.620   1.509  1.9298 -0.9436  0.1376
17716TIP3    H274564   2.226   6.583   1.633 -0.2555  1.0136  2.2054
17717TIP3   OH274565   3.524   4.637  14.845 -0.4004  0.1964 -0.1418
17717TIP3    H174566   3.461   4.636  14.917 -1.1349 -0.5280 -0.7813
17717TIP3    H274567   3.541   4.730  14.830 -2.6179  0.5262 -1.0407
17718TIP3   OH274568   1.108   4.832   5.202 -0.8841 -0.3347  0.5791
17718TIP3    H174569   1.162   4.872   5.271 -0.7898  0.5491 -0.0012
17718TIP3    H274570   1.068   4.905   5.157 -0.5129 -0.8712 -0.6673
17719TIP3   OH274571   4.391   6.393   2.994 -0.0333  0.0275 -0.5662
17719TIP3    H174572   4.480   6.428   3.000 -0.4908  1.1928 -0.2223
17719TIP3    H274573   4.370   6.395   2.900 -0.0122  0.6120 -0.5625
17720TIP3   OH274574   5.123   4.424   6.406 -0.2548 -0.1529 -0.1936
17720TIP3    H174575   5.045   4.410   6.353 -0.0397 -2.0832 -0.0747
17720TIP3    H274576   5.101   4.499   6.462 -1.7525 -0.2229 -0.6392
17721TIP3   OH274577   3.937   0.696  11.820  0.4458  0.4037  0.1658
17721TIP3    H174578   3.949   0.757  11.748  4.1396 -0.5913 -0.2593
17721TIP3    H274579   3.985   0.617  11.794 -1.6716 -1.6328  1.9332
17722TIP3   OH274580   4.315   3.868  11.491 -0.5879 -0.0049 -0.8436
17722TIP3    H174581   4.400   3.903  11.464  0.4041 -1.2602  0.4792
17722TIP3    H274582   4.274   3.838  11.411  0.5278 -0.0245 -1.4245
17723TIP3   OH274583   5.259   0.015  16.349 -0.0043  0.2159  0.8285
17723TIP3    H174584   5.293  -0.021  16.431  0.9520 -1.7331 -0.3641
17723TIP3    H274585   5.320  -0.015  16.282 -0.5931  2.0088 -0.6106
17724TIP3   OH274586   1.353   4.568   4.640  0.1723 -0.3462  0.0783
17724TIP3    H174587   1.431   4.599   4.685  0.1442 -0.2924  0.0891
17724TIP3    H274588   1.281   4.618   4.679  0.1221 -0.4568  0.1287
17725TIP3   OH274589   5.058   0.273   0.786 -0.1174  0.4304  0.4415
17725TIP3    H174590   5.125   0.318   0.735  0.9756 -0.4479  1.0486
17725TIP3    H274591   4.997   0.342   0.813  0.0623  1.1124 -0.8381
17726TIP3   OH274592   6.787   1.585  14.711 -0.3249 -0.2744 -0.1837
17726TIP3    H174593   6.807   1.535  14.632  0.2147  2.5326 -1.9446
17726TIP3    H274594   6.845   1.661  14.708  0.5287 -0.5698  3.5532
17727TIP3   OH274595   4.714   4.221   1.437  0.1289 -0.2151 -1.0874
17727TIP3    H174596   4.664   4.292   1.397  0.7936 -0.5096 -2.4839
17727TIP3    H274597   4.662   4.142   1.418 -1.4742 -0.0416  1.8453
17728TIP3   OH274598   5.701   6.781   3.000  0.1328  0.0307 -0.0016
17728TIP3    H174599   5.714   6.753   3.091 -1.8774 -2.5697 -0.4059
17728TIP3    H274600   5.624   6.732   2.970 -0.4429  2.2544 -2.5498
17729TIP3   OH274601   4.559   3.336   5.228  0.5618 -0.1542 -0.1264
17729TIP3    H174602   4.541   3.281   5.152 -1.5717 -0.1416  0.3208
17729TIP3    H274603   4.548   3.426   5.196 -2.0119 -0.1683  0.4892
17730TIP3   OH274604   5.368   3.800   1.673 -0.1962  0.2609 -0.2947
17730TIP3    H174605   5.317   3.724   1.701 -2.1651  2.0017  1.1366
17730TIP3    H274606   5.439   3.763   1.620 -1.5261 -2.4777 -0.3288
17731TIP3   OH274607   0.474   3.946  15.895  0.6460  0.4274 -0.4837
17731TIP3    H174608   0.533   3.896  15.951  1.1596  2.8682  1.3351
17731TIP3    H274609   0.525   4.022  15.867 -0.7287  1.1031 -1.3056
17732TIP3   OH274610   2.284   1.576  12.057 -0.9272 -0.2922 -0.1006
17732TIP3    H174611   2.262   1.668  12.068 -1.3149 -0.1322 -1.9063
17732TIP3    H274612   2.306   1.567  11.964  1.4811 -1.5470  0.5043
17733TIP3   OH274613   3.337   0.875  10.524 -0.5785  0.2748 -0.7321
17733TIP3    H174614   3.371   0.802  10.472 -1.7879  1.2947 -3.1003
17733TIP3    H274615   3.398   0.947  10.506  0.6776 -0.0896  1.6810
17734TIP3   OH274616   2.090   1.072  13.122 -0.1130  0.3443  0.1571
17734TIP3    H174617   2.096   1.134  13.194  1.3324  1.7655 -1.1014
17734TIP3    H274618   2.041   0.998  13.157  0.3973  1.0602  2.5148
17735TIP3   OH274619   1.985   0.488   4.458 -0.1353  0.5886  0.2439
17735TIP3    H174620   1.895   0.514   4.474  0.7435  4.8499 -0.4597
17735TIP3    H274621   1.982   0.440   4.375 -1.8152  0.0076  0.6209
17736TIP3   OH274622   5.347   6.479   1.997  0.2397  0.0990  0.2826
17736TIP3    H174623   5.293   6.445   1.926  1.7178 -1.2202 -0.2532
17736TIP3    H274624   5.419   6.417   2.004  0.8899  0.9991  1.9848
17737TIP3   OH274625   4.962   2.396  11.745 -0.0982  0.2155  0.0115
17737TIP3    H174626   4.949   2.301  11.738  1.5952 -0.0450 -0.0214
17737TIP3    H274627   4.985   2.424  11.656 -0.6910  0.6837 -0.0001
17738TIP3   OH274628   5.707   0.151   5.524 -0.2586 -0.5492 -0.3469
17738TIP3    H174629   5.794   0.182   5.548 -0.9591  0.4096  1.0607
17738TIP3    H274630   5.720   0.059   5.500  1.0547 -0.5553  0.3148
17739TIP3   OH274631   0.054   4.687  16.815 -0.5547 -0.4945  0.0758
17739TIP3    H174632   0.055   4.650  16.904  0.5756 -1.0457 -0.1425
17739TIP3    H274633   0.002   4.625  16.764 -0.3075 -0.7516  0.1314
17740TIP3   OH274634   1.293   0.947  11.290 -0.4482  0.6797 -0.2568
17740TIP3    H174635   1.363   0.939  11.225 -1.0624 -0.3416 -0.8289
17740TIP3    H274636   1.338   0.941  11.374  0.3811  2.1567 -0.5546
17741TIP3   OH274637   0.813   0.446   2.604 -0.5092  0.0503  0.1073
17741TIP3    H174638   0.847   0.443   2.514 -0.7465 -1.2290  0.0449
17741TIP3    H274639   0.874   0.504   2.650 -0.2707  0.5727 -0.8256
17742TIP3   OH274640   6.458   3.261   1.226  0.1764  1.0617 -0.5223
17742TIP3    H174641   6.505   3.329   1.274 -0.6072  0.8750  0.5400
17742TIP3    H274642   6.526   3.196   1.205  0.8206  1.8911 -1.0590
17743TIP3   OH274643   5.246   3.371  12.708  0.5281  0.0248 -0.3433
17743TIP3    H174644   5.283   3.371  12.796  0.7486  0.2343 -0.4319
17743TIP3    H274645   5.254   3.462  12.679 -1.6015  0.4457  0.2717
17744TIP3   OH274646   4.498   4.855  13.713  0.0923 -0.0091 -0.2695
17744TIP3    H174647   4.548   4.829  13.791  1.1424  2.5705  0.0463
17744TIP3    H274648   4.420   4.800  13.715  1.0351 -1.4138  1.4825
17745TIP3   OH274649   0.297   0.518  14.727  0.1145 -0.0074  0.3111
17745TIP3    H174650   0.215   0.495  14.770  1.2593 -0.3057  2.4888
17745TIP3    H274651   0.311   0.610  14.749  0.3153  0.0662 -0.1208
17746TIP3   OH274652   4.883   4.840   1.996 -0.3186  0.1451 -0.5188
17746TIP3    H174653   4.843   4.875   1.917 -0.2555  1.5503  0.0427
17746TIP3    H274654   4.810   4.825   2.056 -0.2600  0.2862 -0.4088
17747TIP3   OH274655   4.048   5.351  10.790  0.5045 -0.4366 -0.1171
17747TIP3    H174656   4.141   5.351  10.771  0.5058  0.5010 -0.1743
17747TIP3    H274657   4.017   5.436  10.758 -0.4023 -0.8052 -0.2593
17748TIP3   OH274658   0.167   3.813   2.654 -0.1792  0.2846  0.2571
17748TIP3    H174659   0.211   3.823   2.569 -1.5823  1.1649 -0.4212
17748TIP3    H274660   0.153   3.903   2.683 -0.9399  0.0086  0.7561
17749TIP3   OH274661   4.359   2.370  16.378 -0.0617 -0.3210 -0.1062
17749TIP3    H174662   4.371   2.312  16.303  0.1634 -1.1627  0.5659
17749TIP3    H274663   4.288   2.329  16.428 -0.1387  0.1790  0.1970
17750TIP3   OH274664   1.454   1.656  13.424 -0.0376  0.0435 -0.0074
17750TIP3    H174665   1.438   1.562  13.421 -0.9653  0.1789  0.3696
17750TIP3    H274666   1.549   1.664  13.432 -0.0411 -0.8846  1.1111
17751TIP3   OH274667   5.515   5.717   1.445 -0.1069  0.2442 -0.7374
17751TIP3    H174668   5.464   5.744   1.368 -0.1813 -0.6880 -1.0233
17751TIP3    H274669   5.605   5.743   1.424 -0.2016  0.4169 -0.9341
17752TIP3   OH274670   3.937   2.743  11.852 -0.1673  0.5328 -0.3880
17752TIP3    H174671   4.015   2.784  11.889 -0.5997  1.0886 -0.0755
17752TIP3    H274672   3.920   2.667  11.907 -0.1707  0.7341 -0.1115
17753TIP3   OH274673   3.046   0.891   5.019 -0.1562 -0.7583  0.0703
17753TIP3    H174674   3.104   0.828   5.062  0.1648 -0.4698  0.0666
17753TIP3    H274675   3.026   0.956   5.087 -1.9386 -1.8045  0.6193
17754TIP3   OH274676   4.349   5.188   1.231  0.3291  0.0141 -0.2849
17754TIP3    H174677   4.346   5.271   1.184 -1.1986 -0.6678 -1.4922
17754TIP3    H274678   4.279   5.195   1.296  1.3993  0.3416  0.8747
17755TIP3   OH274679   3.008   0.960  11.553 -0.3581 -0.1129  0.3336
17755TIP3    H174680   3.029   1.041  11.601  0.3858  0.7457 -1.3516
17755TIP3    H274681   3.015   0.985  11.461  0.1398 -2.1737 -0.2268
17756TIP3   OH274682   1.089   6.011   1.979  0.4960  0.6264  1.1780
17756TIP3    H174683   1.129   6.076   1.921  3.5425 -0.6407  1.6429
17756TIP3    H274684   1.075   5.935   1.923 -0.0987  0.6301  1.3149
17757TIP3   OH274685   2.495   4.535   5.518 -0.0158 -0.5408  0.1691
17757TIP3    H174686   2.556   4.590   5.567 -0.8424 -0.0209  0.6545
17757TIP3    H274687   2.467   4.589   5.444 -0.3499 -0.5416  0.2923
17758TIP3   OH274688   1.838   3.126   5.736  0.3877 -0.9586  0.2452
17758TIP3    H174689   1.743   3.121   5.724  0.2862 -1.5499  1.2610
17758TIP3    H274690   1.856   3.072   5.812  1.4695 -0.3256  0.4596
17759TIP3   OH274691   3.891   2.305  15.586  0.3036  0.1387 -0.1915
17759TIP3    H174692   3.871   2.214  15.609 -1.2416  0.8056  1.3475
17759TIP3    H274693   3.808   2.351  15.599  0.7905  1.6172 -1.9422
17760TIP3   OH274694   1.892   3.614  15.111 -0.8220 -0.2222 -0.0369
17760TIP3    H174695   1.850   3.595  15.026 -1.6813 -0.1635  0.3615
17760TIP3    H274696   1.916   3.706  15.105 -0.5796 -0.3023 -0.3411
17761TIP3   OH274697   2.224   3.934  11.324 -0.5527  0.0800  0.1861
17761TIP3    H174698   2.290   3.971  11.383 -0.3983  0.0623  0.0261
17761TIP3    H274699   2.232   3.840  11.334 -0.9076  0.0862  0.5514
17762TIP3   OH274700   5.707   2.187  15.966  0.0609 -0.3650  0.1358
17762TIP3    H174701   5.764   2.117  15.936  0.4506  0.5398 -1.2993
17762TIP3    H274702   5.635   2.188  15.904 -0.8996 -0.6613  1.2036
17763TIP3   OH274703   5.053   4.031  13.412 -0.1535  0.8526 -0.5035
17763TIP3    H174704   4.991   4.104  13.421 -0.4551  0.7619 -1.6799
17763TIP3    H274705   5.027   3.988  13.331  1.1302  0.5006 -0.7440
17764TIP3   OH274706   2.942   3.100   5.629  0.0539  0.2950 -0.0520
17764TIP3    H174707   2.873   3.047   5.591 -0.1365  0.8538 -0.4917
17764TIP3    H274708   2.917   3.191   5.610  0.2052  0.5651  0.9682
17765TIP3   OH274709   5.035   6.539  12.684 -0.1984 -0.1660 -0.3833
17765TIP3    H174710   5.055   6.625  12.720  0.9592 -0.4003 -0.4103
17765TIP3    H274711   5.105   6.482  12.719 -0.8678 -1.0642 -0.4629
17766TIP3   OH274712   2.605   2.850  11.734 -0.0023  0.0143  0.2998
17766TIP3    H174713   2.576   2.845  11.825 -1.3194  0.1522 -0.0839
17766TIP3    H274714   2.545   2.793  11.687  0.3921  0.2829 -0.5470
17767TIP3   OH274715   2.580   2.474  14.131  0.1594 -0.0641  0.1789
17767TIP3    H174716   2.528   2.441  14.204  0.2688  0.7891  0.6438
17767TIP3    H274717   2.643   2.534  14.171  0.7220 -0.1741 -0.5233
17768TIP3   OH274718   0.998   6.749   5.020  0.0071 -0.4667  0.0661
17768TIP3    H174719   0.993   6.700   5.102 -1.3186 -0.3334  0.0932
17768TIP3    H274720   0.914   6.796   5.015 -0.2625 -1.0567 -1.7206
17769TIP3   OH274721   5.491   0.049  10.496 -0.1918  0.3820 -0.0272
17769TIP3    H174722   5.504   0.130  10.446  0.3855 -0.1741 -0.8098
17769TIP3    H274723   5.536   0.065  10.579  0.4007  0.6678 -0.3939
17770TIP3   OH274724   6.157   5.979   3.707  0.4299 -0.0535 -0.3948
17770TIP3    H174725   6.151   5.927   3.787  1.5856  2.0695  1.1694
17770TIP3    H274726   6.066   6.003   3.687  0.1937  0.0390  0.7372
17771TIP3   OH274727   2.730   4.956   5.555 -0.0245  0.4182  0.3595
17771TIP3    H174728   2.660   4.917   5.606 -0.8305  0.0700 -0.9730
17771TIP3    H274729   2.745   5.041   5.597 -4.4245  2.6465 -1.8421
17772TIP3   OH274730   4.709   5.584   0.548  0.2951  0.0347 -0.0923
17772TIP3    H174731   4.687   5.547   0.463  3.0990 -1.1957 -0.3960
17772TIP3    H274732   4.725   5.508   0.604  0.2959  0.8181  0.9913
17773TIP3   OH274733   2.920   3.365  11.454 -0.0545  0.2358 -0.1566
17773TIP3    H174734   2.925   3.281  11.407  1.3949 -0.4851  1.1668
17773TIP3    H274735   2.833   3.365  11.494  0.4127 -1.3355  0.9672
17774TIP3   OH274736   2.357   1.479   5.053  0.3330  0.3804  0.0252
17774TIP3    H174737   2.310   1.511   4.976  1.8226 -0.3597 -1.2363
17774TIP3    H274738   2.426   1.544   5.069  0.1329  0.4496  0.6568
17775TIP3   OH274739   3.221   3.462  14.409  0.1709 -0.3628 -0.3007
17775TIP3    H174740   3.152   3.492  14.468  2.4933  0.8447  2.0412
17775TIP3    H274741   3.284   3.534  14.408  1.3591 -1.3507 -2.4197
17776TIP3   OH274742   1.499   2.096   3.002 -0.0439 -0.0574  0.6766
17776TIP3    H174743   1.555   2.019   3.011 -1.2698 -0.7753  2.9288
17776TIP3    H274744   1.412   2.061   2.985 -0.5688  0.8085  1.4692
17777TIP3   OH274745   2.387   3.988  13.819 -0.4156  0.0818 -0.1588
17777TIP3    H174746   2.420   4.019  13.734 -0.0492  0.1642  0.0108
17777TIP3    H274747   2.411   3.895  13.822  0.4965  0.3161  0.2865
17778TIP3   OH274748   0.800   3.213   2.590 -0.5867  0.3675 -0.3220
17778TIP3    H174749   0.718   3.200   2.638  0.3793 -2.1324  0.8523
17778TIP3    H274750   0.848   3.131   2.602  2.1188  1.7356 -0.9110
17779TIP3   OH274751   2.723   1.876  10.917 -0.9406 -0.3111  0.5294
17779TIP3    H174752   2.654   1.904  10.858  0.2481 -0.1733 -0.8461
17779TIP3    H274753   2.804   1.890  10.868  0.0099 -1.4102  1.7064
17780TIP3   OH274754   3.749   6.751   4.730  0.4302  0.0584  0.1302
17780TIP3    H174755   3.786   6.825   4.682  1.9651 -0.1945  0.8717
17780TIP3    H274756   3.678   6.790   4.782  0.0238  0.6624 -0.8391
17781TIP3   OH274757   0.040   2.663  14.466 -0.1375  0.2651  0.2857
17781TIP3    H174758  -0.020   2.726  14.506  0.2127  0.6329  0.2436
17781TIP3    H274759   0.000   2.641  14.382 -0.4621  0.1193  0.4729
17782TIP3   OH274760   3.109   1.790   4.180 -0.3127  0.2680  0.3680
17782TIP3    H174761   3.050   1.845   4.129 -1.3201 -1.5216 -0.4855
17782TIP3    H274762   3.091   1.814   4.271 -2.3918 -0.2063  0.1328
17783TIP3   OH274763   5.876   1.400  10.602  0.4084  0.1203 -0.4418
17783TIP3    H174764   5.950   1.459  10.591  2.4673 -2.0560  0.9534
17783TIP3    H274765   5.905   1.317  10.565 -1.2713 -0.8567  0.2909
17784TIP3   OH274766   0.488   3.589  15.903  0.2722  0.2679  0.1854
17784TIP3    H174767   0.537   3.660  15.946 -0.6236  1.6759 -1.0158
17784TIP3    H274768   0.408   3.580  15.955  1.5597 -1.8176  1.9620
17785TIP3   OH274769   2.434   0.976  12.012 -0.1000  0.6960  0.3460
17785TIP3    H174770   2.401   0.998  11.924 -1.3358  1.5113  0.9855
17785TIP3    H274771   2.448   0.882  12.009 -1.2513  0.5246 -0.3850
17786TIP3   OH274772   2.740   4.656   3.281 -0.1313  0.3805 -0.1311
17786TIP3    H174773   2.760   4.600   3.356 -0.0034  1.8232  0.9275
17786TIP3    H274774   2.734   4.594   3.207  0.3426 -0.9892  0.9303
17787TIP3   OH274775   0.959   6.590   0.374  0.1106  0.0480  0.4183
17787TIP3    H174776   1.043   6.591   0.419  0.6075  0.8675 -0.4726
17787TIP3    H274777   0.914   6.668   0.407  0.6293  0.8703 -0.7028
17788TIP3   OH274778   4.117   0.796   3.342 -0.1060  0.1180  0.1476
17788TIP3    H174779   4.078   0.741   3.411  0.7411  0.9192  1.3028
17788TIP3    H274780   4.044   0.848   3.309 -0.4006  0.2462  0.9602
17789TIP3   OH274781   4.852   5.526   1.977  0.1852 -0.0093  0.3396
17789TIP3    H174782   4.912   5.542   1.904 -0.6723  0.8582 -0.1896
17789TIP3    H274783   4.771   5.571   1.953 -0.3434 -0.2795  1.5209
17790TIP3   OH274784   2.076   1.453   2.865  0.6297  0.0701  0.3004
17790TIP3    H174785   2.154   1.482   2.913  0.5175  0.0470  0.4975
17790TIP3    H274786   2.093   1.361   2.846  1.4942  0.5133 -1.3141
17791TIP3   OH274787   1.371   3.741  15.568 -0.1583  0.4130 -0.1273
17791TIP3    H174788   1.449   3.770  15.614 -0.7330  1.5012  0.1901
17791TIP3    H274789   1.367   3.797  15.490 -1.3422  1.3105  0.5469
17792TIP3   OH274790   4.951   3.894   0.872  0.1093  0.5390 -0.1235
17792TIP3    H174791   4.984   3.912   0.960 -0.6046  1.1856  0.0230
17792TIP3    H274792   5.003   3.949   0.815  0.8969 -0.2328 -0.1727
17793TIP3   OH274793   5.643   0.731   3.601  0.3526 -0.4979 -0.0832
17793TIP3    H174794   5.619   0.756   3.512 -0.8507 -0.8738  0.1091
17793TIP3    H274795   5.668   0.639   3.595 -1.7797 -1.1551  0.2654
17794TIP3   OH274796   1.786   4.251  14.159  0.1003  0.1006 -0.8427
17794TIP3    H174797   1.782   4.195  14.082  0.9372  0.5630 -1.2418
17794TIP3    H274798   1.695   4.266  14.183 -0.2152 -3.2522  0.6594
17795TIP3   OH274799   2.278   1.908  11.405  0.3115 -0.4408 -0.1440
17795TIP3    H174800   2.307   1.822  11.435  0.0889 -0.6348 -0.4646
17795TIP3    H274801   2.220   1.888  11.331  0.4281 -0.0039 -0.3540
17796TIP3   OH274802   4.236   1.037   6.434 -0.2079 -0.4364 -0.1993
17796TIP3    H174803   4.178   0.961   6.428 -1.4345  0.4108  0.3970
17796TIP3    H274804   4.228   1.066   6.525  2.9673 -1.6213  0.5888
17797TIP3   OH274805   4.260   6.024   5.177  0.5082  0.1578  0.3199
17797TIP3    H174806   4.260   5.992   5.087 -0.1699 -1.2313  0.7820
17797TIP3    H274807   4.180   6.076   5.184 -0.0062 -0.6328  0.4054
17798TIP3   OH274808   6.513   1.577  14.711  0.0079 -0.0526  0.0364
17798TIP3    H174809   6.466   1.494  14.704  0.5676 -0.4668  1.0079
17798TIP3    H274810   6.605   1.552  14.721 -0.0414  0.5485  2.7233
17799TIP3   OH274811   6.287   4.925  12.454  0.6136 -0.0265  0.3079
17799TIP3    H174812   6.322   5.011  12.480 -0.6495  0.5502  0.1511
17799TIP3    H274813   6.319   4.865  12.522  0.6615  0.7495  0.9861
17800TIP3   OH274814   6.488   4.193  10.663 -0.8482 -0.5812  0.2480
17800TIP3    H174815   6.577   4.160  10.648 -0.5047 -0.0699  1.0769
17800TIP3    H274816   6.431   4.117  10.650 -0.2176 -1.1099  0.5430
17801TIP3   OH274817   4.336   0.263   6.989 -0.7946 -0.5546  0.1394
17801TIP3    H174818   4.380   0.185   6.956 -0.5950 -0.9668  1.3262
17801TIP3    H274819   4.404   0.330   6.992 -0.8556 -0.4688 -0.4432
17802TIP3   OH274820   2.320   3.858  14.881 -0.1665  0.3377  0.0500
17802TIP3    H174821   2.373   3.929  14.843  1.8065 -1.2310 -0.3297
17802TIP3    H274822   2.353   3.849  14.970 -0.2338 -0.2300  0.0201
17803TIP3   OH274823   5.777   3.850  16.564  0.3493  0.0350 -0.2467
17803TIP3    H174824   5.712   3.801  16.615 -0.6766  1.0587 -0.5347
17803TIP3    H274825   5.751   3.838  16.473  0.6569  0.3350 -0.3755
17804TIP3   OH274826   2.982   3.644   4.531  0.4001  0.0027  0.2356
17804TIP3    H174827   2.890   3.624   4.550  0.2248  2.0656  1.8906
17804TIP3    H274828   3.029   3.563   4.553 -1.0045 -1.3051 -1.2203
17805TIP3   OH274829   0.961   4.919   2.641 -0.0157 -0.3347  0.1094
17805TIP3    H174830   0.961   4.827   2.665 -1.1230 -0.3379  0.1642
17805TIP3    H274831   1.009   4.963   2.711  0.3143 -0.8394  0.1992
17806TIP3   OH274832   4.977   1.033  13.092  0.2944  0.4475  0.0097
17806TIP3    H174833   4.941   1.111  13.134 -2.2819  0.7213 -2.3694
17806TIP3    H274834   4.987   1.057  13.000  2.7556 -1.0320 -0.1951
17807TIP3   OH274835   3.416   3.388   0.460  0.3675  0.4037 -0.5265
17807TIP3    H174836   3.428   3.478   0.490 -1.8813  0.8824 -0.8754
17807TIP3    H274837   3.500   3.365   0.421  1.9800  1.2817  2.1415
17808TIP3   OH274838   3.229   2.135  15.583 -0.1973 -0.1464  0.1662
17808TIP3    H174839   3.155   2.079  15.562 -0.2683  0.0902 -0.2157
17808TIP3    H274840   3.221   2.151  15.677 -0.3485 -0.5243  0.2189
17809TIP3   OH274841   6.400   1.327  13.378  0.2847  0.8599  0.1135
17809TIP3    H174842   6.348   1.358  13.304 -0.4869  0.0509  0.2946
17809TIP3    H274843   6.418   1.405  13.430 -2.3924  0.9303  1.0713
17810TIP3   OH274844   2.374   5.871   4.703 -0.6118  0.5187 -0.1745
17810TIP3    H174845   2.404   5.886   4.793 -0.0506 -0.0597 -0.2551
17810TIP3    H274846   2.416   5.788   4.678  1.0524  1.7566 -1.7292
17811TIP3   OH274847   5.351   4.631   6.309 -0.0532  0.2385 -0.7291
17811TIP3    H174848   5.312   4.630   6.221  0.2418 -0.5845 -0.8656
17811TIP3    H274849   5.336   4.542   6.342  1.7111 -0.1160 -0.8000
17812TIP3   OH274850   2.814   1.669   2.331  0.0830  0.0807  0.0078
17812TIP3    H174851   2.864   1.749   2.314  1.0441 -0.4588  0.2085
17812TIP3    H274852   2.848   1.638   2.415 -1.3984  0.2962  0.7131
17813TIP3   OH274853   3.020   5.863   4.287  0.3896 -0.0084 -0.0270
17813TIP3    H174854   2.989   5.932   4.346 -0.0766  0.5123 -0.8637
17813TIP3    H274855   3.000   5.895   4.199  0.2209 -1.1868 -0.4412
17814TIP3   OH274856   5.983   3.925  10.780  0.0001  0.2815 -0.6279
17814TIP3    H174857   5.967   4.019  10.790  0.1151  0.2840 -0.4579
17814TIP3    H274858   6.052   3.920  10.714  0.3574  0.3431 -0.2652
17815TIP3   OH274859   1.957   4.456   1.380  0.0528  0.2650 -0.5221
17815TIP3    H174860   1.991   4.423   1.297 -0.9342  0.6864 -1.1161
17815TIP3    H274861   1.996   4.542   1.390  1.4481 -0.4261  0.2821
17816TIP3   OH274862   0.042   0.185   1.790  0.4993  0.1066  0.0387
17816TIP3    H174863   0.077   0.216   1.707 -1.0998  0.1699 -0.6583
17816TIP3    H274864   0.015   0.095   1.772 -0.0131  0.1762  0.4342
17817TIP3   OH274865   6.584   2.428   2.229  0.1959 -0.3896  0.2094
17817TIP3    H174866   6.540   2.494   2.175 -0.6312 -0.4839  0.7585
17817TIP3    H274867   6.544   2.437   2.315 -0.3166 -1.9543  0.1667
17818TIP3   OH274868   1.818   3.867   1.162  0.1427  0.4596  0.9712
17818TIP3    H174869   1.765   3.906   1.091 -3.2648  0.2644  3.1550
17818TIP3    H274870   1.875   3.805   1.117 -2.4386 -0.2931 -1.6380
17819TIP3   OH274871   4.384   1.533   5.516 -0.7977 -0.6484  0.2251
17819TIP3    H174872   4.443   1.517   5.590 -1.3880 -0.8414  0.6581
17819TIP3    H274873   4.440   1.524   5.439  0.0048  0.3320  0.6625
17820TIP3   OH274874   6.689   5.746  14.509  0.1295  0.2780  0.3883
17820TIP3    H174875   6.755   5.804  14.548 -1.6080  2.0240  0.8740
17820TIP3    H274876   6.661   5.690  14.580  0.9272 -0.3369  0.2285
17821TIP3   OH274877   3.220   0.841   5.511  0.2451  0.3168 -0.4558
17821TIP3    H174878   3.181   0.851   5.598 -0.0299 -0.7927 -0.4380
17821TIP3    H274879   3.314   0.844   5.526  0.1938  1.5673 -0.3130
17822TIP3   OH274880   3.484   6.686   6.267  0.6551  0.6733 -0.0860
17822TIP3    H174881   3.524   6.599   6.266 -0.5089  0.0604  2.0958
17822TIP3    H274882   3.527   6.732   6.338 -0.4052  1.0339  0.3425
17823TIP3   OH274883   1.169   5.080  12.527  0.3229  0.4175 -0.4850
17823TIP3    H174884   1.261   5.105  12.520  0.5738  0.6504  2.3882
17823TIP3    H274885   1.123   5.164  12.539  0.1626  0.1196  1.1706
17824TIP3   OH274886   0.095   3.437   2.702 -0.1704 -0.0968 -0.1584
17824TIP3    H174887   0.158   3.394   2.645  1.0748 -1.0032  1.7713
17824TIP3    H274888   0.148   3.484   2.766 -1.4564 -0.1311  0.9895
17825TIP3   OH274889   0.240   0.392   0.166 -0.5766  0.2660  0.3354
17825TIP3    H174890   0.332   0.368   0.166 -0.5977 -0.0291 -1.7145
17825TIP3    H274891   0.213   0.386   0.258  1.3856  0.2232  0.9517
17826TIP3   OH274892   4.207   6.698  13.364 -0.4736  0.0081 -0.0413
17826TIP3    H174893   4.298   6.720  13.384 -0.5715 -0.2545  0.7269
17826TIP3    H274894   4.196   6.724  13.273  0.3115  0.2346 -0.0817
17827TIP3   OH274895   6.800   6.787  13.968  0.4746  0.5558 -0.4657
17827TIP3    H174896   6.777   6.880  13.970  0.3494  0.5253  1.0391
17827TIP3    H274897   6.757   6.751  14.045 -0.6526 -1.0562 -1.7838
17828TIP3   OH274898   5.113   6.376  13.157 -0.0291  0.3786  0.4929
17828TIP3    H174899   5.080   6.397  13.244  1.1590  0.0621  1.0499
17828TIP3    H274900   5.126   6.282  13.159  2.0667  0.6217  0.7757
17829TIP3   OH274901   2.249   3.592  12.933  0.5748 -0.5702  0.0709
17829TIP3    H174902   2.191   3.601  12.857  1.4473  0.9197 -0.4541
17829TIP3    H274903   2.296   3.510  12.917 -0.6165 -1.2653 -0.0024
17830TIP3   OH274904   6.451   5.152   4.455  0.3270  0.2646 -0.0220
17830TIP3    H174905   6.411   5.230   4.417 -0.1828  0.8602  1.6545
17830TIP3    H274906   6.493   5.108   4.381 -0.5554  1.3928 -1.2355
17831TIP3   OH274907   2.047   4.771  11.487  0.2022 -0.0865 -0.2841
17831TIP3    H174908   2.069   4.824  11.564 -0.3012 -0.2494 -0.0214
17831TIP3    H274909   1.955   4.791  11.470 -0.7558 -2.6036  1.2639
17832TIP3   OH274910   1.107   4.991  12.246  0.1819  0.2361  0.2156
17832TIP3    H174911   1.201   4.975  12.250  0.2699  0.9504  2.0367
17832TIP3    H274912   1.084   5.022  12.334 -2.0551 -1.5736  0.3605
17833TIP3   OH274913   4.814   4.843   4.956  0.6028  0.2735  0.4638
17833TIP3    H174914   4.872   4.767   4.967 -0.2547 -0.4215  0.3493
17833TIP3    H274915   4.867   4.918   4.982  1.9462 -0.1883 -0.8133
17834TIP3   OH274916   3.747   4.435  13.072 -0.3870 -0.2715  0.0797
17834TIP3    H174917   3.717   4.352  13.110 -1.6822  0.1437  0.0119
17834TIP3    H274918   3.836   4.418  13.044 -0.3640 -1.4113  0.7934
17835TIP3   OH274919   3.876   6.688  14.624 -0.0756 -0.0504 -0.2744
17835TIP3    H174920   3.969   6.711  14.633 -0.0114  0.3162 -1.5794
17835TIP3    H274921   3.870   6.648  14.537 -1.0888 -0.3936 -0.0648
17836TIP3   OH274922   4.481   6.305  14.478  0.0015 -0.1615 -0.1237
17836TIP3    H174923   4.423   6.233  14.502  0.9964 -0.3345  1.9703
17836TIP3    H274924   4.457   6.376  14.538  0.6186  0.4553 -0.5842
17837TIP3   OH274925   1.499   5.136  15.407  0.1703  0.1943  0.2723
17837TIP3    H174926   1.408   5.116  15.431  0.4990  1.3032  2.7362
17837TIP3    H274927   1.523   5.211  15.463  2.5167  0.1200 -0.5168
17838TIP3   OH274928   5.090   5.366   1.766  0.2069  0.0136  0.4749
17838TIP3    H174929   5.010   5.324   1.735 -0.7416  3.2446 -1.9142
17838TIP3    H274930   5.161   5.311   1.733 -0.9639 -0.4602 -1.3706
17839TIP3   OH274931   0.655   1.229   1.150 -0.3423 -0.1347 -0.7803
17839TIP3    H174932   0.684   1.164   1.086  0.2941 -2.3217  1.5150
17839TIP3    H274933   0.737   1.261   1.190 -0.7277  0.8768 -0.7814
17840TIP3   OH274934   5.007   2.391   1.211  0.3810 -0.1543 -0.2397
17840TIP3    H174935   5.013   2.466   1.271  0.9421 -0.2379 -0.1912
17840TIP3    H274936   5.094   2.352   1.212  0.3613 -0.2310 -1.0176
17841TIP3   OH274937   3.774   2.709  13.764  0.4407 -0.6716 -0.7812
17841TIP3    H174938   3.830   2.632  13.754  1.0684 -0.2691 -0.4157
17841TIP3    H274939   3.743   2.728  13.676  1.2673 -0.6164 -1.0717
17842TIP3   OH274940   2.939   4.758  11.978  0.5079  0.7298 -0.1830
17842TIP3    H174941   3.024   4.729  12.011 -0.0694 -1.5646 -0.5156
17842TIP3    H274942   2.903   4.681  11.933 -0.7109  2.3674 -2.1866
17843TIP3   OH274943   6.701   3.641   4.993  0.3152 -0.2782 -0.3092
17843TIP3    H174944   6.779   3.658   5.047  0.5844  1.5745 -1.2160
17843TIP3    H274945   6.628   3.668   5.048  0.5920  1.6420 -0.8297
17844TIP3   OH274946   4.817   5.044   1.178  0.0407 -0.0522  0.4105
17844TIP3    H174947   4.746   5.043   1.242 -0.8073 -0.2626 -0.4918
17844TIP3    H274948   4.897   5.031   1.229 -0.7545 -2.0551  1.2582
17845TIP3   OH274949   0.777   3.972   2.990 -0.0323 -0.6983 -1.2171
17845TIP3    H174950   0.683   3.978   2.972 -0.5592  0.8276  1.5031
17845TIP3    H274951   0.816   4.034   2.928 -0.9677 -0.3270 -1.4669
17846TIP3   OH274952   4.806   4.143  13.397  0.2585 -0.2159  0.0085
17846TIP3    H174953   4.765   4.058  13.410  0.3201 -0.2643 -0.1160
17846TIP3    H274954   4.773   4.173  13.312  2.8448 -1.6150 -1.6133
17847TIP3   OH274955   2.409   3.011  14.094  0.3726 -0.4011  0.6634
17847TIP3    H174956   2.377   2.974  14.012  0.2935 -1.6476  1.2311
17847TIP3    H274957   2.458   3.089  14.068  0.9749 -1.1770 -0.6423
17848TIP3   OH274958   3.068   4.023  12.530 -0.2098  0.2556 -0.0139
17848TIP3    H174959   3.100   4.052  12.615 -0.1225 -0.5935  0.2476
17848TIP3    H274960   3.138   4.045  12.469  0.5507 -0.8729  0.4330
17849TIP3   OH274961   5.910   1.631   5.782 -0.4704  0.4955 -0.3711
17849TIP3    H174962   5.955   1.690   5.843 -0.4529  1.6432 -1.4541
17849TIP3    H274963   5.971   1.559   5.769 -0.3523  0.3776  0.7299
17850TIP3   OH274964   3.628   6.788   1.644  0.3683 -0.1857  0.7454
17850TIP3    H174965   3.558   6.845   1.611 -1.2217 -2.1534  0.4734
17850TIP3    H274966   3.702   6.803   1.585 -0.1818  1.1595  0.3608
17851TIP3   OH274967   0.340   4.427  11.985 -0.4904 -0.0710 -0.4563
17851TIP3    H174968   0.433   4.452  11.984 -0.3788 -0.3734  0.7647
17851TIP3    H274969   0.341   4.333  11.967 -0.2930 -0.6733  2.2484
17852TIP3   OH274970   6.674   4.317   6.171  0.1478  0.3093  0.0280
17852TIP3    H174971   6.633   4.400   6.147 -1.3559  0.1469  1.7910
17852TIP3    H274972   6.662   4.310   6.266 -1.4705 -2.7313 -0.2453
17853TIP3   OH274973   5.911   0.473  12.450 -0.2671  0.1923 -0.4222
17853TIP3    H174974   5.987   0.528  12.432 -0.0883 -0.4816 -1.8652
17853TIP3    H274975   5.945   0.400  12.501 -0.1208  0.3642 -0.2740
17854TIP3   OH274976   1.576   2.687   0.663  0.1689  0.5794 -0.1195
17854TIP3    H174977   1.562   2.669   0.756  0.0515 -0.4448 -0.3347
17854TIP3    H274978   1.505   2.748   0.640 -0.5113 -0.0834  0.1823
17855TIP3   OH274979   1.895   3.694   3.865 -0.1419  0.1210  0.5072
17855TIP3    H174980   1.823   3.708   3.803  0.1414  3.0107  0.6805
17855TIP3    H274981   1.891   3.601   3.886 -2.2027 -0.3243 -1.4462
17856TIP3   OH274982   6.459   6.296   5.269  0.0148  0.0786 -0.1882
17856TIP3    H174983   6.427   6.302   5.178  1.3615 -2.4346 -0.9234
17856TIP3    H274984   6.470   6.387   5.296 -4.5000  1.0896 -0.9433
17857TIP3   OH274985   2.464   4.139   4.851 -0.4595 -0.2412 -0.0655
17857TIP3    H174986   2.537   4.196   4.876 -0.4554 -1.0313  1.9156
17857TIP3    H274987   2.386   4.187   4.879 -0.5129 -0.7003  0.6007
17858TIP3   OH274988   4.190   5.445  15.948  0.0783 -0.6034 -0.2840
17858TIP3    H174989   4.271   5.404  15.919 -0.8302 -0.8187 -2.7546
17858TIP3    H274990   4.209   5.539  15.947  0.2479 -0.6401 -1.0831
17859TIP3   OH274991   0.010   2.026   5.071 -0.6865 -0.4327  0.1331
17859TIP3    H174992  -0.074   2.063   5.046 -0.3826 -0.1005 -0.4189
17859TIP3    H274993   0.052   2.003   4.988 -0.1416 -0.3744  0.3859
17860TIP3   OH274994   5.839   1.199   1.084  0.2089 -1.0108  0.4965
17860TIP3    H174995   5.754   1.229   1.051  0.1077 -2.4891 -0.6753
17860TIP3    H274996   5.900   1.221   1.013  0.4061 -2.0138  0.3511
17861TIP3   OH274997   6.784   5.743  10.556 -0.0966 -0.5145 -0.3130
17861TIP3    H174998   6.873   5.711  10.560  0.4825  1.0941  1.5423
17861TIP3    H274999   6.753   5.739  10.646 -1.2871  0.5237 -0.6437
17862TIP3   OH275000   4.531   6.635   4.557  0.0506  0.0780 -0.1875
17862TIP3    H175001   4.597   6.604   4.619 -0.8631  2.1901  1.9830
17862TIP3    H275002   4.448   6.607   4.594 -0.4340 -0.6320 -1.7382
17863TIP3   OH275003   3.909   2.994  11.617  0.9721 -0.1164  0.6289
17863TIP3    H175004   3.905   2.899  11.610 -2.6640 -0.1810  1.7993
17863TIP3    H275005   3.950   3.022  11.535 -2.3594 -2.5414 -2.1654
17864TIP3   OH275006   6.636   3.794  13.491 -0.0414  0.1831 -0.0056
17864TIP3    H175007   6.577   3.721  13.471 -0.5211  0.9425 -1.4866
17864TIP3    H275008   6.716   3.774  13.442 -0.2659  0.7482 -0.6262
17865TIP3   OH275009   5.643   1.281   0.803  0.1268 -0.3815  0.1574
17865TIP3    H175010   5.703   1.319   0.740  0.7002 -0.4815  0.6280
17865TIP3    H275011   5.615   1.355   0.857  0.5127 -0.4608  0.4802
17866TIP3   OH275012   0.149   4.738  17.078 -0.8211  0.1033 -0.2015
17866TIP3    H175013   0.168   4.763  17.168 -0.0874  1.4511 -0.7034
17866TIP3    H275014   0.225   4.768  17.028 -1.3856 -0.2802 -1.3176
17867TIP3   OH275015   3.322   5.556  16.067  0.1950  0.7519  0.1397
17867TIP3    H175016   3.408   5.599  16.060  0.5287  0.2511  1.0024
17867TIP3    H275017   3.295   5.572  16.157  0.8641 -1.7735  0.8660
17868TIP3   OH275018   5.618   1.744   5.878  0.2340  0.0584 -0.6969
17868TIP3    H175019   5.621   1.806   5.805  0.8840  0.4138 -0.3726
17868TIP3    H275020   5.644   1.795   5.954 -3.8703  0.6928  0.5241
17869TIP3   OH275021   2.986   0.782   5.694  0.2424 -0.2992  0.4112
17869TIP3    H175022   2.893   0.773   5.718  0.4507 -0.6453  1.1065
17869TIP3    H275023   3.032   0.726   5.756  1.0962  1.3247  1.3076
17870TIP3   OH275024   6.629   2.431   5.528 -0.2358  0.1862 -0.0582
17870TIP3    H175025   6.681   2.356   5.501  0.1567  0.3277  0.2957
17870TIP3    H275026   6.665   2.505   5.479  0.1088  0.3414  0.4211
17871TIP3   OH275027   6.357   3.725  10.106 -0.3453 -0.3074 -0.0048
17871TIP3    H175028   6.435   3.735  10.160  1.4083  0.9190 -2.5635
17871TIP3    H275029   6.364   3.794  10.041 -2.4086 -1.5699 -1.6884
17872TIP3   OH275030   6.468   5.196  10.339 -0.5778  0.0655  0.2105
17872TIP3    H175031   6.531   5.125  10.330  1.4275  1.5915  1.3120
17872TIP3    H275032   6.389   5.164  10.297 -0.1472 -3.2378  1.6577
17873TIP3   OH275033   3.848   3.060  16.627 -0.3500 -0.2441 -0.7828
17873TIP3    H175034   3.850   3.103  16.712 -1.3348  0.6220 -1.1692
17873TIP3    H275035   3.858   3.132  16.564  1.3590 -0.9808 -1.3934
17874TIP3   OH275036   4.273   6.577  14.413  0.5394 -0.0749 -0.5616
17874TIP3    H175037   4.355   6.584  14.462  0.3140  2.2841 -0.4207
17874TIP3    H275038   4.244   6.487  14.429  3.0557 -0.9885 -0.6161
17875TIP3   OH275039   3.395   0.727  16.965  0.5714  0.4581 -0.6269
17875TIP3    H175040   3.387   0.683  17.050  0.2104  1.6316 -0.0244
17875TIP3    H275041   3.316   0.781  16.959 -0.4815 -1.1608 -2.6910
17876TIP3   OH275042   5.477   2.482  13.215  0.8021 -0.5529  0.1333
17876TIP3    H175043   5.406   2.539  13.243  0.1862 -0.0141 -2.3068
17876TIP3    H275044   5.545   2.542  13.184  0.1999 -1.0330 -2.3463
17877TIP3   OH275045   0.423   1.969   4.656 -0.8963  0.1379  0.2372
17877TIP3    H175046   0.381   2.018   4.726  0.6155  0.5708  0.8870
17877TIP3    H275047   0.469   1.897   4.700  0.5673  0.7562 -0.1946
17878TIP3   OH275048   0.703   0.171   3.811 -0.6316 -0.7986  0.0011
17878TIP3    H175049   0.779   0.180   3.753  0.1115 -1.4309  0.8532
17878TIP3    H275050   0.629   0.201   3.758  0.5265  2.4330 -0.0039
17879TIP3   OH275051   2.801   2.683   1.931 -0.1473  0.0553 -0.8328
17879TIP3    H175052   2.828   2.672   2.022 -0.9628 -1.2784 -0.7200
17879TIP3    H275053   2.774   2.595   1.903 -0.1366  0.4833 -2.2916
17880TIP3   OH275054   5.645   6.572  11.470 -0.0791 -0.5843  0.0527
17880TIP3    H175055   5.650   6.489  11.516 -0.7913 -1.6046 -1.6073
17880TIP3    H275056   5.557   6.574  11.433  0.4975  0.0983 -1.3743
17881TIP3   OH275057   0.479   1.024  12.757  0.2529  0.3170  0.4186
17881TIP3    H175058   0.405   1.031  12.817  0.1425  0.7302  0.2361
17881TIP3    H275059   0.534   0.955  12.795 -0.4141 -0.2582  0.3437
17882TIP3   OH275060   2.800   6.779  16.862 -0.5370  0.1140 -0.2413
17882TIP3    H175061   2.813   6.812  16.773  1.2368  0.0592 -0.0558
17882TIP3    H275062   2.873   6.718  16.875 -0.3098  0.7019  1.4958
17883TIP3   OH275063   3.859   5.617  14.241 -0.3461 -0.5129 -0.3000
17883TIP3    H175064   3.931   5.679  14.231 -0.6327 -0.2079 -0.5183
17883TIP3    H275065   3.781   5.666  14.214 -0.4914 -1.1855 -1.1614
17884TIP3   OH275066   3.672   0.611  11.739  0.0400  0.0113 -0.0152
17884TIP3    H175067   3.749   0.652  11.779  0.9848 -0.4304 -1.3121
17884TIP3    H275068   3.706   0.533  11.695 -1.7163 -2.2742  2.3788
17885TIP3   OH275069   2.480   3.706  14.297 -0.6758  0.5758  1.0679
17885TIP3    H175070   2.524   3.741  14.375  0.0133  0.5231  0.7029
17885TIP3    H275071   2.537   3.729  14.224 -2.2752  2.3681  0.3066
17886TIP3   OH275072   0.493   3.440   1.537 -0.1661 -0.3463  0.5111
17886TIP3    H175073   0.471   3.401   1.452 -0.3600  0.1485  0.3252
17886TIP3    H275074   0.414   3.429   1.590 -0.6189  0.7518  0.0955
17887TIP3   OH275075   1.565   6.056  14.011 -0.2980 -0.3312  0.2865
17887TIP3    H175076   1.638   6.052  14.073  0.3984 -1.0282 -0.5298
17887TIP3    H275077   1.584   5.985  13.949 -0.2488  1.1219 -1.4538
17888TIP3   OH275078   4.648   3.276  15.416  0.1041  0.4315  0.5803
17888TIP3    H175079   4.613   3.312  15.334  1.1372  0.3272  0.0808
17888TIP3    H275080   4.685   3.351  15.462  1.0283  0.2379  0.1698
17889TIP3   OH275081   4.201   4.137  12.594  0.1922  0.5431 -0.2259
17889TIP3    H175082   4.238   4.064  12.545 -2.2395  0.1736 -1.6544
17889TIP3    H275083   4.142   4.096  12.657  0.1165  1.2069  0.1443
17890TIP3   OH275084   0.652   3.505  14.396 -0.4017 -0.7356  0.2414
17890TIP3    H175085   0.694   3.475  14.477  1.4473  0.0430 -0.3742
17890TIP3    H275086   0.672   3.436  14.333 -2.2566 -1.5827  0.4983
17891TIP3   OH275087   0.579   3.464  16.570  0.0171  0.0008  0.2024
17891TIP3    H175088   0.668   3.445  16.540  0.3562  1.7847 -0.0128
17891TIP3    H275089   0.522   3.411  16.514  0.7085  2.1540 -2.7607
17892TIP3   OH275090   6.308   1.334   0.653 -0.4644  0.1127  0.2079
17892TIP3    H175091   6.236   1.385   0.691 -0.9795  0.9802 -1.8224
17892TIP3    H275092   6.378   1.397   0.639 -0.5866  0.0113 -0.9890
17893TIP3   OH275093   5.633   3.091  16.134  0.7297 -0.6087 -0.4079
17893TIP3    H175094   5.602   3.080  16.224  0.4246  0.8812 -0.3112
17893TIP3    H275095   5.615   3.006  16.093  0.1501 -1.0606  0.7180
17894TIP3   OH275096   4.172   0.762  11.420 -0.7890  0.4062 -0.1506
17894TIP3    H175097   4.154   0.678  11.378  0.5178  0.1608 -0.2492
17894TIP3    H275098   4.186   0.823  11.348  0.0919  0.2880 -0.0924
17895TIP3   OH275099   4.617   0.252  16.178  0.1525  0.7083 -0.1823
17895TIP3    H175100   4.650   0.342  16.176  0.4159  0.6154 -0.0923
17895TIP3    H275101   4.589   0.235  16.088  0.9457  0.5762 -0.4120
17896TIP3   OH275102   1.378   6.492   5.897  0.3849 -0.1041  0.0162
17896TIP3    H175103   1.330   6.569   5.928  0.2700 -0.5187  0.9118
17896TIP3    H275104   1.470   6.519   5.899  0.2794  0.3316 -0.6463
17897TIP3   OH275105   3.274   6.228  16.053 -0.5058  0.3903 -0.4612
17897TIP3    H175106   3.313   6.315  16.054  0.8577 -0.1860  1.6352
17897TIP3    H275107   3.310   6.186  15.975  0.1125  1.1347 -0.5846
17898TIP3   OH275108   3.860   4.130  11.101  0.1214 -0.0583  0.4016
17898TIP3    H175109   3.909   4.047  11.101  0.1401 -0.0468  0.4824
17898TIP3    H275110   3.818   4.132  11.015  0.5409  0.0936  0.1976
17899TIP3   OH275111   0.361   2.257  11.688 -0.5199  0.4697 -0.2743
17899TIP3    H175112   0.418   2.321  11.730 -2.7508  1.7107  1.0513
17899TIP3    H275113   0.413   2.176  11.685  0.8955  1.2253  1.8346
17900TIP3   OH275114   4.638   3.830   0.496  0.0052  0.3524  0.1302
17900TIP3    H175115   4.564   3.768   0.500  1.0305 -0.8900  0.4187
17900TIP3    H275116   4.602   3.912   0.528 -1.3574 -0.1265 -0.0919
17901TIP3   OH275117   2.179   4.707  15.509 -0.1658  0.0733  0.5812
17901TIP3    H175118   2.248   4.765  15.541 -0.7600  0.9437  0.3263
17901TIP3    H275119   2.225   4.632  15.473  0.7258  1.1349 -0.5897
17902TIP3   OH275120   1.872   1.638  15.243  0.0771  0.5081  0.3764
17902TIP3    H175121   1.805   1.598  15.188  0.1807 -0.0471  0.6520
17902TIP3    H275122   1.930   1.681  15.180  1.0393 -1.3723 -0.1096
17903TIP3   OH275123   2.079   4.826  16.594 -0.0513 -0.1142  0.4757
17903TIP3    H175124   2.127   4.819  16.676  0.4347  2.3025  0.4873
17903TIP3    H275125   2.134   4.781  16.530  1.8641  1.7454  0.6760
17904TIP3   OH275126   6.579   3.819  12.954 -0.4490  0.3683 -0.1677
17904TIP3    H175127   6.526   3.894  12.982 -0.3142 -0.2545  1.9349
17904TIP3    H275128   6.522   3.771  12.893 -1.6093  0.7367  0.5758
17905TIP3   OH275129   1.072   6.288   6.535 -0.1369 -0.2334  0.4106
17905TIP3    H175130   1.136   6.355   6.508  0.7721 -1.2293 -0.0051
17905TIP3    H275131   1.022   6.269   6.456  0.3893 -0.8604  0.2148
17906TIP3   OH275132   4.980   0.892  16.932 -0.0345 -0.7837  0.2091
17906TIP3    H175133   4.974   0.986  16.919 -0.3394 -0.9542 -0.9888
17906TIP3    H275134   4.949   0.878  17.022 -0.3748  0.2076  0.2557
17907TIP3   OH275135   5.772   3.435   4.800 -0.7894  0.3417 -0.3961
17907TIP3    H175136   5.678   3.430   4.816 -0.9614 -1.4868 -1.6380
17907TIP3    H275137   5.812   3.436   4.887 -1.9252 -0.6722  0.1699
17908TIP3   OH275138   3.055   5.424  15.749 -0.4952  0.0613 -0.0575
17908TIP3    H175139   3.116   5.383  15.688 -0.0889  0.1322  0.2987
17908TIP3    H275140   3.091   5.512  15.763 -0.8750  0.2296 -0.1237
17909TIP3   OH275141   3.391   6.100  15.820  0.6676 -0.3543 -0.0090
17909TIP3    H175142   3.328   6.030  15.802  0.2841 -0.3802  1.2782
17909TIP3    H275143   3.414   6.134  15.734 -0.9198 -0.5114 -0.5408
17910TIP3   OH275144   4.439   1.760   2.748  0.1046 -0.3860 -0.3011
17910TIP3    H175145   4.431   1.694   2.679  1.5193 -0.0563 -0.8166
17910TIP3    H275146   4.426   1.711   2.829 -1.0705 -0.8730 -0.7596
17911TIP3   OH275147   0.273   3.743   4.602  0.0804  0.6721  0.2418
17911TIP3    H175148   0.183   3.711   4.601  0.7637 -1.4222  0.5565
17911TIP3    H275149   0.284   3.786   4.517 -0.3034 -2.0121 -1.3009
17912TIP3   OH275150   5.905   5.958  14.510  0.1797 -0.3148  0.4955
17912TIP3    H175151   5.853   6.038  14.502 -0.7648 -1.1024 -2.8113
17912TIP3    H275152   5.841   5.887  14.514  1.0168 -1.0229  2.7312
17913TIP3   OH275153   1.999   4.494   2.033 -0.7157 -0.0418  0.3686
17913TIP3    H175154   2.089   4.468   2.054 -1.1560 -1.1381  0.9927
17913TIP3    H275155   1.958   4.507   2.118 -1.2080  0.2524  0.0886
17914TIP3   OH275156   3.847   0.326   5.921  0.3471  0.0362 -0.6544
17914TIP3    H175157   3.760   0.364   5.908  0.5370  0.0799 -2.0237
17914TIP3    H275158   3.858   0.321   6.016 -0.6538  1.1729 -0.4536
17915TIP3   OH275159   2.213   1.226   2.848 -0.2947 -0.4388 -0.2217
17915TIP3    H175160   2.275   1.198   2.915  0.2953  1.0445 -0.1115
17915TIP3    H275161   2.264   1.228   2.767 -0.0050  1.2689 -0.0455
17916TIP3   OH275162   0.924   2.087  16.622  0.5632 -0.2696 -0.2029
17916TIP3    H175163   0.890   1.999  16.607 -1.1161  0.4871 -1.0396
17916TIP3    H275164   0.936   2.123  16.534  0.4198  0.6433  0.1469
17917TIP3   OH275165   0.706   6.638   5.841 -0.3538 -0.0344 -0.2198
17917TIP3    H175166   0.640   6.643   5.909 -0.3419  0.5262 -0.2490
17917TIP3    H275167   0.780   6.593   5.882 -1.3273 -2.1662 -0.6503
17918TIP3   OH275168   2.841   5.701  11.995  0.0718  0.5424  0.0910
17918TIP3    H175169   2.832   5.701  11.899 -0.5816 -0.7937  0.1326
17918TIP3    H275170   2.932   5.676  12.010 -0.5609 -2.2053 -0.1899
17919TIP3   OH275171   2.167   0.234   3.566  0.4651  0.1600 -0.8085
17919TIP3    H175172   2.198   0.203   3.480  0.6265 -0.1968 -0.6244
17919TIP3    H275173   2.084   0.189   3.579  1.2803 -1.1830  0.0087
17920TIP3   OH275174   4.628   3.133  12.254 -0.0410  0.0390 -0.2278
17920TIP3    H175175   4.637   3.045  12.291 -1.9770 -1.3208 -2.7094
17920TIP3    H275176   4.670   3.127  12.168 -0.4572  1.4486 -0.5524
17921TIP3   OH275177   0.261   4.017  12.463  0.5918 -0.0060  0.1133
17921TIP3    H175178   0.327   3.952  12.486  1.1546  0.0161 -1.3362
17921TIP3    H275179   0.240   4.060  12.546 -1.1812 -3.2102  1.5064
17922TIP3   OH275180   3.290   3.778  10.884 -0.0688 -0.1915  0.3813
17922TIP3    H175181   3.361   3.838  10.905  0.9906 -1.4326  0.4200
17922TIP3    H275182   3.313   3.696  10.928 -0.6115 -1.1564 -1.0683
17923TIP3   OH275183   4.340   2.258   2.042 -0.2890 -0.4827  0.2027
17923TIP3    H175184   4.415   2.292   1.993 -0.9308  0.5978 -0.0731
17923TIP3    H275185   4.266   2.311   2.012 -1.2007 -1.6100  0.3647
17924TIP3   OH275186   4.378   3.107   0.617  0.6064 -0.5644  0.5441
17924TIP3    H175187   4.287   3.086   0.599 -0.1057  1.4313  1.4073
17924TIP3    H275188   4.421   3.110   0.532 -0.8919  1.4154 -0.2148
17925TIP3   OH275189   3.482   6.399   4.330 -0.1486 -0.7992  0.0435
17925TIP3    H175190   3.544   6.464   4.365 -1.5752  0.5391  0.1977
17925TIP3    H275191   3.484   6.412   4.235 -2.8130  1.9119  0.1873
17926TIP3   OH275192   6.509   2.247  16.576 -0.2221  0.4965 -0.0401
17926TIP3    H175193   6.424   2.220  16.542  0.2381 -0.1430 -0.7026
17926TIP3    H275194   6.558   2.165  16.587 -0.0854  0.7492  1.4470
17927TIP3   OH275195   0.225   2.604  13.673 -0.3797  0.4957 -0.2130
17927TIP3    H175196   0.270   2.583  13.591  1.4782  0.1648  0.8343
17927TIP3    H275197   0.133   2.588  13.654 -0.2243  1.9103 -2.6826
17928TIP3   OH275198   1.279   2.131   3.392  0.0929 -0.0912  0.1694
17928TIP3    H175199   1.329   2.206   3.426  0.4620  0.1313 -0.8181
17928TIP3    H275200   1.210   2.117   3.456  0.9253  0.1335  1.1474
17929TIP3   OH275201   1.129   5.196   0.769  0.0760  0.1608 -0.2151
17929TIP3    H175202   1.186   5.122   0.788 -0.7618 -0.3453  0.3328
17929TIP3    H275203   1.051   5.181   0.821 -1.0731  0.2314 -1.8578
17930TIP3   OH275204   0.496   5.567  17.018  0.8793 -0.1395  0.4719
17930TIP3    H175205   0.441   5.618  17.077  2.5390  1.9756  0.3430
17930TIP3    H275206   0.566   5.533  17.073  0.4022 -1.4126  0.3398
17931TIP3   OH275207   5.557   2.899   0.082 -0.2385 -0.1366  0.6219
17931TIP3    H175208   5.524   2.940   0.161 -0.0793 -0.1979  0.7200
17931TIP3    H275209   5.652   2.907   0.088 -0.2327  0.0737  0.3218
17932TIP3   OH275210   3.097   5.882  15.186  0.1920  0.4648 -0.2644
17932TIP3    H175211   3.016   5.837  15.163  0.6660 -1.1636  1.0599
17932TIP3    H275212   3.144   5.891  15.103  0.0720 -1.5391 -0.5943
17933TIP3   OH275213   0.914   0.614   3.058  0.5002  0.4290  0.1154
17933TIP3    H175214   0.848   0.580   2.998  0.8624 -0.6018  0.2779
17933TIP3    H275215   0.942   0.696   3.019 -1.0008  0.9862  0.1425
17934TIP3   OH275216   4.698   2.089  16.557  0.1308 -0.2638 -0.0938
17934TIP3    H175217   4.677   2.129  16.642 -3.0418 -1.0450 -0.3823
17934TIP3    H275218   4.734   2.162  16.505  2.3892  0.1758  1.8792
17935TIP3   OH275219   4.265   5.058  11.071 -0.2921 -0.0395  0.4433
17935TIP3    H175220   4.331   5.104  11.020  0.5470  0.2767  1.7551
17935TIP3    H275221   4.208   5.017  11.006  1.6503 -1.0089 -0.7349
17936TIP3   OH275222   1.945   0.065  11.463 -0.1586 -0.1660  0.1587
17936TIP3    H175223   1.955   0.067  11.558  1.0695 -1.2972  0.0757
17936TIP3    H275224   1.958  -0.027  11.440 -0.5964  0.0731 -1.0998
17937TIP3   OH275225   5.103   3.140  12.636 -0.0653  0.2093 -0.1557
17937TIP3    H175226   5.164   3.068  12.649  0.3371  0.7996  1.4628
17937TIP3    H275227   5.158   3.217  12.623 -0.4514  0.6795  0.9034
17938TIP3   OH275228   2.504   4.827  12.767  0.1432 -0.4147 -0.0856
17938TIP3    H175229   2.503   4.849  12.674 -2.4319 -0.7366 -0.2083
17938TIP3    H275230   2.476   4.907  12.811 -1.0445 -0.9555  0.1764
17939TIP3   OH275231   5.678   0.876   0.477  0.0348 -0.6592 -0.0304
17939TIP3    H175232   5.648   0.895   0.566  1.0161 -1.1974  0.4374
17939TIP3    H275233   5.766   0.913   0.472  0.4128 -1.5615 -0.4074
17940TIP3   OH275234   6.804   6.708   2.623 -0.2109 -0.1250  0.4114
17940TIP3    H175235   6.799   6.729   2.716 -2.6449 -0.7635  0.4948
17940TIP3    H275236   6.769   6.786   2.579 -1.0761 -0.6242  0.1901
17941TIP3   OH275237   4.141   3.923   3.805 -0.6529 -0.2958  0.0647
17941TIP3    H175238   4.065   3.953   3.755  0.2055  0.6357 -0.7252
17941TIP3    H275239   4.178   4.002   3.843  0.1457 -0.6869  0.1259
17942TIP3   OH275240   3.877   5.673  15.790  0.3834 -0.4473 -0.1138
17942TIP3    H175241   3.785   5.678  15.816  0.8140 -1.3034  1.7038
17942TIP3    H275242   3.893   5.757  15.745 -1.0494  0.0682  0.2660
17943TIP3   OH275243   0.169   6.542   0.976  0.8349  0.8065  0.3687
17943TIP3    H175244   0.181   6.516   1.067 -2.4970 -1.8260  0.2485
17943TIP3    H275245   0.191   6.465   0.925 -1.0863  0.8888 -0.6967
17944TIP3   OH275246   3.404   0.716   1.958  0.7152  0.7030 -0.6425
17944TIP3    H175247   3.382   0.725   2.051  0.2905  1.9428 -0.8449
17944TIP3    H275248   3.416   0.622   1.945 -2.4380  0.1068 -0.0414
17945TIP3   OH275249   5.197   4.597  14.480  0.2672  0.3789 -0.1914
17945TIP3    H175250   5.114   4.635  14.508 -0.4542 -1.2040 -0.0552
17945TIP3    H275251   5.250   4.672  14.452 -0.0639  1.7460  2.5261
17946TIP3   OH275252   2.122   3.619  16.491  0.3083 -0.5471 -0.6773
17946TIP3    H175253   2.069   3.644  16.567  2.8648  1.2082  0.6637
17946TIP3    H275254   2.112   3.692  16.430 -0.8272 -1.4280 -1.5925
17947TIP3   OH275255   1.552   6.736   5.149 -0.4253  0.4738 -0.3829
17947TIP3    H175256   1.549   6.695   5.235 -0.9481 -0.5272 -0.8586
17947TIP3    H275257   1.479   6.797   5.149 -1.5628 -0.8268 -0.7192
17948TIP3   OH275258   3.781   3.645  13.921 -0.0727 -0.1571  0.1387
17948TIP3    H175259   3.848   3.713  13.920 -0.2632  0.0501  0.7306
17948TIP3    H275260   3.744   3.646  13.833  0.3947  0.0348 -0.0568
17949TIP3   OH275261   3.749   3.956  14.000  0.2301  0.0725  0.5650
17949TIP3    H175262   3.799   3.928  14.077  1.9858 -1.1450 -0.9504
17949TIP3    H275263   3.670   3.996  14.037  1.1299 -0.2141  2.9970
17950TIP3   OH275264   5.712   1.900  16.939 -0.4199  0.3435 -0.1408
17950TIP3    H175265   5.638   1.847  16.971  0.4890 -1.0378 -0.2545
17950TIP3    H275266   5.785   1.838  16.934  0.7879  1.7085  0.0849
17951TIP3   OH275267   1.441   1.336  16.614  0.1429  0.1547 -0.1239
17951TIP3    H175268   1.411   1.402  16.677 -0.3815 -0.5045  0.3411
17951TIP3    H275269   1.503   1.282  16.664 -0.3470 -0.4304 -0.1304
17952TIP3   OH275270   2.326   4.164   0.810 -0.3574 -0.1437 -0.6957
17952TIP3    H175271   2.364   4.139   0.895 -0.9847  1.6789  0.1575
17952TIP3    H275272   2.343   4.258   0.802 -1.6902  0.0387 -1.8624
17953TIP3   OH275273   1.662   2.302  12.069 -0.2749  0.3603 -0.2622
17953TIP3    H175274   1.593   2.281  12.131  0.0203 -0.4867 -0.2066
17953TIP3    H275275   1.629   2.272  11.984  0.5819 -1.4002 -0.0210
17954TIP3   OH275276   3.358   3.908   5.198 -0.2819 -0.9043 -0.0068
17954TIP3    H175277   3.370   3.946   5.285  1.5757 -0.6763 -0.3121
17954TIP3    H275278   3.382   3.978   5.138 -1.5103 -1.0747 -0.7323
17955TIP3   OH275279   5.518   2.336  14.598  0.2452  0.3816 -0.9401
17955TIP3    H175280   5.588   2.369  14.654 -1.2150  2.2804 -0.1276
17955TIP3    H275281   5.456   2.295  14.658  0.3927 -0.8365 -1.5902
17956TIP3   OH275282   3.795   2.573  13.337  0.5251  0.3521  0.0192
17956TIP3    H175283   3.796   2.642  13.404 -0.0569  1.2886 -0.9193
17956TIP3    H275284   3.757   2.615  13.260  0.6922 -0.8684 -0.7425
17957TIP3   OH275285   1.693   0.460  11.364 -0.7831 -0.2549  0.4842
17957TIP3    H175286   1.773   0.495  11.403 -1.9460 -0.4081  3.1930
17957TIP3    H275287   1.716   0.445  11.272  1.4261  2.3638  0.4768
17958TIP3   OH275288   3.651   5.795   4.276 -0.0590  0.6611  0.4563
17958TIP3    H175289   3.622   5.807   4.185  0.8856  1.3721  0.2322
17958TIP3    H275290   3.736   5.750   4.268  1.2873  2.9940  0.8289
17959TIP3   OH275291   1.654   2.823   0.293  0.2198  0.0307  0.6892
17959TIP3    H175292   1.706   2.804   0.215 -0.4259 -0.6068  0.4079
17959TIP3    H275293   1.649   2.740   0.340 -0.2811  0.1567  0.8676
17960TIP3   OH275294   0.570   1.998  13.180 -0.4509  0.2105 -0.5566
17960TIP3    H175295   0.477   2.019  13.189 -0.0768  1.2888  1.6843
17960TIP3    H275296   0.578   1.908  13.213 -0.8378 -0.3013 -1.8291
17961TIP3   OH275297   2.869   5.666  15.854  0.5447  0.6560  0.7561
17961TIP3    H175298   2.867   5.574  15.882 -0.9438  0.8955  1.5059
17961TIP3    H275299   2.954   5.698  15.884  0.2107  0.0862  2.4426
17962TIP3   OH275300   1.350   3.427  16.400 -0.4152  0.1756  0.4257
17962TIP3    H175301   1.284   3.410  16.467  1.9820  1.6222  3.3932
17962TIP3    H275302   1.405   3.349  16.399 -1.9612 -1.0317 -2.0501
17963TIP3   OH275303   5.558   4.481   2.758 -0.5862 -0.2308 -0.3106
17963TIP3    H175304   5.619   4.445   2.823 -1.9398  0.2852  1.3285
17963TIP3    H275305   5.573   4.429   2.680  1.3942 -0.6333  0.2653
17964TIP3   OH275306   2.541   3.429  16.640  0.6958  0.3384 -0.0922
17964TIP3    H175307   2.525   3.360  16.577 -0.9066 -0.8133  1.4762
17964TIP3    H275308   2.498   3.400  16.720  3.6892  1.1019  2.0022
17965TIP3   OH275309   0.498   5.886  12.753 -0.5877 -0.2146 -0.0820
17965TIP3    H175310   0.436   5.896  12.681  0.2739  0.1075 -0.7962
17965TIP3    H275311   0.542   5.971  12.758 -0.2755 -0.4062  0.4875
17966TIP3   OH275312   3.547   0.652   2.948 -0.2746 -0.0021  0.3497
17966TIP3    H175313   3.611   0.723   2.940 -0.7464  0.2521 -1.7654
17966TIP3    H275314   3.467   0.687   2.910 -1.4472 -0.6541  2.0797
17967TIP3   OH275315   4.809   0.458   4.912 -0.1807 -0.4050 -0.8481
17967TIP3    H175316   4.872   0.449   4.841 -0.3849  0.1532 -1.0994
17967TIP3    H275317   4.740   0.514   4.877 -1.8613 -2.5722 -1.2935
17968TIP3   OH275318   1.612   4.322  14.425 -0.0754 -0.1240  0.1684
17968TIP3    H175319   1.672   4.394  14.404  1.3852 -1.1147  0.8150
17968TIP3    H275320   1.566   4.351  14.504  1.1871 -0.2823  0.9729
17969TIP3   OH275321   0.258   5.162  10.464 -0.4409 -0.1927  0.1563
17969TIP3    H175322   0.225   5.152  10.375  1.4803  1.1146 -0.7678
17969TIP3    H275323   0.225   5.246  10.494 -0.6900 -0.4128  0.5137
17970TIP3   OH275324   0.469   6.177   2.915 -0.5956  0.1388 -0.8679
17970TIP3    H175325   0.379   6.189   2.886 -1.0664  2.9766  1.3753
17970TIP3    H275326   0.464   6.111   2.984 -0.5988 -1.1412 -2.0559
17971TIP3   OH275327   5.268   0.546   3.909  0.5524 -0.0993 -0.0152
17971TIP3    H175328   5.293   0.576   3.822 -3.0482 -2.2134 -2.0551
17971TIP3    H275329   5.252   0.626   3.959 -1.1650  1.3388 -2.6676
17972TIP3   OH275330   6.127   6.129   4.001 -0.0959  0.0595  0.3836
17972TIP3    H175331   6.080   6.046   3.996 -1.4080  0.8483 -1.8246
17972TIP3    H275332   6.171   6.137   3.916 -0.3592  1.8082  0.3756
17973TIP3   OH275333   2.718   4.559  16.162  0.2303  0.7589  0.2718
17973TIP3    H175334   2.750   4.611  16.088  2.3005 -0.2586  0.3822
17973TIP3    H275335   2.730   4.617  16.238 -1.8650  1.7917 -0.1057
17974TIP3   OH275336   0.332   3.101   4.630  0.1638 -0.1744  0.1295
17974TIP3    H175337   0.271   3.058   4.690 -0.6234  0.0526 -0.4937
17974TIP3    H275338   0.418   3.090   4.671 -0.4149  0.4894  1.5958
17975TIP3   OH275339   5.147   6.055  15.514 -0.2973  0.1064 -0.1217
17975TIP3    H175340   5.157   6.149  15.528  0.4677  0.2065 -1.1865
17975TIP3    H275341   5.228   6.017  15.546 -1.0877 -0.3553  1.4348
17976TIP3   OH275342   1.575   0.923  12.675 -0.0596 -0.0130  0.2679
17976TIP3    H175343   1.585   1.001  12.729  0.3826 -0.3989  0.7641
17976TIP3    H275344   1.570   0.851  12.738 -2.1434 -0.2543 -0.1073
17977TIP3   OH275345   4.285   6.447  13.440  0.0532  0.0996  0.4590
17977TIP3    H175346   4.245   6.363  13.419  1.0567 -0.0569 -0.8717
17977TIP3    H275347   4.214   6.511  13.426 -0.3089 -0.3704  0.1151
17978TIP3   OH275348   2.571   5.509  16.378 -0.0506 -0.4417  0.4138
17978TIP3    H175349   2.556   5.588  16.429 -1.5180 -0.5421  0.1849
17978TIP3    H275350   2.512   5.443  16.417 -1.8333 -0.3083 -1.8162
17979TIP3   OH275351   0.017   4.616   2.312  0.2697 -0.0148  0.1765
17979TIP3    H175352   0.024   4.523   2.290 -0.8243 -0.1629  0.3875
17979TIP3    H275353  -0.072   4.626   2.345 -0.2940  1.4676 -1.5966
17980TIP3   OH275354   3.611   1.387   1.699 -0.1241  0.7216  0.3650
17980TIP3    H175355   3.576   1.383   1.787 -0.4818 -0.1030  0.1905
17980TIP3    H275356   3.635   1.296   1.678  1.1512  1.0932  0.0922
17981TIP3   OH275357   5.529   5.495   1.923  0.0091  0.6145  0.1806
17981TIP3    H175358   5.489   5.468   2.005 -1.1521  0.5360 -0.3882
17981TIP3    H275359   5.571   5.578   1.942  1.8396 -0.5306  1.4425
17982TIP3   OH275360   1.083   0.739   3.646 -0.2236 -0.5970  0.0350
17982TIP3    H175361   1.075   0.645   3.628  0.6142 -0.8691  1.0403
17982TIP3    H275362   1.005   0.759   3.698 -0.2308 -0.8038  0.1065
17983TIP3   OH275363   4.385   4.580  11.383 -0.3723  0.3087  0.1523
17983TIP3    H175364   4.347   4.635  11.315 -2.2104 -1.1721 -0.0855
17983TIP3    H275365   4.434   4.512  11.335 -0.8893 -0.1899  0.3199
17984TIP3   OH275366   0.305   0.702  16.155  0.9137 -0.3695  0.3842
17984TIP3    H175367   0.351   0.645  16.093  0.7368 -0.9503  0.7820
17984TIP3    H275368   0.373   0.733  16.214  0.9621 -0.4076  0.3496
17985TIP3   OH275369   3.674   2.533  17.028  0.2571 -0.1176 -0.2155
17985TIP3    H175370   3.618   2.544  17.105 -0.5307 -1.5284 -0.5540
17985TIP3    H275371   3.652   2.609  16.973  0.6606  0.7765  0.8187
17986TIP3   OH275372   1.966   4.089   3.045  0.3661 -0.3483 -0.2159
17986TIP3    H175373   2.029   4.153   3.012  1.1943  0.6155  2.8727
17986TIP3    H275374   1.987   4.008   2.998  0.5590  1.1075 -2.8239
17987TIP3   OH275375   0.424   1.599  16.094 -0.0513 -0.4288  0.2261
17987TIP3    H175376   0.517   1.608  16.115 -0.3537  3.5392  0.6342
17987TIP3    H275377   0.387   1.556  16.171  1.1353  0.1138  1.1479
17988TIP3   OH275378   2.236   6.483   2.463 -0.4354 -0.2298  0.3598
17988TIP3    H175379   2.224   6.513   2.553 -0.3327 -0.2651  0.3845
17988TIP3    H275380   2.288   6.404   2.470 -0.6680 -0.3903  0.2895
17989TIP3   OH275381   3.208   1.469  10.608 -0.1699 -0.0829 -0.1813
17989TIP3    H175382   3.212   1.551  10.559 -2.1933 -1.0157 -2.0760
17989TIP3    H275383   3.273   1.413  10.566  1.3525  0.5448  1.2396
17990TIP3   OH275384   3.939   4.903  15.937 -0.3141 -0.5462  0.4994
17990TIP3    H175385   4.031   4.892  15.960  0.2886  0.2087 -1.3308
17990TIP3    H275386   3.901   4.952  16.009  0.6838 -0.9650  1.3259
17991TIP3   OH275387   5.785   0.961   3.950 -0.4522 -0.6656 -0.2527
17991TIP3    H175388   5.855   1.026   3.940  0.1635 -0.6709  2.9656
17991TIP3    H275389   5.707   1.006   3.920  0.3729  0.6404 -0.5380
17992TIP3   OH275390   6.057   6.806   3.042 -0.6164 -0.7671  0.5298
17992TIP3    H175391   6.091   6.741   3.103 -1.3450 -1.0550  0.6288
17992TIP3    H275392   6.116   6.881   3.052  0.4207 -1.5123  0.1892
17993TIP3   OH275393   0.577   6.622  16.586  0.9430 -0.2344  0.0155
17993TIP3    H175394   0.604   6.660  16.670 -0.0136 -1.4758  0.9284
17993TIP3    H275395   0.644   6.556  16.567  2.0771  1.1657 -1.0854
17994TIP3   OH275396   6.806   2.365   2.069 -0.5231 -0.1685 -0.1379
17994TIP3    H175397   6.727   2.369   2.123 -1.1738  0.3346 -1.1016
17994TIP3    H275398   6.868   2.315   2.121 -0.4194  1.9711  1.9579
17995TIP3   OH275399   4.838   5.482   2.263  0.3928 -0.2925  0.2425
17995TIP3    H175400   4.748   5.515   2.264  0.4291 -0.1924  0.2529
17995TIP3    H275401   4.866   5.489   2.172  1.2154  1.9683  0.5904
17996TIP3   OH275402   1.097   1.934   2.191  0.0830  0.3362  0.7055
17996TIP3    H175403   1.025   1.957   2.250  0.8292  0.5193  1.5680
17996TIP3    H275404   1.100   2.005   2.127 -1.1400 -0.1799  0.0344
17997TIP3   OH275405   0.798   5.076   1.631 -0.2730 -0.1444  0.4375
17997TIP3    H175406   0.719   5.024   1.643  0.4025 -1.0857  0.9034
17997TIP3    H275407   0.858   5.018   1.584  0.2784  0.4268  0.4240
17998TIP3   OH275408   6.147   0.606   1.528 -0.4205  0.0118 -0.0007
17998TIP3    H175409   6.083   0.535   1.525 -1.9724  1.3667 -0.4632
17998TIP3    H275410   6.197   0.590   1.609 -0.8805 -1.4511  0.0245
17999TIP3   OH275411   1.627   4.231   5.668  0.2195  0.6648 -0.3777
17999TIP3    H175412   1.564   4.160   5.678  0.5800  0.3408 -0.4051
17999TIP3    H275413   1.615   4.263   5.579  0.3833  0.3293 -0.5188
18000TIP3   OH275414   6.592   1.091  10.880 -0.1806  0.0597 -0.2921
18000TIP3    H175415   6.526   1.135  10.934 -0.4215 -0.8398  0.1807
18000TIP3    H275416   6.561   1.101  10.790 -0.8739 -0.1981 -0.0856
18001TIP3   OH275417   3.204   0.214  15.616 -0.2935 -0.3467 -1.0259
18001TIP3    H175418   3.274   0.234  15.679 -1.8213 -0.9299  0.9560
18001TIP3    H275419   3.225   0.127  15.583  0.0797 -0.3912 -0.6806
18002TIP3   OH275420   4.052   5.844  13.877 -0.0021 -0.3162  0.2212
18002TIP3    H175421   4.113   5.853  13.951 -0.9316 -0.7254  1.0602
18002TIP3    H275422   3.969   5.878  13.910 -0.6720 -1.3726 -0.3087
18003TIP3   OH275423   2.744   0.263   3.215  0.5465  0.0986  0.1029
18003TIP3    H175424   2.690   0.303   3.147 -0.0688 -1.4931 -0.3981
18003TIP3    H275425   2.684   0.246   3.287  0.2051 -2.0398 -0.6049
18004TIP3   OH275426   0.444   4.767  16.898  0.1081 -0.0146 -0.4910
18004TIP3    H175427   0.524   4.724  16.867  0.4185  0.3573 -0.2113
18004TIP3    H275428   0.400   4.796  16.818  0.8516  0.8455 -0.6064
18005TIP3   OH275429   1.775   4.173   4.892 -0.0177 -0.2459 -0.3933
18005TIP3    H175430   1.798   4.217   4.973  1.0336 -0.3003 -0.6475
18005TIP3    H275431   1.741   4.088   4.919 -1.5975  0.5006  0.0736
18006TIP3   OH275432   1.195   4.699  13.842 -0.2692  0.0683  0.2465
18006TIP3    H175433   1.185   4.677  13.750  1.6258 -1.1629  0.2830
18006TIP3    H275434   1.106   4.714  13.873 -0.8948  1.2382 -1.9316
18007TIP3   OH275435   1.848   5.295   5.504 -0.1156  0.1779  0.8489
18007TIP3    H175436   1.786   5.351   5.550 -0.6690  0.7780 -0.5944
18007TIP3    H275437   1.820   5.206   5.527 -1.9591  0.4105 -0.2939
18008TIP3   OH275438   2.358   2.232   0.082 -0.1590  0.3786  0.7276
18008TIP3    H175439   2.333   2.162   0.141 -0.1766  0.9914  1.4613
18008TIP3    H275440   2.275   2.271   0.053 -0.1595 -0.0657  0.1059
18009TIP3   OH275441   1.109   4.535   5.634  0.3075  0.1065 -0.1766
18009TIP3    H175442   1.024   4.572   5.658 -0.5020 -1.6615 -0.1083
18009TIP3    H275443   1.153   4.519   5.717 -0.5277 -1.6268 -0.0205
18010TIP3   OH275444   0.089   6.243   4.193 -0.2589  0.2030  0.2511
18010TIP3    H175445   0.038   6.320   4.217 -2.4156 -1.0252 -0.1492
18010TIP3    H275446   0.108   6.200   4.277 -2.4553 -0.8374  0.2792
18011TIP3   OH275447   1.983   5.586   1.425 -0.1795 -0.1983 -0.8488
18011TIP3    H175448   2.020   5.592   1.513  0.4244 -1.2302 -1.0088
18011TIP3    H275449   1.931   5.665   1.415 -0.3394 -0.1055  0.4768
18012TIP3   OH275450   1.826   3.386  16.574  0.6055 -0.1395 -0.3764
18012TIP3    H175451   1.772   3.350  16.504 -1.4632  1.0386  0.5199
18012TIP3    H275452   1.830   3.316  16.639 -0.7967  0.1128  0.0147
18013TIP3   OH275453   6.700   2.456   3.620  0.6734  0.8685 -0.6995
18013TIP3    H175454   6.605   2.466   3.620  0.8161  2.4281 -1.5416
18013TIP3    H275455   6.726   2.483   3.708  0.2494 -0.8985  0.0110
18014TIP3   OH275456   5.848   1.036  17.022 -0.1080  0.0780 -0.1662
18014TIP3    H175457   5.842   1.080  17.107 -1.0982 -1.9055  0.8600
18014TIP3    H275458   5.942   1.025  17.008  0.0540 -1.3241  1.6762
18015TIP3   OH275459   5.789   4.044   0.122 -0.3334 -0.2437  0.0672
18015TIP3    H175460   5.864   4.100   0.142 -0.3429 -0.3581  0.4236
18015TIP3    H275461   5.794   3.973   0.186  2.3341 -3.2737 -3.0370
18016TIP3   OH275462   2.251   4.938   2.541  0.1304  0.5379  0.4088
18016TIP3    H175463   2.336   4.894   2.547 -1.6220 -3.6855 -1.4726
18016TIP3    H275464   2.209   4.922   2.626 -0.6973 -2.2734 -0.4285
18017TIP3   OH275465   6.207   4.465  13.942 -0.0441 -0.4347 -0.3149
18017TIP3    H175466   6.162   4.535  13.990  0.7660  0.0107 -0.1840
18017TIP3    H275467   6.223   4.397  14.007  1.2341  0.2537  0.1266
18018TIP3   OH275468   3.412   6.263  14.271 -0.6246 -0.2657  0.1227
18018TIP3    H175469   3.400   6.174  14.305 -0.1849 -0.4807 -0.2738
18018TIP3    H275470   3.444   6.313  14.346  0.3215 -0.7315  0.0536
18019TIP3   OH275471   4.798   2.148  12.742  0.1446  0.3348 -0.0881
18019TIP3    H175472   4.843   2.189  12.816  1.1569  1.6276 -1.3746
18019TIP3    H275473   4.832   2.193  12.665 -0.3854 -1.4395 -1.4141
18020TIP3   OH275474   6.025   1.729  13.501 -0.1885  0.5404 -0.1215
18020TIP3    H175475   6.098   1.775  13.460 -1.0129  2.6272  0.6263
18020TIP3    H275476   5.986   1.793  13.560 -2.4512 -0.6045 -0.2622
18021TIP3   OH275477   2.768   1.369   0.374  0.3843  0.3124  0.2888
18021TIP3    H175478   2.741   1.375   0.466 -0.0614 -0.6513  0.2269
18021TIP3    H275479   2.862   1.390   0.376  0.2441  0.9232  0.8739
18022TIP3   OH275480   5.284   5.616   4.900 -0.4664  0.4818  0.1468
18022TIP3    H175481   5.350   5.601   4.969  0.7016 -1.3204 -1.2438
18022TIP3    H275482   5.289   5.710   4.883  3.5279  0.2052 -1.4457
18023TIP3   OH275483   4.117   5.815  12.171  0.3783  0.2807 -0.0658
18023TIP3    H175484   4.209   5.790  12.176 -0.0385 -1.2311  0.9433
18023TIP3    H275485   4.070   5.741  12.210 -1.3638  0.4841 -1.6150
18024TIP3   OH275486   3.867   3.909  14.235 -0.2423 -0.6000  0.2885
18024TIP3    H175487   3.912   3.830  14.262  2.4036  0.7695  0.2100
18024TIP3    H275488   3.884   3.972  14.305 -1.4685  0.2101 -0.0967
18025TIP3   OH275489   0.701   4.732  12.389 -0.8708  0.0100 -0.2132
18025TIP3    H175490   0.703   4.698  12.299  1.0660  0.3721 -0.3439
18025TIP3    H275491   0.733   4.821  12.382  1.3213 -0.5985  1.0570
18026TIP3   OH275492   4.380   0.080  14.666 -0.5045 -0.7730  0.3374
18026TIP3    H175493   4.430   0.076  14.584 -0.1788 -0.7256  0.5288
18026TIP3    H275494   4.289   0.090  14.639 -0.2399  1.0636 -0.0124
18027TIP3   OH275495   6.099   3.232  11.708 -0.1977 -0.1747 -0.1578
18027TIP3    H175496   6.105   3.136  11.706 -3.3226 -0.4730  0.0652
18027TIP3    H275497   6.095   3.258  11.616  1.6534 -0.1143 -0.2520
18028TIP3   OH275498   3.270   1.676  12.172 -0.0030 -0.2311 -0.2508
18028TIP3    H175499   3.330   1.604  12.151 -0.9388 -0.6529 -1.6102
18028TIP3    H275500   3.241   1.658  12.261  0.4826 -1.0441 -0.2501
18029TIP3   OH275501   3.884   2.784  16.784  0.3477  0.3751 -0.2217
18029TIP3    H175502   3.950   2.850  16.805 -0.4115  1.3892 -0.9185
18029TIP3    H275503   3.916   2.744  16.703  0.6532  0.0817  0.0381
18030TIP3   OH275504   1.691   5.526  12.486 -0.5849 -0.5538 -0.4128
18030TIP3    H175505   1.684   5.613  12.448  0.5334 -0.2540  0.0254
18030TIP3    H275506   1.780   5.498  12.466 -0.5599 -1.1274  0.4346
18031TIP3   OH275507   5.470   2.524  12.661 -0.0522  0.3055  0.3476
18031TIP3    H175508   5.530   2.464  12.618 -0.3339  0.0878  0.2580
18031TIP3    H275509   5.437   2.475  12.736 -2.1984 -0.6049 -1.0960
18032TIP3   OH275510   5.952   4.640   3.748  0.3461 -0.3362  0.9114
18032TIP3    H175511   6.000   4.600   3.820  1.5254 -0.2615  0.1928
18032TIP3    H275512   5.937   4.568   3.686 -0.9359 -0.4687  1.3543
18033TIP3   OH275513   0.915   2.716  16.063 -0.0541 -0.7606  0.1711
18033TIP3    H175514   0.847   2.768  16.106  0.8914 -0.8321  1.8449
18033TIP3    H275515   0.898   2.626  16.090  1.1005 -0.6937  1.2409
18034TIP3   OH275516   6.672   5.377   3.186 -0.0531  0.3616 -0.3798
18034TIP3    H175517   6.594   5.421   3.221  0.3285  0.5413  0.2630
18034TIP3    H275518   6.733   5.449   3.168  0.5770  0.1222  0.6809
18035TIP3   OH275519   2.988   5.931   3.705  0.1883 -0.5336  0.5801
18035TIP3    H175520   2.909   5.933   3.759  0.8289  1.8477  1.5378
18035TIP3    H275521   3.006   5.837   3.694 -3.1021 -1.2186 -0.2735
18036TIP3   OH275522   2.334   0.046   0.530  0.6216  0.2300  0.3577
18036TIP3    H175523   2.264   0.008   0.477  1.5348 -0.5446 -0.3266
18036TIP3    H275524   2.344   0.135   0.496 -0.7362  0.7301  1.1856
18037TIP3   OH275525   2.320   5.849  16.581 -0.4663  0.0511 -0.3048
18037TIP3    H175526   2.269   5.803  16.647  0.6693 -1.1304 -0.2078
18037TIP3    H275527   2.306   5.799  16.501  1.0062 -0.7019 -0.1381
18038TIP3   OH275528   4.279   2.399  11.527  0.0432  0.2068 -0.1907
18038TIP3    H175529   4.320   2.312  11.524  1.9453  0.9547  1.7397
18038TIP3    H275530   4.200   2.386  11.580  1.5552  0.0025  2.1787
18039TIP3   OH275531   1.894   5.874   6.398 -0.4062  0.6421  0.2371
18039TIP3    H175532   1.807   5.912   6.405 -1.5916 -1.4673 -1.5875
18039TIP3    H275533   1.897   5.809   6.469  0.3013  1.7303  1.2324
18040TIP3   OH275534   0.047   1.456   4.360  0.1382 -0.4746  0.2838
18040TIP3    H175535   0.007   1.381   4.405 -0.4691 -0.3798 -0.0911
18040TIP3    H275536  -0.006   1.531   4.387  1.2638 -0.0241  1.3475
18041TIP3   OH275537   2.737   6.026   4.781  0.2753 -0.2865 -0.5020
18041TIP3    H175538   2.705   5.937   4.767  0.3886 -0.3496 -0.3622
18041TIP3    H275539   2.662   6.072   4.820  0.5655 -0.6181  0.4769
18042TIP3   OH275540   0.112   4.522  10.950 -0.0081  0.7694  0.6167
18042TIP3    H175541   0.190   4.575  10.932  0.4704 -0.4615 -1.2216
18042TIP3    H275542   0.067   4.518  10.866 -1.4592  0.4899  1.3897
18043TIP3   OH275543   1.088   5.565  14.382  0.0425 -0.1482 -0.7456
18043TIP3    H175544   1.051   5.597  14.299  0.3051 -0.5578 -1.0260
18043TIP3    H275545   1.157   5.628  14.403 -0.1204  0.0370 -0.7642
18044TIP3   OH275546   3.383   4.073   0.903 -0.0688  0.2578 -0.2108
18044TIP3    H175547   3.454   4.026   0.947  0.4478  0.1547 -1.1249
18044TIP3    H275548   3.334   4.004   0.858 -0.5387  0.3728  0.1171
18045TIP3   OH275549   6.774   0.486  14.514  0.2437 -0.1722  0.4553
18045TIP3    H175550   6.816   0.558  14.466  0.1114 -0.4854 -0.1390
18045TIP3    H275551   6.777   0.513  14.605 -1.6391  1.5395  0.0659
18046TIP3   OH275552   6.356   1.944  10.964  0.3032 -0.0578 -0.1953
18046TIP3    H175553   6.351   1.855  10.931 -0.2306 -0.2360  0.3549
18046TIP3    H275554   6.327   1.999  10.891  2.6428 -0.1396 -1.2787
18047TIP3   OH275555   3.671   3.631  12.302 -0.2660 -0.3370 -0.3130
18047TIP3    H175556   3.648   3.721  12.279  2.0254  1.1547  2.5589
18047TIP3    H275557   3.653   3.626  12.396 -1.6127 -3.4131 -0.6204
18048TIP3   OH275558   3.033   1.389  14.613 -0.9108 -0.4981 -0.8934
18048TIP3    H175559   3.127   1.391  14.598 -0.7037  1.0687  0.3141
18048TIP3    H275560   3.008   1.298  14.600  0.6423 -0.8088 -1.9037
18049TIP3   OH275561   2.912   2.231  14.715 -0.4465 -0.2099  0.0438
18049TIP3    H175562   2.868   2.313  14.695  0.2535  0.1324 -0.1564
18049TIP3    H275563   2.980   2.223  14.647 -0.1175 -0.6480  0.4143
18050TIP3   OH275564   0.562   3.743  10.611 -0.3410 -0.4129 -0.1547
18050TIP3    H175565   0.575   3.756  10.517  2.3530 -1.2624  0.0152
18050TIP3    H275566   0.651   3.730  10.646 -1.2726 -0.2883  2.4945
18051TIP3   OH275567   3.008   2.943  15.643  0.3999 -0.1349 -0.0916
18051TIP3    H175568   3.038   2.866  15.594  2.4824 -0.0071  0.8908
18051TIP3    H275569   3.000   3.012  15.577 -1.0747 -1.0457 -0.9130
18052TIP3   OH275570   2.733   5.590   5.316 -0.0005 -0.3271  0.2220
18052TIP3    H175571   2.648   5.547   5.305  0.1536 -0.3549 -0.9056
18052TIP3    H275572   2.713   5.684   5.315  0.1070 -0.2978 -1.3450
18053TIP3   OH275573   1.439   2.786  16.320 -0.0512  0.1120  0.2830
18053TIP3    H175574   1.375   2.848  16.355 -1.0197 -0.7305  0.0543
18053TIP3    H275575   1.480   2.748  16.397 -0.4106  0.0615  0.4515
18054TIP3   OH275576   6.485   4.035  13.480 -0.4369 -0.9509 -0.1562
18054TIP3    H175577   6.394   4.005  13.485 -0.7663  0.1610  2.1190
18054TIP3    H275578   6.537   3.955  13.489 -1.1928 -1.4899 -0.4384
18055TIP3   OH275579   6.159   4.963  14.076  0.4577  0.1124 -0.4081
18055TIP3    H175580   6.164   4.876  14.036  0.5761  0.2047 -0.5953
18055TIP3    H275581   6.185   4.949  14.167 -3.0432 -0.7218  0.6126
18056TIP3   OH275582   3.303   0.778  12.961  0.4786 -0.0178  0.2755
18056TIP3    H175583   3.243   0.724  13.013  0.5669  0.8400  1.3172
18056TIP3    H275584   3.362   0.816  13.026  0.5156  1.1939 -0.4451
18057TIP3   OH275585   5.647   4.706   3.803  0.2786  0.7320 -0.4523
18057TIP3    H175586   5.608   4.638   3.747  2.0035  0.7115 -1.7010
18057TIP3    H275587   5.696   4.761   3.742 -0.6798  2.8476  0.6058
18058TIP3   OH275588   5.474   0.452  12.607 -0.0905 -0.0248  0.6962
18058TIP3    H175589   5.386   0.438  12.643 -0.0028 -0.2472  0.8294
18058TIP3    H275590   5.469   0.537  12.564 -0.9184 -0.8909 -0.9922
18059TIP3   OH275591   2.378   0.229   4.214  0.1720  0.0914  0.7336
18059TIP3    H175592   2.439   0.157   4.202  0.6553  0.6595 -0.3764
18059TIP3    H275593   2.292   0.191   4.198  0.4488 -0.1809 -0.1505
18060TIP3   OH275594   4.364   1.370  14.074 -0.2685  0.3534 -0.5732
18060TIP3    H175595   4.276   1.370  14.112 -0.2245  1.3301 -0.4626
18060TIP3    H275596   4.406   1.293  14.113 -1.2277 -0.4288 -1.0215
18061TIP3   OH275597   3.736   6.619  15.372 -0.6755 -0.3255  0.2565
18061TIP3    H175598   3.737   6.611  15.467  0.9025  1.1062  0.4067
18061TIP3    H275599   3.661   6.674  15.352  0.9806  2.3806  1.0398
18062TIP3   OH275600   2.346   0.680  15.754 -0.4445  0.3874 -0.2275
18062TIP3    H175601   2.398   0.607  15.722  0.8428  1.3351 -0.3916
18062TIP3    H275602   2.256   0.659  15.728 -0.0208 -0.8431 -0.7789
18063TIP3   OH275603   5.719   1.877   0.749  0.2242 -0.2781 -0.1731
18063TIP3    H175604   5.773   1.798   0.760 -0.2966 -0.6436 -0.1769
18063TIP3    H275605   5.772   1.935   0.695  0.2093 -1.0504 -1.0561
18064TIP3   OH275606   5.740   6.746   4.171  0.2189  0.3366 -0.6536
18064TIP3    H175607   5.833   6.770   4.161  0.3189  0.3565  0.2292
18064TIP3    H275608   5.707   6.743   4.082  1.3986 -0.9884 -1.0978
18065TIP3   OH275609   2.504   0.601   3.435 -0.4939  0.2513 -0.2988
18065TIP3    H175610   2.592   0.637   3.424 -0.2455 -0.3343 -0.2574
18065TIP3    H275611   2.511   0.510   3.407 -0.9872  0.0790  0.1128
18066TIP3   OH275612   0.221   6.617  15.264  0.1868 -0.5186  0.5225
18066TIP3    H175613   0.217   6.682  15.194 -0.5150 -0.0669  0.9654
18066TIP3    H275614   0.131   6.611  15.296  0.5860 -0.3218  1.7349
18067TIP3   OH275615   5.373   3.881   0.555  0.2300  0.3212 -0.3525
18067TIP3    H175616   5.340   3.810   0.500 -0.6934  0.0118  0.5587
18067TIP3    H275617   5.341   3.859   0.643  0.3546  1.6055  0.0304
18068TIP3   OH275618   4.820   5.379   1.236 -0.2276  0.7191 -0.1353
18068TIP3    H175619   4.821   5.364   1.141 -0.1903  2.1126 -0.3693
18068TIP3    H275620   4.884   5.316   1.270 -1.1987 -0.7131 -0.8674
18069TIP3   OH275621   3.414   6.070   2.229  0.0080 -0.1967  0.0752
18069TIP3    H175622   3.501   6.106   2.241 -1.1378  2.7936  0.0957
18069TIP3    H275623   3.389   6.095   2.140 -1.1629 -0.2428  0.3691
18070TIP3   OH275624   2.314   2.979  11.548 -0.2162  0.5080  0.0852
18070TIP3    H175625   2.280   2.970  11.636 -3.2247 -1.3839 -1.1103
18070TIP3    H275626   2.260   3.047  11.507  0.2412  0.4446 -0.6534
18071TIP3   OH275627   2.688   5.241   2.901  0.0030 -0.5376  0.1286
18071TIP3    H175628   2.721   5.249   2.990  1.0852  2.0087 -0.4212
18071TIP3    H275629   2.592   5.239   2.911  0.1341 -1.2148  1.3705
18072TIP3   OH275630   0.367   1.214  12.033  0.1948  0.4069  0.0228
18072TIP3    H175631   0.442   1.166  12.069  0.2667  0.7925  0.4031
18072TIP3    H275632   0.297   1.149  12.027 -0.4600  0.7103  2.8338
18073TIP3   OH275633   6.343   0.764   6.200  0.5789  0.2758  0.5731
18073TIP3    H175634   6.416   0.812   6.161  0.3581  0.3590  0.2524
18073TIP3    H275635   6.376   0.675   6.213  1.1060  0.5976  1.5003
18074TIP3   OH275636   6.822   1.055  13.661 -0.3156  0.0051  1.0123
18074TIP3    H175637   6.853   1.121  13.723 -1.7379 -0.2762  2.0852
18074TIP3    H275638   6.898   1.035  13.606  0.0422  2.9228  0.2666
18075TIP3   OH275639   3.048   1.209  11.866  0.1405 -0.1489 -0.4686
18075TIP3    H175640   3.066   1.188  11.958  1.1930  3.1492  0.1803
18075TIP3    H275641   3.122   1.172  11.818 -0.0215 -1.2106  0.0619
18076TIP3   OH275642   6.095   4.797   4.361  0.1050  0.2055  0.3540
18076TIP3    H175643   6.162   4.829   4.300 -0.4628  1.0687  0.1629
18076TIP3    H275644   6.118   4.839   4.445  1.0490 -1.1971  0.8319
18077TIP3   OH275645   4.901   5.612  14.970  0.7572 -0.1305 -0.7706
18077TIP3    H175646   4.894   5.703  15.000 -0.1455 -0.0288 -1.2593
18077TIP3    H275647   4.810   5.581  14.966  1.0698 -1.1342 -0.3831
18078TIP3   OH275648   0.890   1.501   1.918  0.1562 -0.0895 -1.2942
18078TIP3    H175649   0.900   1.565   1.988 -1.6167 -2.6500  1.5617
18078TIP3    H275650   0.975   1.459   1.912  0.9096  1.4605 -2.1959
18079TIP3   OH275651   5.155   1.598  16.313  0.1402 -0.0339 -0.2482
18079TIP3    H175652   5.125   1.516  16.275 -0.4329 -0.3430  0.8223
18079TIP3    H275653   5.249   1.601  16.295  0.5180 -1.7660  1.1484
18080TIP3   OH275654   5.315   5.910   1.088 -0.2858 -0.3276 -0.1800
18080TIP3    H175655   5.365   5.973   1.035 -2.5161  2.8303  1.1392
18080TIP3    H275656   5.278   5.849   1.024  2.3739 -0.7510 -1.4900
18081TIP3   OH275657   4.843   2.042   1.111 -0.3560 -0.1146 -0.3868
18081TIP3    H175658   4.920   2.067   1.060 -0.6937 -0.5345 -1.1153
18081TIP3    H275659   4.875   2.036   1.201 -0.1278  2.3623 -0.2315
18082TIP3   OH275660   2.864   4.807   4.506  0.2680  0.1254 -0.0563
18082TIP3    H175661   2.940   4.801   4.564  0.6970 -0.3570 -0.6599
18082TIP3    H275662   2.900   4.831   4.421 -0.2205 -0.3942 -0.4187
18083TIP3   OH275663   1.845   1.648   0.915 -0.1282 -0.2252 -0.4129
18083TIP3    H175664   1.788   1.688   0.980 -0.8161 -0.3605 -0.9151
18083TIP3    H275665   1.908   1.717   0.893 -0.7225  0.2730 -0.5839
18084TIP3   OH275666   5.616   5.152   3.783 -0.2440 -0.1435  0.0065
18084TIP3    H175667   5.639   5.227   3.728 -0.9688 -2.2183 -3.4666
18084TIP3    H275668   5.700   5.114   3.809  0.1172  1.4459  1.2699
18085TIP3   OH275669   0.872   4.820   4.484  0.5819 -0.4824  0.5315
18085TIP3    H175670   0.788   4.841   4.443  1.7501  0.1911 -1.7303
18085TIP3    H275671   0.890   4.894   4.541  0.9407  0.8617 -1.2351
18086TIP3   OH275672   1.640   4.340   5.421 -0.5435 -0.3336 -0.2756
18086TIP3    H175673   1.708   4.404   5.399  0.3891 -0.9517  0.7138
18086TIP3    H275674   1.583   4.339   5.344  0.6978  0.0337 -1.2453
18087TIP3   OH275675   3.048   2.629  16.588  0.1374  0.0740  0.5469
18087TIP3    H175676   3.020   2.720  16.584  0.7518  0.2444 -0.0563
18087TIP3    H275677   3.078   2.609  16.499 -2.4498 -1.5348 -0.0970
18088TIP3   OH275678   0.441   1.745  15.692  0.2596 -0.0768 -0.1338
18088TIP3    H175679   0.502   1.813  15.663 -1.2792  0.9166 -1.1562
18088TIP3    H275680   0.363   1.793  15.720 -1.4748 -1.4073 -2.3580
18089TIP3   OH275681   3.777   1.620  13.148 -0.0660  0.3778 -0.1665
18089TIP3    H175682   3.806   1.589  13.234  1.5176 -1.3664 -1.2435
18089TIP3    H275683   3.707   1.559  13.124  0.6508 -0.2082 -0.8058
18090TIP3   OH275684   1.294   5.367   3.410  0.0417  0.3474  0.1668
18090TIP3    H175685   1.261   5.277   3.403  0.8878 -0.0661  1.1489
18090TIP3    H275686   1.389   5.359   3.400  0.2309  0.9877  1.2546
18091TIP3   OH275687   5.991   6.515   1.903 -0.2004 -0.1204 -0.5084
18091TIP3    H175688   6.074   6.504   1.949  0.2871  1.3238 -0.9720
18091TIP3    H275689   5.926   6.474   1.959  0.8548 -1.5630 -0.2795
18092TIP3   OH275690   3.480   1.458   5.417 -0.0150  0.8115 -0.3450
18092TIP3    H175691   3.535   1.534   5.395  2.3394 -0.9115 -0.9223
18092TIP3    H275692   3.508   1.433   5.505 -0.0814  0.0686 -0.5310
18093TIP3   OH275693   2.079   2.209   5.539  0.2501  0.1720  0.2310
18093TIP3    H175694   2.143   2.137   5.536 -0.5744 -0.6855  2.0983
18093TIP3    H275695   2.007   2.180   5.484  1.0203  0.7531 -1.1458
18094TIP3   OH275696   5.112   5.165   1.249 -0.6327 -0.0642 -0.9738
18094TIP3    H175697   5.182   5.100   1.259  0.1574  0.7110 -1.3284
18094TIP3    H275698   5.084   5.155   1.158 -1.0314 -0.4116 -0.8162
18095TIP3   OH275699   6.120   2.519  15.135 -0.7598  0.0569 -0.2962
18095TIP3    H175700   6.215   2.508  15.141 -0.9564 -1.0784  1.2325
18095TIP3    H275701   6.084   2.445  15.184 -2.4106  1.4036  0.6143
18096TIP3   OH275702   5.898   4.133   5.678 -0.3606  0.0579  0.0341
18096TIP3    H175703   5.951   4.090   5.745 -0.0072  1.2953  0.5823
18096TIP3    H275704   5.844   4.195   5.726 -0.9597  0.1347 -0.7175
18097TIP3   OH275705   5.171   5.303   4.464  0.2292  0.1421 -0.0614
18097TIP3    H175706   5.086   5.261   4.480  1.0366 -1.9741 -0.9955
18097TIP3    H275707   5.152   5.375   4.404 -1.0110  0.3005  0.4926
18098TIP3   OH275708   3.539   3.392  13.945  0.4189  0.1947 -0.7007
18098TIP3    H175709   3.615   3.413  13.999  1.2631 -1.1723 -1.2880
18098TIP3    H275710   3.481   3.467  13.955  1.3241  0.7607  0.6925
18099TIP3   OH275711   5.621   0.222  12.720 -0.0070 -0.6873  0.6840
18099TIP3    H175712   5.607   0.162  12.647  0.3805  0.3621 -0.3003
18099TIP3    H275713   5.608   0.309  12.682  3.4120  0.1167  1.0138
18100TIP3   OH275714   3.514   6.806   0.061  0.2359  0.4470 -0.1335
18100TIP3    H175715   3.577   6.735   0.073  1.9873  1.8909 -0.3408
18100TIP3    H275716   3.440   6.782   0.117  0.2766 -2.0581 -1.0575
18101TIP3   OH275717   1.284   5.941  15.821  0.2963  0.0107  0.3964
18101TIP3    H175718   1.321   6.028  15.833  0.2004  0.1305 -0.1615
18101TIP3    H275719   1.304   5.918  15.731 -2.8036  0.9743 -0.6640
18102TIP3   OH275720   0.324   1.294   0.760 -0.6809 -0.4827  0.6189
18102TIP3    H175721   0.276   1.256   0.834  0.4658  0.8771  2.1247
18102TIP3    H275722   0.416   1.287   0.785 -0.2430 -0.1649 -0.7993
18103TIP3   OH275723   3.706   1.092  13.890  0.1194  0.1035  0.5082
18103TIP3    H175724   3.612   1.079  13.889  0.2948 -1.3127  0.5860
18103TIP3    H275725   3.724   1.132  13.975 -0.4205  0.5707  0.4104
18104TIP3   OH275726   6.514   6.342  14.469 -0.3908  0.1746  0.2475
18104TIP3    H175727   6.599   6.350  14.512  1.2075  0.0741 -2.6298
18104TIP3    H275728   6.496   6.429  14.434  0.7234 -0.6694 -2.7481
18105TIP3   OH275729   3.486   5.924   1.388  0.0008 -0.2363  0.7467
18105TIP3    H175730   3.556   5.897   1.447  0.8338 -0.3742 -0.2888
18105TIP3    H275731   3.527   5.930   1.302 -0.8585  1.3386  0.3955
18106TIP3   OH275732   2.265   6.407   4.517  0.1717  0.6255  0.6990
18106TIP3    H175733   2.320   6.365   4.583 -0.6598 -2.1552 -0.2457
18106TIP3    H275734   2.184   6.429   4.563  0.4586  0.7858  1.1242
18107TIP3   OH275735   4.001   3.036   0.857 -0.2997  0.0525  0.0757
18107TIP3    H175736   3.953   3.107   0.901  1.1043  1.7616 -1.0036
18107TIP3    H275737   4.016   3.070   0.769  1.1438 -1.2705 -0.2104
18108TIP3   OH275738   5.071   6.042   2.007 -0.4421 -0.0814 -0.0416
18108TIP3    H175739   5.033   6.005   1.928  1.4579 -1.0162 -0.5633
18108TIP3    H275740   5.094   5.967   2.061  3.7109  0.1017 -1.2253
18109TIP3   OH275741   4.066   6.127  11.089  0.0998  0.1218 -0.3511
18109TIP3    H175742   4.009   6.094  11.158 -0.0498  0.3173 -0.3790
18109TIP3    H275743   4.124   6.054  11.068 -0.5933 -0.3097 -0.8000
18110TIP3   OH275744   4.616   1.384   2.772  0.1072 -0.8937 -0.3761
18110TIP3    H175745   4.565   1.315   2.814  1.5217 -2.0474 -0.4851
18110TIP3    H275746   4.584   1.385   2.681 -2.8828  1.5351  0.5372
18111TIP3   OH275747   4.614   3.322  16.500 -0.1944 -0.1201 -0.0811
18111TIP3    H175748   4.543   3.257  16.504  0.0994 -0.3803  1.3919
18111TIP3    H275749   4.571   3.402  16.471 -0.9906 -0.4231  0.2239
18112TIP3   OH275750   4.142   1.266   5.244  0.2119 -0.3303 -0.0294
18112TIP3    H175751   4.082   1.338   5.224 -0.1663 -0.8548 -0.8383
18112TIP3    H275752   4.144   1.263   5.339 -1.2023 -0.4269  0.0179
18113TIP3   OH275753   4.651   6.189  13.814 -0.2627 -0.9906 -0.4107
18113TIP3    H175754   4.716   6.148  13.757 -0.2210  0.1991 -1.2522
18113TIP3    H275755   4.567   6.171  13.772 -0.4027 -1.6244  0.1182
18114TIP3   OH275756   4.048   0.240   4.854  0.1542  0.2881 -0.7322
18114TIP3    H175757   4.115   0.242   4.786  0.7644  1.8816 -0.1239
18114TIP3    H275758   4.096   0.253   4.936 -0.7746  0.3008 -0.1712
18115TIP3   OH275759   6.773   5.996   0.603 -0.4461  0.0649 -0.0837
18115TIP3    H175760   6.723   6.075   0.625 -2.8764 -1.2644 -0.4923
18115TIP3    H275761   6.792   5.955   0.688  2.5348  1.9429  0.2928
18116TIP3   OH275762   0.881   5.576  14.570  0.1119 -0.5789  0.3934
18116TIP3    H175763   0.932   5.591  14.650  2.6682 -1.2461 -0.9862
18116TIP3    H275764   0.947   5.562  14.502 -1.9576 -2.4206 -1.3975
18117TIP3   OH275765   0.068   6.436  11.207  0.8976 -0.1501 -0.0239
18117TIP3    H175766  -0.021   6.468  11.194 -0.2391 -3.1437 -0.4713
18117TIP3    H275767   0.124   6.500  11.163 -1.1586  0.9961 -1.1047
18118TIP3   OH275768   1.293   5.816   0.225 -0.5156  0.0423  0.2775
18118TIP3    H175769   1.233   5.871   0.174 -0.5320 -0.8881 -0.7470
18118TIP3    H275770   1.338   5.763   0.160 -1.4928 -2.1313  1.2825
18119TIP3   OH275771   4.178   2.225  13.898 -0.5286 -0.3394  0.4946
18119TIP3    H175772   4.233   2.297  13.867 -0.6809 -0.5559 -0.3003
18119TIP3    H275773   4.176   2.235  13.993  0.1483  0.1997  0.4573
18120TIP3   OH275774   3.564   6.096   3.616 -0.3821  0.4803  0.0174
18120TIP3    H175775   3.631   6.047   3.664  1.2204  1.7375 -0.8557
18120TIP3    H275776   3.590   6.188   3.624 -1.6742  0.9598 -0.8716
18121TIP3   OH275777   5.701   2.649  12.098 -0.0628 -0.3084 -0.8808
18121TIP3    H175778   5.633   2.674  12.161 -0.8875  2.0232 -2.5605
18121TIP3    H275779   5.774   2.707  12.118  1.2933 -2.3770  0.5041
18122TIP3   OH275780   0.034   1.379   1.935 -0.0775 -0.3816 -0.2678
18122TIP3    H175781  -0.044   1.402   1.987  0.1707  0.2984 -0.1818
18122TIP3    H275782   0.013   1.408   1.847  0.1094 -0.1228 -0.2276
18123TIP3   OH275783   0.723   0.077   6.310 -0.1305 -0.3133  0.2415
18123TIP3    H175784   0.675   0.006   6.353 -0.6789  1.2832  2.4207
18123TIP3    H275785   0.808   0.038   6.288 -1.1254 -2.1808 -0.4778
18124TIP3   OH275786   1.532   3.970   4.656  0.2154  0.6493 -0.3903
18124TIP3    H175787   1.522   3.993   4.564 -0.7603 -0.3248 -0.5395
18124TIP3    H275788   1.514   4.051   4.703 -3.5106  0.2422 -0.8773
18125TIP3   OH275789   4.445   3.807  15.177 -0.0886  0.1958  0.2251
18125TIP3    H175790   4.433   3.873  15.244 -0.0050  2.1969 -1.6281
18125TIP3    H275791   4.491   3.735  15.222  0.5138  1.6896  2.1195
18126TIP3   OH275792   0.854   2.932  11.257 -0.5324 -0.5245 -0.1218
18126TIP3    H175793   0.839   2.941  11.351 -0.8778 -1.8241 -0.0259
18126TIP3    H275794   0.835   2.840  11.239  0.6597 -0.5744 -1.2640
18127TIP3   OH275795   1.799   5.206   4.442  0.5537 -0.3030  0.5647
18127TIP3    H175796   1.891   5.185   4.454  0.4517 -0.7376  0.5947
18127TIP3    H275797   1.755   5.164   4.516  0.0648 -1.9944 -0.6276
18128TIP3   OH275798   1.529   5.857  13.795 -0.3101  0.0092 -0.3154
18128TIP3    H175799   1.523   5.830  13.703  1.7362 -1.0860 -0.1904
18128TIP3    H275800   1.527   5.775  13.844  0.9762  0.3917  0.4288
18129TIP3   OH275801   3.253   3.039  16.096  0.1394 -0.2363 -0.3248
18129TIP3    H175802   3.319   2.990  16.145  0.0802 -1.0819 -1.0605
18129TIP3    H275803   3.233   2.983  16.021 -0.0921  0.8235 -1.0725
18130TIP3   OH275804   6.184   2.910  13.935 -0.0817  0.0257 -0.1575
18130TIP3    H175805   6.130   2.924  14.013  0.7640  0.6747  0.3223
18130TIP3    H275806   6.272   2.898  13.969  0.0952 -0.9342 -0.9468
18131TIP3   OH275807   1.643   2.361   4.433 -0.2801 -0.0673  0.3316
18131TIP3    H175808   1.645   2.266   4.441  0.6485 -0.0361  0.5724
18131TIP3    H275809   1.620   2.392   4.521  0.6178 -0.0387  0.5668
18132TIP3   OH275810   4.423   5.631  12.806  0.3210  0.4727  0.3736
18132TIP3    H175811   4.484   5.694  12.768  0.6806  0.0692  0.2697
18132TIP3    H275812   4.341   5.646  12.759  0.4578  0.7356  0.2196
18133TIP3   OH275813   3.846   0.092   0.632 -0.1472  0.1913  0.1540
18133TIP3    H175814   3.854   0.160   0.698 -2.9420  0.4146  0.4036
18133TIP3    H275815   3.861   0.010   0.680  2.7417  0.5185 -0.0495
18134TIP3   OH275816   1.063   1.801   2.525  0.0108 -0.1262  0.3121
18134TIP3    H175817   1.119   1.800   2.602  1.2024 -3.3115 -0.4020
18134TIP3    H275818   1.121   1.824   2.453  0.0237 -1.5170 -0.1638
18135TIP3   OH275819   2.067   6.346   0.761 -0.0691  0.2082  0.1029
18135TIP3    H175820   2.082   6.269   0.816  0.4322  0.2968  0.0934
18135TIP3    H275821   2.054   6.310   0.673 -0.6768  0.0806  0.2383
18136TIP3   OH275822   1.847   0.861   2.092 -0.0471  0.4930 -0.0180
18136TIP3    H175823   1.853   0.790   2.027 -0.2257  0.2131  0.2679
18136TIP3    H275824   1.777   0.833   2.151 -0.8687  1.4294 -0.5303
18137TIP3   OH275825   3.561   5.997   2.782  0.0424  0.2118  0.3219
18137TIP3    H175826   3.628   6.057   2.749  2.1228 -1.9717  0.3441
18137TIP3    H275827   3.587   5.980   2.873 -1.4945  0.5345  0.8553
18138TIP3   OH275828   0.102   5.616   2.538 -0.2091 -0.4761 -0.2815
18138TIP3    H175829   0.195   5.608   2.516 -0.4123 -0.3146 -1.2293
18138TIP3    H275830   0.085   5.710   2.537 -0.1266 -0.4137  1.0775
18139TIP3   OH275831   5.965   0.227   1.392  0.5260  0.0147 -0.9629
18139TIP3    H175832   5.953   0.322   1.393 -2.5376 -0.2655  0.5436
18139TIP3    H275833   5.893   0.194   1.339  1.2767 -1.5254 -1.0886
18140TIP3   OH275834   5.210   1.258   5.630  0.1220 -0.0434 -0.4414
18140TIP3    H175835   5.285   1.233   5.685 -1.3166 -0.9550  1.2014
18140TIP3    H275836   5.163   1.323   5.683 -0.6416 -0.0052 -1.1523
18141TIP3   OH275837   1.115   3.142   1.122 -0.4135  0.2424  0.2792
18141TIP3    H175838   1.190   3.107   1.171 -0.1936 -0.6021 -0.6381
18141TIP3    H275839   1.095   3.075   1.057 -1.5185  0.7789  0.0393
18142TIP3   OH275840   5.161   4.840   4.906  0.1128 -0.1759  0.0833
18142TIP3    H175841   5.101   4.899   4.953  0.3924 -1.0591  1.6119
18142TIP3    H275842   5.230   4.820   4.970  0.6649 -1.2034 -0.8015
18143TIP3   OH275843   6.109   4.776   5.458 -0.4164 -0.0142  0.1077
18143TIP3    H175844   6.073   4.865   5.465 -0.1724 -0.0574  2.4208
18143TIP3    H275845   6.052   4.722   5.512  0.4335 -0.9546  0.1029
18144TIP3   OH275846   6.437   4.160   5.481 -0.3043  0.3388 -0.4222
18144TIP3    H175847   6.440   4.252   5.455  1.2476  0.4111 -0.0587
18144TIP3    H275848   6.423   4.113   5.399  2.6257  0.6940 -1.2468
18145TIP3   OH275849   0.068   4.262   4.213 -0.4908  1.3242 -0.4256
18145TIP3    H175850   0.026   4.177   4.202  2.5170 -0.3500 -0.2257
18145TIP3    H275851   0.046   4.310   4.133  0.0182 -0.7685 -1.9057
18146TIP3   OH275852   5.936   3.857   0.557 -0.2466 -0.0732 -0.2361
18146TIP3    H175853   5.846   3.825   0.554 -0.8373  1.3802  0.7928
18146TIP3    H275854   5.990   3.779   0.546 -1.6041 -1.2935  1.2722
18147TIP3   OH275855   6.166   3.026   1.759  0.3562  0.2498 -0.4079
18147TIP3    H175856   6.118   2.962   1.811  1.9370 -1.0352 -0.4583
18147TIP3    H275857   6.165   2.990   1.670 -0.4947  1.3541 -0.8715
18148TIP3   OH275858   5.118   0.019   0.648 -0.2202 -0.4443  0.0816
18148TIP3    H175859   5.202   0.037   0.606 -1.4069  0.6597 -1.9904
18148TIP3    H275860   5.112   0.082   0.719 -0.7468  2.0204 -1.9971
18149TIP3   OH275861   6.107   1.678  12.865 -0.0478  0.4207  0.4673
18149TIP3    H175862   6.098   1.591  12.903 -0.3927  0.2551  0.0056
18149TIP3    H275863   6.023   1.721  12.884 -0.4913  0.0957 -0.7164
18150TIP3   OH275864   6.184   2.640   4.639 -0.0320  0.1599 -0.1710
18150TIP3    H175865   6.223   2.726   4.625 -0.9328  0.3963 -1.3507
18150TIP3    H275866   6.130   2.650   4.718 -0.3041  0.7261 -0.4290
18151TIP3   OH275867   4.653   3.466   2.497  0.0930  0.6174  0.0413
18151TIP3    H175868   4.694   3.537   2.448  0.4574 -0.3286 -1.0829
18151TIP3    H275869   4.684   3.477   2.587  0.7921  1.3958 -0.2867
18152TIP3   OH275870   4.122   0.554   1.730  0.2158 -0.4506 -0.3074
18152TIP3    H175871   4.216   0.570   1.728  0.0789  0.3834 -0.1451
18152TIP3    H275872   4.085   0.625   1.678 -0.6636  1.6871  2.9515
18153TIP3   OH275873   5.058   0.004  16.666  0.1120  0.5087  0.1338
18153TIP3    H175874   5.022  -0.081  16.640 -0.3154  0.9202 -0.6729
18153TIP3    H275875   4.984   0.065  16.658  0.0970  0.7696  1.8563
18154TIP3   OH275876   5.318   0.238  14.353  0.0333  0.3744  0.2099
18154TIP3    H175877   5.391   0.194  14.397  0.8667  0.6022 -0.8967
18154TIP3    H275878   5.360   0.304  14.298 -0.8987 -0.3995 -1.5062
18155TIP3   OH275879   0.005   3.612   1.160 -0.7428 -0.3666  0.2438
18155TIP3    H175880  -0.060   3.670   1.122  0.4248  0.6188 -0.3174
18155TIP3    H275881   0.087   3.661   1.157  0.6790 -2.6211 -1.8340
18156TIP3   OH275882   5.433   1.156   2.738  0.5613 -0.0463  0.6993
18156TIP3    H175883   5.387   1.155   2.822 -0.2787 -0.7539  0.2418
18156TIP3    H275884   5.452   1.064   2.721  0.1783  0.0342 -0.1847
18157TIP3   OH275885   0.501   3.775   1.793  0.1087  0.0931  0.5339
18157TIP3    H175886   0.558   3.710   1.834  1.5188  2.5079  2.7696
18157TIP3    H275887   0.437   3.796   1.861 -0.9680  0.2997 -0.5209
18158TIP3   OH275888   0.879   5.114  16.270  0.5793  0.1749 -0.4926
18158TIP3    H175889   0.897   5.171  16.195 -0.1037 -1.0418 -1.6304
18158TIP3    H275890   0.881   5.026  16.233 -0.3949 -0.4219  0.8086
18159TIP3   OH275891   3.074   0.196  13.828 -0.3846  0.3346  0.1734
18159TIP3    H175892   2.996   0.234  13.869 -1.0301 -1.3035  0.5540
18159TIP3    H275893   3.044   0.112  13.793  1.0181  0.0617 -0.4546
18160TIP3   OH275894   4.943   0.827   5.444  0.0368 -0.0603 -0.1304
18160TIP3    H175895   4.976   0.824   5.534  1.3450  1.0886 -0.5280
18160TIP3    H275896   4.885   0.902   5.442 -0.0978 -0.1667 -0.2140
18161TIP3   OH275897   3.858   6.113  14.633 -0.5689  0.2241 -0.4047
18161TIP3    H175898   3.820   6.167  14.563  2.3870  1.7464 -0.9900
18161TIP3    H275899   3.883   6.032  14.588 -0.3270  0.4632 -0.7084
18162TIP3   OH275900   5.402   4.690  13.412 -0.2404  0.0408 -0.0893
18162TIP3    H175901   5.379   4.669  13.503 -1.5321 -0.6109 -0.5416
18162TIP3    H275902   5.487   4.648  13.399 -1.1020 -1.9017  0.1479
18163TIP3   OH275903   0.201   3.931  16.702 -0.7948  0.1919 -0.2588
18163TIP3    H175904   0.154   3.897  16.626 -1.3748 -0.9459  0.5766
18163TIP3    H275905   0.132   3.956  16.764 -0.3260 -0.2888  0.4693
18164TIP3   OH275906   5.121   6.105   1.688 -0.4993  0.0940  0.1569
18164TIP3    H175907   5.204   6.130   1.648 -0.4970 -1.9315 -1.2180
18164TIP3    H275908   5.064   6.181   1.672  0.3402  0.4846 -1.1859
18165TIP3   OH275909   0.470   1.729   2.091 -0.1632 -0.0722 -0.3441
18165TIP3    H175910   0.427   1.645   2.108 -0.2304  0.1589  0.7430
18165TIP3    H275911   0.534   1.737   2.162  1.3361 -0.1732 -1.6471
18166TIP3   OH275912   1.361   5.886   6.323  0.1008 -0.0909 -0.1676
18166TIP3    H175913   1.322   5.946   6.386  1.8496  0.5477  0.3417
18166TIP3    H275914   1.334   5.799   6.354 -0.8342  0.3136  0.2010
18167TIP3   OH275915   1.857   4.186   3.578 -0.0959  0.3217 -0.2913
18167TIP3    H175916   1.914   4.252   3.538 -2.1895  0.3314 -3.6894
18167TIP3    H275917   1.775   4.233   3.597 -1.3820 -1.0238 -2.1382
18168TIP3   OH275918   5.497   2.786  16.439 -0.4813  1.0121 -0.3674
18168TIP3    H175919   5.459   2.836  16.512  0.4502 -0.5222  1.2768
18168TIP3    H275920   5.581   2.827  16.423 -0.1768  0.6505  0.2583
18169TIP3   OH275921   4.243   5.159   5.640 -0.2381  0.1429 -0.4014
18169TIP3    H175922   4.194   5.239   5.657 -1.5716 -0.5680 -0.7752
18169TIP3    H275923   4.314   5.160   5.704 -1.9805  0.1577  1.6458
18170TIP3   OH275924   0.293   4.810   0.906  0.6338 -0.1706  0.2224
18170TIP3    H175925   0.325   4.895   0.877  2.2173 -0.1641  1.8205
18170TIP3    H275926   0.279   4.820   1.000 -0.4525 -1.3226  0.2215
18171TIP3   OH275927   1.109   2.937  11.189  0.0204 -0.2485 -0.1839
18171TIP3    H175928   1.016   2.923  11.204  0.0277  0.7159  0.8518
18171TIP3    H275929   1.122   3.031  11.201  1.2970 -0.5112  0.6954
18172TIP3   OH275930   0.721   3.730  11.288 -0.1933 -0.0867  0.2712
18172TIP3    H175931   0.646   3.748  11.231  0.0678 -1.5062 -0.5624
18172TIP3    H275932   0.707   3.640  11.318  1.6514 -0.7324 -0.6819
18173TIP3   OH275933   0.281   1.142  12.587 -0.7615 -0.2600 -0.3107
18173TIP3    H175934   0.193   1.154  12.624 -0.7352 -1.1177  0.0384
18173TIP3    H275935   0.337   1.126  12.663 -0.1210  1.1686 -0.4411
18174TIP3   OH275936   0.799   3.864  15.437  0.0719  0.5569  0.1299
18174TIP3    H175937   0.802   3.883  15.531 -1.7440  0.3488  0.2465
18174TIP3    H275938   0.706   3.862  15.415  0.4496 -0.0324 -1.5593
18175TIP3   OH275939   4.553   1.403  16.830 -0.2445 -0.4331 -0.0651
18175TIP3    H175940   4.595   1.432  16.749 -0.5179 -2.2384 -0.9093
18175TIP3    H275941   4.478   1.461  16.840 -0.5770 -0.5732 -1.4802
18176TIP3   OH275942   0.525   1.680  12.776  0.0411  0.3165  0.1416
18176TIP3    H175943   0.566   1.644  12.855 -0.8318 -2.0368 -0.4033
18176TIP3    H275944   0.515   1.774  12.795  0.0414 -0.1313  2.7425
18177TIP3   OH275945   2.764   5.580   1.587 -0.0376  0.0944  0.6439
18177TIP3    H175946   2.829   5.563   1.655  1.2960 -0.2494 -0.6656
18177TIP3    H275947   2.774   5.508   1.525 -1.3838  0.2688  0.1875
18178TIP3   OH275948   0.149   3.169  15.942 -0.2971 -0.4735 -0.5772
18178TIP3    H175949   0.232   3.175  15.894  0.0431 -0.7097 -0.0274
18178TIP3    H275950   0.125   3.076  15.938  0.3416 -0.7208  0.6957
18179TIP3   OH275951   0.767   2.377   3.396  0.3964 -0.2931  0.0458
18179TIP3    H175952   0.748   2.285   3.416 -0.2203 -0.1854 -0.0201
18179TIP3    H275953   0.694   2.425   3.433  1.1959  0.2740  0.9301
18180TIP3   OH275954   3.899   3.328   3.472 -0.0728 -0.0698  0.0585
18180TIP3    H175955   3.853   3.348   3.553  1.3603 -0.2618  0.9463
18180TIP3    H275956   3.922   3.413   3.436  0.9382 -0.0012  0.8409
18181TIP3   OH275957   2.412   1.208   2.644  0.0876  0.1531 -0.8158
18181TIP3    H175958   2.484   1.145   2.642 -0.7269 -0.7996 -2.4925
18181TIP3    H275959   2.369   1.197   2.559 -0.3962  2.6304 -0.9569
18182TIP3   OH275960   1.677   6.806   4.882  0.0566  0.3871  0.7359
18182TIP3    H175961   1.599   6.820   4.936 -2.6766  1.2855 -3.0007
18182TIP3    H275962   1.716   6.893   4.874  0.2661  0.3176  1.0097
18183TIP3   OH275963   3.791   3.764   5.809  0.5820 -0.7528 -0.3880
18183TIP3    H175964   3.702   3.756   5.776  0.1820  2.2738 -0.3437
18183TIP3    H275965   3.782   3.765   5.905  0.7491 -1.0459 -0.3666
18184TIP3   OH275966   1.928   3.367  11.684  0.1468  0.3890  0.3391
18184TIP3    H175967   1.969   3.328  11.761  0.3229 -2.0803 -0.8930
18184TIP3    H275968   2.002   3.393  11.629  0.0806 -0.8231 -0.3542
18185TIP3   OH275969   6.047   4.512   2.018 -0.3430 -0.3601  1.0188
18185TIP3    H175970   5.984   4.576   2.050  0.5072 -0.0156  2.0973
18185TIP3    H275971   5.994   4.439   1.984 -1.3041  0.1012  1.5037
18186TIP3   OH275972   4.933   6.630   0.639  0.5377 -0.0457  0.3666
18186TIP3    H175973   4.991   6.701   0.669 -0.1750  0.2564  1.0821
18186TIP3    H275974   4.944   6.628   0.544 -0.0383  1.5841  0.2300
18187TIP3   OH275975   6.366   4.996   1.098  0.0514 -0.1471  0.1087
18187TIP3    H175976   6.446   5.049   1.100  0.9945 -1.5323  1.0507
18187TIP3    H275977   6.343   4.990   1.005 -0.2162  2.0171 -0.0292
18188TIP3   OH275978   6.614   2.236  15.662  0.0439 -0.1995 -0.2379
18188TIP3    H175979   6.660   2.166  15.708  0.8008 -0.2658 -1.0816
18188TIP3    H275980   6.651   2.236  15.574 -0.3412  0.8995 -0.4171
18189TIP3   OH275981   0.695   1.614  11.296 -0.2211 -0.4410  0.2797
18189TIP3    H175982   0.700   1.520  11.281 -0.6641 -0.2441 -1.3316
18189TIP3    H275983   0.624   1.625  11.358 -0.8957 -1.1101 -0.3563
18190TIP3   OH275984   5.355   4.548  15.723 -0.1234  0.1648  0.2316
18190TIP3    H175985   5.351   4.470  15.778 -0.0187 -0.0714 -0.0898
18190TIP3    H275986   5.433   4.595  15.753  0.3143 -0.3020 -0.1562
18191TIP3   OH275987   4.239   1.539   1.341  0.4428 -0.4803 -0.1802
18191TIP3    H175988   4.240   1.615   1.399  0.0623 -0.7621  0.1959
18191TIP3    H275989   4.159   1.492   1.364  0.3714 -0.6777 -0.8259
18192TIP3   OH275990   0.135   5.227   3.727 -0.1341  0.1875 -0.3886
18192TIP3    H175991   0.094   5.205   3.644  0.9132  2.4381 -1.5927
18192TIP3    H275992   0.184   5.308   3.710  1.3454 -0.0705  2.0379
18193TIP3   OH275993   1.416   5.962  11.883  0.2471  0.4373  0.2240
18193TIP3    H175994   1.364   5.900  11.832  1.1903 -1.0887  1.0225
18193TIP3    H275995   1.497   5.972  11.834  0.3490  0.5500  0.4156
18194TIP3   OH275996   1.007   3.471   5.962  0.0671 -0.2181 -0.2844
18194TIP3    H175997   0.946   3.407   5.924 -0.4505  0.3127 -0.3627
18194TIP3    H275998   1.081   3.418   5.993  0.0189 -0.7704 -1.0773
18195TIP3   OH275999   0.890   0.738  12.215 -0.2562 -0.0927 -0.0413
18195TIP3    H176000   0.892   0.706  12.306 -1.3934  4.1458  1.7290
18195TIP3    H276001   0.797   0.757  12.199  0.2685  1.9713 -0.9045
18196TIP3   OH276002   6.512   4.385  12.581 -0.5628 -0.0344 -0.4949
18196TIP3    H176003   6.589   4.421  12.626 -0.5383  0.0543 -0.6054
18196TIP3    H276004   6.439   4.402  12.640 -0.4285 -0.5214 -0.1871
18197TIP3   OH276005   5.671   1.468  15.954  0.1831  0.1400 -0.5831
18197TIP3    H176006   5.722   1.549  15.948  0.6355 -0.1331 -0.5040
18197TIP3    H276007   5.725   1.403  15.908 -0.4820  0.0326 -1.2203
18198TIP3   OH276008   6.730   3.607  13.891 -0.2412  0.5852 -0.5550
18198TIP3    H176009   6.777   3.579  13.970  0.5547 -0.3716 -1.3391
18198TIP3    H276010   6.788   3.670  13.849  0.2262 -0.3659 -1.3669
18199TIP3   OH276011   6.546   0.057   1.946 -0.2012 -0.3372  0.4783
18199TIP3    H176012   6.510   0.136   1.907 -0.6653 -0.5384  0.4903
18199TIP3    H276013   6.501  -0.015   1.902 -0.1887 -0.5842  0.8594
18200TIP3   OH276014   1.763   2.401  13.209  0.9662 -0.1154 -0.3063
18200TIP3    H176015   1.797   2.489  13.194  0.8907 -0.1387 -0.6235
18200TIP3    H276016   1.774   2.387  13.303  1.4684  0.0248 -0.3446
18201TIP3   OH276017   3.193   0.907   1.131 -0.3734 -0.3330 -0.2155
18201TIP3    H176018   3.186   0.882   1.039  1.0742  0.4644 -0.5785
18201TIP3    H276019   3.103   0.901   1.165 -0.5765 -2.9318 -1.0306
18202TIP3   OH276020   1.282   6.125  12.279 -0.0171  0.0825 -0.1425
18202TIP3    H176021   1.255   6.137  12.188 -0.7481 -1.2084 -0.1180
18202TIP3    H276022   1.205   6.089  12.323  0.6600 -0.3286  0.7477
18203TIP3   OH276023   1.482   2.471  12.638  1.1318 -0.5286  0.1672
18203TIP3    H176024   1.473   2.493  12.545  0.3785 -2.0415 -0.1313
18203TIP3    H276025   1.562   2.419  12.642  1.8974  0.6428  0.5951
18204TIP3   OH276026   5.060   3.874   2.848 -0.2449  0.7369 -0.0445
18204TIP3    H176027   5.143   3.859   2.802 -0.1206  0.2911  0.3199
18204TIP3    H276028   5.051   3.798   2.906 -2.2599 -0.6729 -2.0391
18205TIP3   OH276029   3.815   2.977  13.904 -0.0536  0.0420 -0.2723
18205TIP3    H176030   3.734   3.022  13.930 -0.3299  0.0616 -1.1233
18205TIP3    H276031   3.786   2.888  13.881 -0.0266  0.3496 -1.5974
18206TIP3   OH276032   4.970   5.198  16.530 -0.1796 -0.3611 -0.5597
18206TIP3    H176033   5.031   5.249  16.476 -0.4521  0.6860  0.0940
18206TIP3    H276034   5.026   5.146  16.587  0.1030 -0.9241 -1.3303
18207TIP3   OH276035   0.491   2.683   5.633 -0.3438  0.1753  1.1929
18207TIP3    H176036   0.479   2.745   5.561 -0.9038 -0.2293  0.9296
18207TIP3    H276037   0.496   2.597   5.590  1.4880  0.1010  1.4577
18208TIP3   OH276038   6.377   5.984  13.780  0.1758 -0.0015  0.2006
18208TIP3    H176039   6.346   6.014  13.695 -0.4066  0.9116  0.7230
18208TIP3    H276040   6.397   6.064  13.828  1.6360 -0.5237  0.5302
18209TIP3   OH276041   0.187   0.781   0.332 -0.2983 -0.3807  0.1030
18209TIP3    H176042   0.181   0.817   0.244 -0.9335 -0.6308  0.0338
18209TIP3    H276043   0.273   0.740   0.336  0.0104  0.2401 -0.1639
18210TIP3   OH276044   4.797   2.024  15.542  0.0534 -0.3546 -0.0734
18210TIP3    H176045   4.826   2.102  15.590  0.5835 -0.5373 -0.0826
18210TIP3    H276046   4.726   2.055  15.485  1.5775  0.5799 -1.5726
18211TIP3   OH276047   3.390   4.190  13.937 -0.0902  0.4056  0.0359
18211TIP3    H176048   3.466   4.206  13.881  1.4399 -3.8348  0.5419
18211TIP3    H276049   3.339   4.124  13.890 -1.5188  0.4983  1.3749
18212TIP3   OH276050   6.422   0.229   1.750  0.1701  0.5384 -0.1288
18212TIP3    H176051   6.373   0.300   1.709 -0.8993 -0.9182 -1.4954
18212TIP3    H276052   6.464   0.183   1.678  2.8465  1.1415  0.9307
18213TIP3   OH276053   4.270   6.447  16.152 -0.4502  0.3120 -0.1387
18213TIP3    H176054   4.350   6.403  16.181 -0.6961 -0.2032 -0.2207
18213TIP3    H276055   4.293   6.539  16.147 -0.0386  0.2431  0.4478
18214TIP3   OH276056   0.988   5.860  15.085  0.1964 -0.3480  0.4232
18214TIP3    H176057   1.054   5.793  15.066  1.0582  0.1765  1.4703
18214TIP3    H276058   0.987   5.916  15.007  0.5168 -0.7383  0.1357
18215TIP3   OH276059   5.443   2.916  11.981  0.1074  0.1732 -0.2352
18215TIP3    H176060   5.500   2.970  12.036 -0.2723  0.2628  0.0815
18215TIP3    H276061   5.409   2.850  12.041 -0.7575  0.6142 -0.2261
18216TIP3   OH276062   4.009   5.086   3.735  0.0295  0.2248  0.2206
18216TIP3    H176063   4.019   5.051   3.647  0.1429 -0.5774  0.5452
18216TIP3    H276064   3.915   5.090   3.750 -0.0082 -1.9130  0.9236
18217TIP3   OH276065   1.774   4.962   5.822 -0.3184  0.1384 -0.5196
18217TIP3    H176066   1.695   4.917   5.851 -0.0442 -0.3936 -0.5932
18217TIP3    H276067   1.764   5.052   5.855 -0.6767 -0.0832 -0.0202
18218TIP3   OH276068   0.723   1.894   5.423  0.7059 -0.0057  0.0434
18218TIP3    H176069   0.731   1.946   5.343  0.4395 -0.8587 -0.5533
18218TIP3    H276070   0.789   1.826   5.414 -0.3159 -0.9945 -0.1515
18219TIP3   OH276071   5.414   3.310  15.578  0.0852  0.2584 -0.5641
18219TIP3    H176072   5.396   3.403  15.560 -0.0558  0.6701  1.5185
18219TIP3    H276073   5.510   3.305  15.582  0.0757  0.4751  0.0398
18220TIP3   OH276074   5.854   2.829  16.096 -0.3472  0.3317 -0.0128
18220TIP3    H176075   5.825   2.753  16.045  0.0467 -0.1122  0.4127
18220TIP3    H276076   5.942   2.805  16.126 -0.3709  0.8045  0.4366
18221TIP3   OH276077   0.417   1.835  14.766  0.5358  0.1622  0.0148
18221TIP3    H176078   0.399   1.890  14.690 -0.3085 -0.8074 -0.5092
18221TIP3    H276079   0.466   1.761  14.730  0.6184 -0.0230  0.5076
18222TIP3   OH276080   3.583   3.541   3.419  0.3267 -0.0010 -0.1039
18222TIP3    H176081   3.558   3.624   3.379  0.3718  0.7095  1.2838
18222TIP3    H276082   3.555   3.548   3.510 -0.0777 -1.7004 -0.0612
18223TIP3   OH276083   5.358   5.458  11.448  0.0617  0.3719 -0.5398
18223TIP3    H176084   5.416   5.528  11.479 -0.1715  0.5642 -0.5372
18223TIP3    H276085   5.270   5.490  11.466 -0.0878  0.5677 -1.5511
18224TIP3   OH276086   2.155   1.756   5.200 -0.3333 -0.6343 -0.0585
18224TIP3    H176087   2.142   1.667   5.167  0.9223 -0.4576 -1.0809
18224TIP3    H276088   2.231   1.750   5.258 -1.6638 -0.6575  1.7774
18225TIP3   OH276089   0.769   1.261  12.019  0.4505  0.1675  0.5650
18225TIP3    H176090   0.782   1.221  11.933  1.8050  0.1114  0.7779
18225TIP3    H276091   0.840   1.324  12.027 -0.2324  0.8866  1.2531
18226TIP3   OH276092   3.230   1.781  14.636 -0.2459  0.3279  0.2643
18226TIP3    H176093   3.145   1.740  14.624  0.1405  0.0306 -1.7554
18226TIP3    H276094   3.255   1.812  14.549  1.8510  0.1122  0.7195
18227TIP3   OH276095   0.747   5.207  14.490 -0.0343 -0.5951 -0.1017
18227TIP3    H176096   0.706   5.154  14.422 -1.4690  0.6997 -0.2944
18227TIP3    H276097   0.811   5.260  14.444  0.0750 -0.8125 -0.2023
18228TIP3   OH276098   4.263   1.729   2.211 -0.4792 -0.0168 -0.2141
18228TIP3    H176099   4.235   1.664   2.276  1.3586 -0.7006 -0.0655
18228TIP3    H276100   4.355   1.710   2.196 -0.4244  1.2680 -1.7227
18229TIP3   OH276101   2.672   2.898   2.629 -0.4761 -0.7573  0.2266
18229TIP3    H176102   2.644   2.809   2.606  0.2062 -1.1256  0.7767
18229TIP3    H276103   2.736   2.921   2.561 -1.1993 -0.3897 -0.3389
18230TIP3   OH276104   2.440   2.282  16.840  0.2674  0.1116 -0.0261
18230TIP3    H176105   2.388   2.346  16.888 -0.1685  0.3673 -0.8202
18230TIP3    H276106   2.420   2.298  16.748 -1.3074 -2.3781 -0.2099
18231TIP3   OH276107   6.530   6.252   0.093 -0.2953 -0.2754 -0.0473
18231TIP3    H176108   6.474   6.316   0.139  0.6588  1.7056 -1.5120
18231TIP3    H276109   6.496   6.251   0.003  2.4928  1.7319 -1.2486
18232TIP3   OH276110   1.121   0.731  15.969  0.0382  0.3511 -0.0947
18232TIP3    H176111   1.054   0.663  15.970  0.3834  0.0088  0.0802
18232TIP3    H276112   1.188   0.700  16.031 -0.0585  1.1083  0.4085
18233TIP3   OH276113   4.380   1.009   1.178  0.5808 -0.2177  0.2910
18233TIP3    H176114   4.389   1.104   1.191  0.2121  0.1063 -1.6192
18233TIP3    H276115   4.381   0.997   1.083  0.7734 -2.1622  0.5020
18234TIP3   OH276116   2.189   6.281  12.179 -0.0052  0.1505 -0.3279
18234TIP3    H176117   2.247   6.351  12.149  1.1026 -0.7294 -0.3174
18234TIP3    H276118   2.108   6.293  12.129  0.8418  0.3369 -1.6880
18235TIP3   OH276119   1.767   4.901   2.712 -0.1548 -0.0925  0.3764
18235TIP3    H176120   1.685   4.851   2.710 -0.0915 -0.1922 -1.6361
18235TIP3    H276121   1.810   4.880   2.629  2.0520 -0.2276  1.4945
18236TIP3   OH276122   2.859   5.333  13.280 -0.0519  0.3523 -0.1203
18236TIP3    H176123   2.890   5.424  13.282 -1.8005  0.9884 -0.0459
18236TIP3    H276124   2.806   5.327  13.201  1.5261 -1.1682 -1.1204
18237TIP3   OH276125   3.924   3.781   1.697 -0.5945 -0.1825  0.4109
18237TIP3    H176126   3.971   3.859   1.668 -1.4356  0.2808  0.2508
18237TIP3    H276127   3.832   3.809   1.700 -1.3525 -1.9725 -2.4653
18238TIP3   OH276128   4.425   4.717   2.119  0.5297  0.0362 -0.5203
18238TIP3    H176129   4.421   4.812   2.110 -0.2172  0.1799  0.9866
18238TIP3    H276130   4.506   4.692   2.074  2.5218  1.7638  1.8326
18239TIP3   OH276131   3.021   6.290   0.898 -0.2866 -0.3798 -0.1060
18239TIP3    H176132   3.012   6.298   0.803  1.4502 -0.0018 -0.2740
18239TIP3    H276133   3.114   6.270   0.912 -0.7456 -1.6832  1.4496
18240TIP3   OH276134   3.924   3.302  12.385  0.2749  0.5489  0.0720
18240TIP3    H176135   3.868   3.276  12.312  0.6230  1.0438 -0.3710
18240TIP3    H276136   3.954   3.390  12.363  1.8947 -0.0164 -0.1092
18241TIP3   OH276137   1.400   0.063  15.283 -0.0693  0.0288 -0.0328
18241TIP3    H176138   1.437  -0.005  15.340 -0.0935  0.4186  0.4479
18241TIP3    H276139   1.364   0.014  15.209 -0.2382 -0.5002  0.3923
18242TIP3   OH276140   4.201   3.558   4.387 -0.3440  0.2085  0.0604
18242TIP3    H176141   4.168   3.642   4.418  0.4852  0.6320 -0.1693
18242TIP3    H276142   4.203   3.567   4.292 -0.5833 -0.2022  0.0147
18243TIP3   OH276143   6.029   2.646   2.186 -0.3920  0.3760  0.6775
18243TIP3    H176144   6.030   2.671   2.278  1.5740 -0.0875  0.8161
18243TIP3    H276145   6.016   2.729   2.139  0.5246  0.8937  1.3106
18244TIP3   OH276146   5.229   3.065   2.416  0.4143 -0.1788  0.2470
18244TIP3    H176147   5.322   3.061   2.396  0.3482 -2.4928  0.1405
18244TIP3    H276148   5.194   3.129   2.354  1.5743 -1.0447 -1.3873
18245TIP3   OH276149   2.875   4.340   2.925 -0.7555  0.8559  0.1034
18245TIP3    H176150   2.873   4.360   2.832  0.4372  0.6643  0.0278
18245TIP3    H276151   2.822   4.261   2.933  0.9589 -0.4509 -0.7809
18246TIP3   OH276152   6.178   0.136   0.182 -0.5002  0.3556  0.6037
18246TIP3    H176153   6.083   0.148   0.184 -0.4738  0.7923 -0.2752
18246TIP3    H276154   6.207   0.185   0.105  0.3972 -0.0734  0.6548
18247TIP3   OH276155   5.285   3.037   1.370 -0.0957  0.1843  0.1282
18247TIP3    H176156   5.304   3.045   1.276 -0.8812  1.3894  0.0472
18247TIP3    H276157   5.326   2.954   1.396  0.6984  0.1500 -1.1343
18248TIP3   OH276158   0.550   6.217  15.682  0.1068  0.0255  0.2096
18248TIP3    H176159   0.593   6.235  15.765 -2.1199  1.5216  1.1280
18248TIP3    H276160   0.457   6.228  15.700 -0.5400 -0.8256 -2.1996
18249TIP3   OH276161   3.919   1.366  10.854 -0.4347 -0.1482 -0.5713
18249TIP3    H176162   3.888   1.452  10.825 -0.3748 -0.5902 -2.0116
18249TIP3    H276163   3.984   1.340  10.789 -1.0830 -1.6602 -0.6585
18250TIP3   OH276164   3.261   2.619  11.243 -0.1268 -0.4509 -0.4220
18250TIP3    H176165   3.209   2.684  11.291 -0.0234 -1.4423  1.1152
18250TIP3    H276166   3.331   2.670  11.203  0.3467  0.3468  1.3165
18251TIP3   OH276167   1.888   4.754  15.831 -0.5874 -0.2009  0.1582
18251TIP3    H176168   1.924   4.830  15.786 -0.1477 -0.5789 -0.1351
18251TIP3    H276169   1.961   4.692  15.837 -1.8377 -2.2639 -3.1437
18252TIP3   OH276170   6.615   0.192   5.235  0.3851 -0.0535 -0.2794
18252TIP3    H176171   6.543   0.247   5.205  0.4959  0.4979  0.4450
18252TIP3    H276172   6.692   0.250   5.234  0.5345 -0.2313  0.3288
18253TIP3   OH276173   5.915   3.041  10.907  0.0290  0.4749  0.6911
18253TIP3    H176174   5.879   2.968  10.958  0.7998  0.6297  1.4727
18253TIP3    H276175   5.924   3.005  10.818  1.0069 -0.6096  1.2058
18254TIP3   OH276176   5.444   4.666  15.406 -0.2026 -0.4776  0.2649
18254TIP3    H176177   5.444   4.575  15.375  2.9956 -0.5691  0.1872
18254TIP3    H276178   5.432   4.718  15.327  0.3799 -0.8216 -0.0602
18255TIP3   OH276179   0.524   2.363   4.684  0.4825  0.4947 -0.4639
18255TIP3    H176180   0.613   2.395   4.674  0.4923  0.9021  0.7169
18255TIP3    H276181   0.533   2.268   4.691  0.9025  0.5779  0.2737
18256TIP3   OH276182   5.778   0.918   5.402  0.0817  0.1137  0.1137
18256TIP3    H176183   5.709   0.977   5.433  0.5202 -0.1372  1.6627
18256TIP3    H276184   5.857   0.949   5.446  0.2144 -1.9689  1.4693
18257TIP3   OH276185   5.138   0.646  12.029 -0.5744  0.2056  0.1069
18257TIP3    H176186   5.211   0.600  11.988 -0.7677 -0.9618  1.0024
18257TIP3    H276187   5.061   0.595  12.006 -0.8989  0.5336  0.4507
18258TIP3   OH276188   3.095   6.249  16.548 -0.2146  0.3120 -0.1292
18258TIP3    H176189   3.136   6.207  16.472 -0.1226  0.6053 -0.2448
18258TIP3    H276190   3.030   6.308  16.510 -1.3034 -0.7116  0.0649
18259TIP3   OH276191   4.186   3.689   2.995  0.5760  0.0226 -0.4204
18259TIP3    H176192   4.137   3.607   3.001  0.3074  0.1532 -0.8401
18259TIP3    H276193   4.270   3.663   2.957  0.2161  0.0501 -1.2498
18260TIP3   OH276194   1.940   5.081  12.852  0.3791 -0.3449 -0.7336
18260TIP3    H176195   2.017   5.125  12.886  0.4610 -1.5583  0.7502
18260TIP3    H276196   1.946   5.092  12.757  1.2424  1.3635 -0.5086
18261TIP3   OH276197   2.777   5.087  12.784  0.3808  0.1144  0.0675
18261TIP3    H176198   2.867   5.058  12.795  0.0024 -0.9473  0.4571
18261TIP3    H276199   2.779   5.144  12.707  1.3206 -0.1525 -0.1090
18262TIP3   OH276200   4.352   0.171  15.255  0.0810  0.1514 -0.1326
18262TIP3    H176201   4.262   0.179  15.287  0.3917  0.6226  0.6528
18262TIP3    H276202   4.394   0.253  15.281  0.8416 -0.2256 -0.1479
18263TIP3   OH276203   6.085   6.543   3.146 -0.0156  0.2282  0.2176
18263TIP3    H176204   6.037   6.466   3.115 -1.6149  0.4533  1.9472
18263TIP3    H276205   6.150   6.508   3.206  2.4273 -0.1127 -2.3899
18264TIP3   OH276206   4.026   5.670   5.508  0.4363 -0.5966 -0.0046
18264TIP3    H176207   3.961   5.688   5.576 -0.2691  0.8811 -1.0333
18264TIP3    H276208   3.984   5.696   5.427  1.5657 -1.5786 -0.9421
18265TIP3   OH276209   6.477   0.142  14.822 -0.8397  0.4614  0.3364
18265TIP3    H176210   6.477   0.237  14.829 -0.1116  0.4137  1.0815
18265TIP3    H276211   6.392   0.115  14.856 -0.2325  0.7184  2.1282
18266TIP3   OH276212   3.770   2.209   1.235 -0.2134  0.3603 -0.7034
18266TIP3    H176213   3.805   2.296   1.253 -0.4652  0.1537  1.0483
18266TIP3    H276214   3.837   2.166   1.182 -0.1550  1.6583 -1.7049
18267TIP3   OH276215   5.169   6.488   2.221 -0.1309  0.5329 -0.0529
18267TIP3    H176216   5.238   6.483   2.155 -1.7519  1.0212 -1.8803
18267TIP3    H276217   5.209   6.452   2.301  1.5722 -1.1310 -1.5548
18268TIP3   OH276218   6.743   6.698   0.178  0.0672  0.2108  0.2682
18268TIP3    H176219   6.654   6.700   0.212  0.5731 -0.4973  1.7042
18268TIP3    H276220   6.797   6.734   0.248  1.1115 -0.9764  0.1155
18269TIP3   OH276221   2.701   0.717  16.473 -0.0448 -0.2525  0.1691
18269TIP3    H176222   2.767   0.742  16.538 -0.1909  2.3967 -0.6008
18269TIP3    H276223   2.706   0.784  16.405 -2.2531 -1.0073 -0.8632
18270TIP3   OH276224   2.578   3.481   0.026 -0.1925 -0.6279  0.3085
18270TIP3    H176225   2.542   3.494  -0.062  0.4174 -1.7447 -0.1319
18270TIP3    H276226   2.646   3.414   0.014  0.6557  0.0024  1.4440
18271TIP3   OH276227   3.934   4.727  13.750  0.1967  0.3997 -0.3686
18271TIP3    H176228   3.877   4.702  13.677  1.0163  1.2164 -1.3127
18271TIP3    H276229   3.901   4.677  13.824 -2.1429  1.2647 -0.7305
18272TIP3   OH276230   1.832   0.865   2.652  0.0084  0.3105 -0.0820
18272TIP3    H176231   1.874   0.944   2.684 -1.3818  1.5644 -1.2051
18272TIP3    H276232   1.746   0.864   2.694 -0.1111 -0.4540 -0.3138
18273TIP3   OH276233   6.075   1.823  12.105  0.4692 -0.1526 -0.3255
18273TIP3    H176234   6.031   1.886  12.161  0.9341 -1.2590  1.3691
18273TIP3    H276235   6.159   1.864  12.084  0.5045  0.0637  0.2289
18274TIP3   OH276236   2.226   6.555  16.898 -0.0843  0.4759  0.2446
18274TIP3    H176237   2.307   6.603  16.916 -0.0077  0.8209 -0.9892
18274TIP3    H276238   2.160   6.598  16.954  0.1755  1.4645 -0.1806
18275TIP3   OH276239   4.908   0.409  14.958  0.1205 -0.1812 -0.2907
18275TIP3    H176240   4.923   0.381  14.868  2.6560  1.1880 -0.3765
18275TIP3    H276241   4.923   0.331  15.011 -1.6163 -1.0509 -1.0129
18276TIP3   OH276242   5.028   4.140   4.986 -0.2492  0.0583  0.0263
18276TIP3    H176243   4.990   4.214   4.939  0.4294  0.4383  0.0734
18276TIP3    H276244   5.066   4.178   5.064 -1.8057 -0.6280  1.1785
18277TIP3   OH276245   3.541   4.432   3.033 -0.4371  0.2522  0.0959
18277TIP3    H176246   3.498   4.514   3.056 -0.5983 -0.6461  3.4857
18277TIP3    H276247   3.470   4.373   3.011 -0.7393 -0.1623  2.0145
18278TIP3   OH276248   3.978   4.714   5.511  0.2559  0.2310 -0.1062
18278TIP3    H176249   4.032   4.772   5.564 -0.5975  0.2785  0.7222
18278TIP3    H276250   3.942   4.650   5.573  0.0543 -0.3340 -0.7824
18279TIP3   OH276251   2.909   1.002  15.356 -0.0058  0.7489  0.0571
18279TIP3    H176252   2.978   0.984  15.293 -1.6881 -0.4021 -1.5520
18279TIP3    H276253   2.953   1.050  15.426  2.3913  0.1276 -0.9116
18280TIP3   OH276254   1.105   0.866  13.595 -0.5801 -0.7870 -0.2545
18280TIP3    H176255   1.141   0.777  13.589  0.1362 -0.4745 -0.8488
18280TIP3    H276256   1.092   0.892  13.503  2.0949  0.8268 -0.2916
18281TIP3   OH276257   1.810   5.799   1.434 -0.1087  0.1460  0.7637
18281TIP3    H176258   1.800   5.827   1.525 -1.0736  0.7487  0.4885
18281TIP3    H276259   1.794   5.878   1.383  0.0748 -0.2641  0.0580
18282TIP3   OH276260   5.063   2.497  14.378  0.2115 -0.4618  0.6511
18282TIP3    H176261   5.020   2.469  14.459 -2.0362 -3.3947 -1.3596
18282TIP3    H276262   5.150   2.456  14.383  1.2593  1.7849  2.7431
18283TIP3   OH276263   4.545   6.419   4.293 -0.4950  0.1342 -0.3047
18283TIP3    H176264   4.604   6.459   4.356 -0.3967 -0.9488  0.3224
18283TIP3    H276265   4.594   6.419   4.210 -1.2147  2.9873 -0.8224
18284TIP3   OH276266   5.497   1.792   5.104 -0.5013 -0.3433 -0.1132
18284TIP3    H176267   5.478   1.751   5.188 -0.7354  0.1395  0.0735
18284TIP3    H276268   5.531   1.879   5.127  1.9217 -1.1272 -0.4104
18285TIP3   OH276269   3.270   2.004   1.326 -0.0912 -0.0925 -0.5300
18285TIP3    H176270   3.342   2.004   1.390  1.6108 -2.7262 -2.2463
18285TIP3    H276271   3.278   2.088   1.281  0.7556  0.4040  0.5001
18286TIP3   OH276272   4.129   2.103  14.828  0.2175  0.2582 -0.0344
18286TIP3    H176273   4.116   2.010  14.845  1.9156 -0.1369 -0.6542
18286TIP3    H276274   4.097   2.115  14.738 -0.0318  0.2822  0.0574
18287TIP3   OH276275   3.884   3.729  16.000 -0.3597  0.0585  0.0580
18287TIP3    H176276   3.852   3.642  15.976  0.3696  0.0137 -0.7791
18287TIP3    H276277   3.924   3.717  16.086  0.5081 -0.6212 -0.4331
18288TIP3   OH276278   3.860   5.303   5.296 -0.0845  0.6277  0.3184
18288TIP3    H176279   3.951   5.327   5.282 -0.3013  1.0469 -0.4786
18288TIP3    H276280   3.841   5.328   5.386  0.8923 -0.4969  0.8715
18289TIP3   OH276281   4.277   4.523   5.983  0.4119  0.7250  0.5720
18289TIP3    H176282   4.335   4.581   6.032  1.6938  0.5882 -0.7293
18289TIP3    H276283   4.216   4.581   5.939  0.3337  0.9434  0.9599
18290TIP3   OH276284   3.400   6.480  14.684 -0.1406  0.1981  0.2392
18290TIP3    H176285   3.308   6.467  14.661 -0.0479  1.8889 -1.3665
18290TIP3    H276286   3.398   6.518  14.772 -0.7925 -1.8851  1.2037
18291TIP3   OH276287   5.958   0.667   2.355 -0.2366 -0.0158  0.4116
18291TIP3    H176288   5.902   0.596   2.324 -2.0176  1.2547  0.5569
18291TIP3    H276289   5.967   0.725   2.279  0.0753  0.2647  0.6611
18292TIP3   OH276290   3.378   5.916  11.304  0.1212  0.0549  0.3560
18292TIP3    H176291   3.335   5.885  11.383 -1.9438 -0.1576 -0.7845
18292TIP3    H276292   3.339   6.001  11.286 -2.1988 -1.4008 -2.3218
18293TIP3   OH276293   0.912   6.748   0.613  0.4162  0.1462  0.1431
18293TIP3    H176294   0.876   6.836   0.609  1.0251  0.4644  1.3149
18293TIP3    H276295   1.003   6.758   0.583 -0.4195 -0.7014 -3.1527
18294TIP3   OH276296   1.206   2.789   4.324  0.4321  0.1158 -0.0456
18294TIP3    H176297   1.159   2.746   4.396  1.1514 -1.0196 -0.2283
18294TIP3    H276298   1.247   2.717   4.276  1.1789  0.9749 -0.7297
18295TIP3   OH276299   6.363   5.840   1.150 -0.4753  0.6570  0.4311
18295TIP3    H176300   6.381   5.797   1.234  1.5797 -1.0897 -0.8061
18295TIP3    H276301   6.291   5.789   1.112  1.4607 -1.4072 -0.6979
18296TIP3   OH276302   5.121   4.406   1.863  0.5575  0.0305 -0.3501
18296TIP3    H176303   5.054   4.339   1.874  1.6608 -0.9038  0.8510
18296TIP3    H276304   5.086   4.482   1.909 -0.7178  0.3664 -1.7549
18297TIP3   OH276305   0.767   5.003  12.386 -0.1807  0.0083  0.0267
18297TIP3    H176306   0.704   5.028  12.318 -1.5556 -0.9172  0.9133
18297TIP3    H276307   0.790   5.085  12.428  1.1377  0.6871 -1.8719
18298TIP3   OH276308   0.232   2.131   1.676 -0.2084  0.5678  0.0464
18298TIP3    H176309   0.237   2.085   1.760 -2.2646 -0.9104 -0.5627
18298TIP3    H276310   0.170   2.202   1.691 -0.1713  0.6286 -0.0868
18299TIP3   OH276311   6.741   6.706  16.987 -0.2617  0.1463 -0.5164
18299TIP3    H176312   6.667   6.742  17.036 -0.3375  0.5477 -0.9103
18299TIP3    H276313   6.795   6.663  17.053  0.7181  2.4400  0.2769
18300TIP3   OH276314   3.326   4.885  11.612 -0.6459 -0.2353  0.6170
18300TIP3    H176315   3.257   4.925  11.559 -0.3247  0.8153  0.9659
18300TIP3    H276316   3.382   4.839  11.549 -0.1273  1.1961 -0.0211
18301TIP3   OH276317   1.966   6.466   4.190  0.3234  0.2722  0.6009
18301TIP3    H176318   1.887   6.483   4.241 -0.4079  2.9123 -1.2093
18301TIP3    H276319   1.983   6.372   4.202 -1.7317  0.1029  2.8713
18302TIP3   OH276320   3.851   3.179  16.893 -0.2379  0.5325  0.3988
18302TIP3    H176321   3.843   3.156  16.986 -0.8600 -0.4590  0.1180
18302TIP3    H276322   3.940   3.213  16.885  0.1895 -0.3496  1.1632
18303TIP3   OH276323   1.063   4.476   4.200  0.8037  0.0264 -0.0659
18303TIP3    H176324   1.102   4.464   4.287  3.0862  2.1780 -0.6818
18303TIP3    H276325   0.985   4.529   4.216 -0.2716 -1.7160  0.8582
18304TIP3   OH276326   1.014   0.515   3.302 -0.0616 -0.1184 -0.4235
18304TIP3    H176327   0.953   0.442   3.309  1.3269 -1.6031 -2.4938
18304TIP3    H276328   0.983   0.565   3.226  1.4573 -1.1722 -1.8116
18305TIP3   OH276329   4.295   4.622   0.223  0.0254 -0.1690 -0.6097
18305TIP3    H176330   4.306   4.698   0.165 -0.8970  0.2637 -0.2503
18305TIP3    H276331   4.314   4.547   0.168 -1.5893  0.1825 -1.7318
18306TIP3   OH276332   5.530   4.373   6.159  0.2418 -0.2713  0.5889
18306TIP3    H176333   5.575   4.292   6.135 -1.7559 -1.5899  1.0066
18306TIP3    H276334   5.462   4.345   6.220 -1.5232  1.4672 -0.4442
18307TIP3   OH276335   0.745   1.976   3.063  0.2503  0.7813 -0.0433
18307TIP3    H176336   0.674   1.925   3.025  2.9184 -3.2153 -0.2932
18307TIP3    H276337   0.747   1.949   3.155  2.8632 -1.3336 -0.5846
18308TIP3   OH276338   2.252   3.158   0.461 -0.1163 -0.3872  0.5068
18308TIP3    H176339   2.345   3.137   0.452 -0.4858 -1.6567 -0.7321
18308TIP3    H276340   2.211   3.076   0.489 -0.7999  0.3093  1.6155
18309TIP3   OH276341   4.212   5.638  14.178 -0.1942  0.4471 -0.0238
18309TIP3    H176342   4.214   5.594  14.263  1.5674  0.5093  0.0001
18309TIP3    H276343   4.174   5.573  14.118  0.9431 -0.5870  0.3186
18310TIP3   OH276344   1.547   4.040   2.292  0.3435 -0.1777 -0.0142
18310TIP3    H176345   1.477   4.050   2.227  0.0354  2.4287  0.6008
18310TIP3    H276346   1.524   3.960   2.339 -0.7256 -0.8430 -1.5612
18311TIP3   OH276347   4.392   0.719  11.578  0.1140 -0.2263  0.6983
18311TIP3    H176348   4.312   0.715  11.526  0.5282 -1.3956  0.1265
18311TIP3    H276349   4.367   0.768  11.657 -1.1908 -0.6663  0.5756
18312TIP3   OH276350   3.474   0.455   3.992 -0.5621 -0.4523 -0.1426
18312TIP3    H176351   3.475   0.423   3.902 -1.8635 -0.3217 -0.2150
18312TIP3    H276352   3.492   0.549   3.985 -1.0630 -0.3660 -0.3101
18313TIP3   OH276353   3.345   1.394  11.991 -0.0027  0.2971  0.0903
18313TIP3    H176354   3.355   1.334  11.917  0.0218  1.0545 -0.5363
18313TIP3    H276355   3.394   1.354  12.062 -2.1160 -1.7486  0.5094
18314TIP3   OH276356   2.709   0.315  12.923  0.0484  0.2754  0.0304
18314TIP3    H176357   2.797   0.280  12.938  0.4106  0.5156 -1.3528
18314TIP3    H276358   2.659   0.241  12.889 -0.2156  0.2022  0.5736
18315TIP3   OH276359   3.480   2.155  12.998 -0.2994  0.0047 -0.5502
18315TIP3    H176360   3.460   2.164  13.091 -0.1012  2.6445 -0.6867
18315TIP3    H276361   3.563   2.202  12.987  0.7893 -2.0666 -1.7385
18316TIP3   OH276362   5.922   3.497  14.598 -0.2263 -0.1129 -0.2994
18316TIP3    H176363   5.838   3.542  14.601 -0.7383 -1.0745  0.4286
18316TIP3    H276364   5.974   3.548  14.537 -1.4500  0.3147 -1.0237
18317TIP3   OH276365   4.372   0.900   4.976  0.3765  0.1052 -0.3117
18317TIP3    H176366   4.318   0.905   4.898 -0.6188 -2.9208  0.0586
18317TIP3    H276367   4.323   0.948   5.043 -0.1305  0.3329 -0.8441
18318TIP3   OH276368   2.099   0.149   7.041 -0.8056  0.1860  0.3275
18318TIP3    H176369   2.085   0.166   6.948  0.6638  0.9727  0.2117
18318TIP3    H276370   2.086   0.055   7.051 -2.0276  0.2528 -0.4518
18319TIP3   OH276371   2.832   6.246  14.408 -1.1772  0.5171 -0.6413
18319TIP3    H176372   2.924   6.271  14.397 -1.4418  0.6332 -3.2031
18319TIP3    H276373   2.835   6.163  14.454  0.2778  0.0813 -1.4736
18320TIP3   OH276374   2.182   6.709   2.937 -0.0003  0.0522 -0.2951
18320TIP3    H176375   2.134   6.627   2.925  0.1266 -0.2229  0.9342
18320TIP3    H276376   2.260   6.685   2.987  0.4740  0.7961 -0.6542
18321TIP3   OH276377   4.459   3.660  15.985 -0.1148 -0.0682 -0.1084
18321TIP3    H176378   4.440   3.682  15.893 -0.2048  0.0335 -0.0658
18321TIP3    H276379   4.533   3.715  16.007 -1.5829  1.7158  0.6113
18322TIP3   OH276380   6.464   2.319  12.986  0.1212 -0.0655  0.6296
18322TIP3    H176381   6.528   2.280  12.927 -1.9848 -0.8386 -1.3101
18322TIP3    H276382   6.434   2.398  12.940 -0.9739 -0.2312  1.0221
18323TIP3   OH276383   3.075   2.876   1.073 -0.5161  0.0121  0.0186
18323TIP3    H176384   3.063   2.913   0.985  0.8100 -1.3761 -0.7917
18323TIP3    H276385   2.996   2.824   1.088 -0.4105 -0.3658 -0.6899
18324TIP3   OH276386   5.508   2.226  15.767  0.5012  0.1730 -0.0756
18324TIP3    H176387   5.514   2.141  15.723  2.8887 -0.0103  0.4688
18324TIP3    H276388   5.485   2.287  15.697  1.2236 -0.5589 -0.9856
18325TIP3   OH276389   2.026   5.262  13.188  0.0329  0.1657  0.3455
18325TIP3    H176390   2.067   5.326  13.129 -0.7236 -0.4219 -0.8525
18325TIP3    H276391   1.941   5.301  13.209  0.1012  0.1464  0.6612
18326TIP3   OH276392   6.585   3.002   3.409  0.2096 -0.0905  0.0310
18326TIP3    H176393   6.507   2.984   3.461  0.5537  1.5465  1.2061
18326TIP3    H276394   6.658   2.987   3.469  0.7185  0.0013 -0.5521
18327TIP3   OH276395   2.394   2.103   4.317 -0.3638 -0.4795 -0.4641
18327TIP3    H176396   2.348   2.073   4.238 -2.7332 -1.1689  1.0437
18327TIP3    H276397   2.352   2.186   4.339 -0.0008 -0.4896  0.2888
18328TIP3   OH276398   4.957   0.479  16.623 -0.3517  0.6665  0.6083
18328TIP3    H176399   5.007   0.542  16.572  0.2511  0.8480  1.4073
18328TIP3    H276400   4.865   0.501  16.604 -0.1633  0.2685 -0.9367
18329TIP3   OH276401   3.710   2.786  15.546 -0.4184 -0.1266 -0.0191
18329TIP3    H176402   3.757   2.848  15.601  1.6346 -0.2653 -1.4809
18329TIP3    H276403   3.699   2.709  15.601  0.3084  0.2327  0.6533
18330TIP3   OH276404   3.991   0.280  12.743  0.3738  0.2673 -0.3106
18330TIP3    H176405   4.050   0.352  12.724  0.5536  0.5480  1.2096
18330TIP3    H276406   4.033   0.203  12.704  1.9558  0.3949  1.0444
18331TIP3   OH276407   0.262   6.248   5.456 -0.1169  0.1594  0.6276
18331TIP3    H176408   0.233   6.335   5.484  0.1198 -0.1286  1.8297
18331TIP3    H276409   0.187   6.212   5.408  0.7356  2.0632 -2.4053
18332TIP3   OH276410   2.046   6.708   6.109  0.1926  0.0429 -0.7164
18332TIP3    H176411   2.032   6.682   6.018  0.7148 -0.4933 -0.6531
18332TIP3    H276412   2.073   6.800   6.104  0.8581 -0.1689 -1.1625
18333TIP3   OH276413   5.217   2.865  16.328 -0.3642  0.4144 -0.3444
18333TIP3    H176414   5.285   2.798  16.320  0.5011  1.1313  0.6622
18333TIP3    H276415   5.143   2.820  16.367 -0.2736 -0.2515 -0.9171
18334TIP3   OH276416   4.129   3.979   5.067  0.1411 -0.5441 -0.2961
18334TIP3    H176417   4.152   3.887   5.061  0.4444 -0.5283  0.5643
18334TIP3    H276418   4.212   4.026   5.057  0.2452 -0.4288  0.9624
18335TIP3   OH276419   6.735   6.715  15.243  1.0817 -0.4036  0.1481
18335TIP3    H176420   6.717   6.784  15.180  2.3974  1.4353  1.6584
18335TIP3    H276421   6.711   6.634  15.198 -0.3725  0.9911 -1.7536
18336TIP3   OH276422   1.760   4.121  13.025  0.3204  0.3059 -0.4101
18336TIP3    H176423   1.781   4.091  12.936 -0.8691 -1.2253 -0.2138
18336TIP3    H276424   1.770   4.043  13.080  1.1723  1.2609  0.8547
18337TIP3   OH276425   6.335   3.987  15.863  0.0430 -0.1791  0.3966
18337TIP3    H176426   6.397   3.988  15.790 -0.5910 -0.3334 -0.1480
18337TIP3    H276427   6.325   4.079  15.887 -1.0308  0.0529 -0.8254
18338TIP3   OH276428   5.480   1.811   2.890 -0.1840  0.1628 -0.0816
18338TIP3    H176429   5.466   1.882   2.827  0.9457 -0.4729 -1.0985
18338TIP3    H276430   5.418   1.743   2.863 -0.9447  0.5707  0.6093
18339TIP3   OH276431   0.719   2.378  16.643  0.0006  0.3603 -0.1879
18339TIP3    H176432   0.719   2.460  16.593 -0.1990 -0.2956 -1.2771
18339TIP3    H276433   0.812   2.361  16.661  0.1024  0.3563 -0.7268
18340TIP3   OH276434   4.375   5.469   1.163 -0.5284 -0.0724  0.5836
18340TIP3    H176435   4.288   5.455   1.125 -1.0466 -0.4031  1.8496
18340TIP3    H276436   4.358   5.490   1.254  0.6855  0.8515  0.6119
18341TIP3   OH276437   3.348   2.270  15.235 -0.1429 -0.0480  0.0374
18341TIP3    H176438   3.279   2.304  15.292 -1.3825 -1.8714 -0.2903
18341TIP3    H276439   3.420   2.249  15.294 -1.1955 -1.3827  0.8977
18342TIP3   OH276440   0.333   4.723   5.894  0.4418 -0.5404 -0.3955
18342TIP3    H176441   0.320   4.628   5.890  1.8705 -0.7212 -1.0297
18342TIP3    H276442   0.281   4.750   5.971 -0.2524 -1.7683 -0.3977
18343TIP3   OH276443   5.394   4.416   3.841  0.1856 -0.3128  0.4340
18343TIP3    H176444   5.403   4.488   3.904  1.5523 -1.6324  1.8431
18343TIP3    H276445   5.414   4.456   3.756  0.8017  0.9899  1.1514
18344TIP3   OH276446   0.603   2.076   5.999  0.0445 -0.1612  0.6535
18344TIP3    H176447   0.674   2.075   6.064 -0.0883 -0.2405  0.8007
18344TIP3    H276448   0.548   2.150   6.025  1.0786  1.0696 -0.5721
18345TIP3   OH276449   0.956   2.327   2.825 -0.1466 -0.5398  0.2342
18345TIP3    H176450   0.878   2.289   2.784  0.3085 -1.1032 -0.1216
18345TIP3    H276451   0.997   2.254   2.871  0.3679 -0.3255  0.1197
18346TIP3   OH276452   4.910   0.541  11.873  0.3103  0.5756 -0.5338
18346TIP3    H176453   4.825   0.584  11.887  0.1710  0.4415 -0.9462
18346TIP3    H276454   4.889   0.448  11.866  0.7306  0.2933  1.4104
18347TIP3   OH276455   5.389   4.684   0.264 -0.0082 -0.5928 -0.2727
18347TIP3    H176456   5.455   4.619   0.241  0.5958  0.4440 -1.5753
18347TIP3    H276457   5.389   4.746   0.191  0.3319  1.5979  1.4918
18348TIP3   OH276458   3.133   5.931   2.143 -0.5017  0.1405  0.1821
18348TIP3    H176459   3.141   6.020   2.179  0.9300 -0.2476  0.8874
18348TIP3    H276460   3.057   5.936   2.085  0.4683  2.2440 -1.0305
18349TIP3   OH276461   3.993   4.872   0.937  0.2507 -0.1676  0.1415
18349TIP3    H176462   3.915   4.852   0.989  1.3889  0.5554  2.2088
18349TIP3    H276463   4.050   4.796   0.949  0.0366 -0.5684 -1.1408
18350TIP3   OH276464   3.710   4.847   1.432  0.0551  0.2910 -0.0428
18350TIP3    H176465   3.696   4.827   1.525  0.2980  2.7763  0.6030
18350TIP3    H276466   3.643   4.797   1.386  0.5810 -1.8317  1.3160
18351TIP3   OH276467   0.139   1.063  15.124 -0.7180  0.0209  0.2440
18351TIP3    H176468   0.177   1.146  15.154  0.1487 -0.0786 -0.5367
18351TIP3    H276469   0.209   0.999  15.136 -1.3154 -0.5675  0.6481
18352TIP3   OH276470   4.304   1.468  12.949  0.1285 -0.0656 -0.0443
18352TIP3    H176471   4.357   1.412  13.005 -1.1251 -0.9422  0.2960
18352TIP3    H276472   4.246   1.515  13.009  0.4235  0.8044 -0.4201
18353TIP3   OH276473   5.107   4.658   1.993 -0.2867  0.1815  0.0154
18353TIP3    H176474   5.182   4.714   2.014  0.0024  0.2920 -1.2696
18353TIP3    H276475   5.032   4.718   1.994 -0.2890  0.1831  0.6951
18354TIP3   OH276476   3.561   4.847   5.150  0.1054  0.9582  0.0470
18354TIP3    H176477   3.617   4.770   5.136  0.3207  1.1840 -0.3276
18354TIP3    H276478   3.535   4.840   5.242 -1.6266 -0.7401 -0.4931
18355TIP3   OH276479   3.207   4.248  10.773 -0.0536 -0.2389  0.0235
18355TIP3    H176480   3.130   4.198  10.800 -0.5052  0.3543 -0.1563
18355TIP3    H276481   3.252   4.191  10.710 -1.1056 -0.0136 -0.9625
18356TIP3   OH276482   2.785   6.286   4.531  0.3473  0.4306 -0.3291
18356TIP3    H176483   2.750   6.219   4.590 -0.8159  1.1850 -0.1249
18356TIP3    H276484   2.871   6.308   4.567  1.3755 -1.9120 -1.1923
18357TIP3   OH276485   1.120   0.407  15.098 -0.4419  0.1468 -0.1994
18357TIP3    H176486   1.215   0.412  15.103 -0.4086  0.1607 -0.7723
18357TIP3    H276487   1.089   0.480  15.152 -0.0871  1.5711 -1.8126
18358TIP3   OH276488   6.046   0.162  13.331 -0.0929 -0.2243 -0.0915
18358TIP3    H176489   5.964   0.113  13.341  0.2117 -0.3542  2.2333
18358TIP3    H276490   6.071   0.186  13.420  2.9017 -1.0048 -0.6090
18359TIP3   OH276491   5.706   4.837   4.049  0.0067 -0.2384  0.1547
18359TIP3    H176492   5.762   4.799   4.116  0.3532  0.3389  0.1970
18359TIP3    H276493   5.658   4.763   4.013  0.7518 -0.7301  0.1605
18360TIP3   OH276494   5.397   2.650   0.116 -0.1169 -0.6005  0.9261
18360TIP3    H176495   5.429   2.739   0.104 -1.1446 -0.2270  0.8740
18360TIP3    H276496   5.476   2.597   0.126  0.4913  0.4396  1.8339
18361TIP3   OH276497   2.665   3.682   4.889  0.4249 -0.3688  0.3645
18361TIP3    H176498   2.611   3.756   4.864  0.6410  0.4119  2.0782
18361TIP3    H276499   2.693   3.643   4.806 -1.4653  0.1293 -0.5580
18362TIP3   OH276500   2.922   1.877  15.742  0.7444 -0.5998 -0.1005
18362TIP3    H176501   2.954   1.941  15.678 -0.0288  0.6512  0.7099
18362TIP3    H276502   2.854   1.828  15.696  0.9999 -0.4942 -0.5909
18363TIP3   OH276503   4.796   6.445   6.952  0.2582 -0.2136 -0.0126
18363TIP3    H176504   4.814   6.359   6.989  1.4638  0.3167  0.6846
18363TIP3    H276505   4.808   6.434   6.858 -2.9567 -1.6090 -0.3981
18364TIP3   OH276506   2.744   2.666  16.829 -0.4280  0.1975  0.3387
18364TIP3    H176507   2.668   2.610  16.812 -0.4820  0.6873 -1.1096
18364TIP3    H276508   2.717   2.721  16.902 -0.4071 -1.5616  1.7573
18365TIP3   OH276509   6.173   2.109  11.430  0.0044  0.2041 -0.0929
18365TIP3    H176510   6.155   2.024  11.470 -0.4223  0.6777  0.7500
18365TIP3    H276511   6.107   2.168  11.467  1.0720  1.1855  0.3175
18366TIP3   OH276512   1.790   2.668   5.557 -0.0820  0.2045  0.6111
18366TIP3    H176513   1.782   2.651   5.651 -2.4610  1.4186  0.7196
18366TIP3    H276514   1.757   2.589   5.515  1.4445 -0.5388  0.7244
18367TIP3   OH276515   2.964   6.243  12.332 -0.0535 -0.3154 -0.0494
18367TIP3    H176516   2.956   6.278  12.421 -1.5354 -0.7579  0.0240
18367TIP3    H276517   3.039   6.289  12.295 -0.4500  1.1529  0.8569
18368TIP3   OH276518   4.825   6.739   0.118 -0.2344  0.4602 -0.3574
18368TIP3    H176519   4.851   6.701   0.202 -2.6310 -0.4247  0.0703
18368TIP3    H276520   4.879   6.694   0.053  2.2418  1.7410  0.7156
18369TIP3   OH276521   6.285   6.223   3.780 -0.3294 -0.1511 -0.2794
18369TIP3    H176522   6.250   6.150   3.728 -1.3173 -0.0539  0.2236
18369TIP3    H276523   6.213   6.285   3.786  0.0536  0.2372  0.4561
18370TIP3   OH276524   6.574   2.839   1.673 -0.4102 -0.3954 -0.2041
18370TIP3    H176525   6.496   2.789   1.696  0.0699 -1.0648 -0.0036
18370TIP3    H276526   6.610   2.869   1.757 -0.2252 -0.4375 -0.2665
18371TIP3   OH276527   3.822   3.412  14.049  0.2333  0.3389 -0.1696
18371TIP3    H176528   3.796   3.500  14.022 -2.5917  0.0899  1.4283
18371TIP3    H276529   3.828   3.417  14.144  0.5657 -1.0653 -0.1022
18372TIP3   OH276530   3.651   3.848  14.940  0.3460 -0.0827  0.2472
18372TIP3    H176531   3.690   3.933  14.922  1.6574 -0.8451 -0.6856
18372TIP3    H276532   3.575   3.844  14.882  1.8471 -0.6073 -1.7924
18373TIP3   OH276533   6.434   6.744  10.371 -0.0360  0.2216 -0.4501
18373TIP3    H176534   6.356   6.799  10.362  0.7861  1.6433  0.5833
18373TIP3    H276535   6.503   6.795  10.330  0.7248 -0.1118  0.3916
18374TIP3   OH276536   5.755   2.609   0.692 -0.5276  0.3561 -0.4113
18374TIP3    H176537   5.706   2.527   0.703  1.1352 -0.6130  0.1121
18374TIP3    H276538   5.840   2.581   0.659  0.4204  1.7990  0.7293
18375TIP3   OH276539   4.137   1.158   4.250 -0.0181  0.5565 -0.9152
18375TIP3    H176540   4.083   1.179   4.327  0.3957 -0.5891 -0.2850
18375TIP3    H276541   4.219   1.205   4.265  0.8799 -1.3263  0.4548
18376TIP3   OH276542   4.779   1.208  16.016  0.1724 -0.2629  0.5715
18376TIP3    H176543   4.857   1.189  16.068  1.5355  0.4798 -1.0973
18376TIP3    H276544   4.784   1.146  15.944 -1.2777 -0.7776  0.8931
18377TIP3   OH276545   5.418   4.275   2.187 -0.6863 -0.2416  0.2599
18377TIP3    H176546   5.482   4.320   2.242 -0.2822  0.4503 -0.7649
18377TIP3    H276547   5.344   4.336   2.181 -0.6768 -0.2608 -0.0655
18378TIP3   OH276548   2.031   2.048  12.168  0.0721 -0.0560  0.2825
18378TIP3    H176549   1.997   2.121  12.220  1.0640  0.9318 -0.4327
18378TIP3    H276550   2.103   2.013  12.220 -0.4085 -0.5569  0.6285
18379TIP3   OH276551   2.006   5.409  12.651  0.7254 -0.3087 -0.6186
18379TIP3    H176552   1.986   5.351  12.724  0.2808 -0.4382 -0.8355
18379TIP3    H276553   2.092   5.382  12.621 -0.2328 -2.1401 -1.9148
18380TIP3   OH276554   0.098   3.630   5.136  0.0315 -0.0539  0.2043
18380TIP3    H176555   0.072   3.685   5.210  1.1862 -0.1679  0.7093
18380TIP3    H276556   0.150   3.560   5.175  0.7038 -0.0861 -0.7267
18381TIP3   OH276557   0.645   5.096   2.192 -0.1880 -0.3614  0.0309
18381TIP3    H176558   0.614   5.009   2.217 -1.1546 -0.0443 -0.0185
18381TIP3    H276559   0.721   5.111   2.248  0.1826 -1.3636 -0.1835
18382TIP3   OH276560   6.713   0.755   1.806  0.3208 -0.1089  0.0957
18382TIP3    H176561   6.797   0.740   1.763 -0.2201  0.3161 -1.1675
18382TIP3    H276562   6.661   0.803   1.741 -0.5296  0.5983  1.2549
18383TIP3   OH276563   2.015   4.749   2.217  0.2844  0.4837 -0.0864
18383TIP3    H176564   2.040   4.682   2.280  0.4728  0.0694 -0.5866
18383TIP3    H276565   2.096   4.798   2.201 -0.0664  1.4274  0.9695
18384TIP3   OH276566   4.989   0.062  13.811 -0.3288  0.3602  0.0916
18384TIP3    H176567   4.895   0.065  13.831 -0.8174  0.8129 -2.0472
18384TIP3    H276568   5.031   0.099  13.888 -2.0015  1.3651  0.5750
18385TIP3   OH276569   1.901   1.484   4.515  0.9160 -0.5807 -0.0435
18385TIP3    H176570   1.903   1.420   4.445  0.5118 -3.0959  2.1073
18385TIP3    H276571   1.992   1.489   4.546  1.9918  3.4168 -2.9670
18386TIP3   OH276572   6.099   5.364  12.145  0.6048 -0.1242 -0.1271
18386TIP3    H176573   6.016   5.320  12.165  1.3207 -0.9680  1.1942
18386TIP3    H276574   6.089   5.452  12.180  0.6898 -0.6184  1.2026
18387TIP3   OH276575   2.343   2.279   2.130  0.0844 -0.7741  0.1364
18387TIP3    H176576   2.260   2.284   2.178  0.3479  0.3281  0.5223
18387TIP3    H276577   2.325   2.325   2.048 -0.0335 -1.6266 -0.3187
18388TIP3   OH276578   0.926   4.384  14.570  0.4616  0.4846  0.2006
18388TIP3    H176579   0.939   4.451  14.638 -1.1002  1.3145 -0.2539
18388TIP3    H276580   0.888   4.310  14.616 -1.5358  1.4059  0.1648
18389TIP3   OH276581   2.458   4.614  16.284 -0.2081 -0.3402  0.1673
18389TIP3    H176582   2.532   4.673  16.272 -0.0052 -0.8888 -1.4905
18389TIP3    H276583   2.494   4.543  16.338 -0.1848  0.5127  1.3181
18390TIP3   OH276584   5.907   5.352  14.326  0.3233  0.1204 -0.9450
18390TIP3    H176585   5.909   5.289  14.398  1.4849 -1.5413 -2.3456
18390TIP3    H276586   5.997   5.353  14.293  0.0274  1.5639 -1.7790
18391TIP3   OH276587   2.441   4.759   2.900 -0.0724 -0.0291  0.6031
18391TIP3    H176588   2.475   4.723   2.818 -0.5065 -2.4622  1.4043
18391TIP3    H276589   2.488   4.711   2.968 -0.2860  1.3914  1.7937
18392TIP3   OH276590   4.225   6.811  11.032 -0.4163  0.3991  0.2387
18392TIP3    H176591   4.241   6.723  11.067 -4.0068  0.0002  1.2536
18392TIP3    H276592   4.230   6.801  10.937  2.6747 -0.0237  0.3433
18393TIP3   OH276593   3.379   6.506  14.076  0.4318  0.0136 -0.5287
18393TIP3    H176594   3.396   6.414  14.097  1.7870  0.6129  1.1941
18393TIP3    H276595   3.369   6.549  14.160 -0.7478  1.3777 -1.3191
18394TIP3   OH276596   4.197   4.847   5.298 -0.0376  0.0990  0.3193
18394TIP3    H176597   4.196   4.751   5.300 -1.0190  0.1013  1.8865
18394TIP3    H276598   4.270   4.871   5.356 -0.7380  0.2727  1.1579
18395TIP3   OH276599   4.583   0.163   3.643  0.2386 -0.0230 -0.0726
18395TIP3    H176600   4.506   0.109   3.663 -1.6211  0.8122 -3.9530
18395TIP3    H276601   4.568   0.244   3.691  0.0202 -0.7499  1.1389
18396TIP3   OH276602   0.365   2.775  12.598  0.1701 -0.4006  0.0337
18396TIP3    H176603   0.402   2.707  12.541  0.2439 -1.6076  1.4641
18396TIP3    H276604   0.302   2.728  12.653  1.2936  0.3471  2.0773
18397TIP3   OH276605   2.661   6.233   0.366  0.2207  0.3460 -0.6324
18397TIP3    H176606   2.745   6.278   0.354  0.7775 -1.0600 -2.6533
18397TIP3    H276607   2.621   6.236   0.279 -0.9701 -0.6283 -0.1341
18398TIP3   OH276608   1.383   3.789  16.068 -0.1488  0.0772  0.0396
18398TIP3    H176609   1.364   3.755  16.156 -2.4659 -0.8615 -0.7475
18398TIP3    H276610   1.335   3.871  16.063 -2.1461 -1.0795 -1.1288
18399TIP3   OH276611   4.216   0.174  10.782 -0.3692  0.1492 -0.3356
18399TIP3    H176612   4.176   0.224  10.711 -0.3308  0.2249 -0.3038
18399TIP3    H276613   4.216   0.084  10.750  1.1878  0.3992 -1.1509
18400TIP3   OH276614   2.166   1.266  15.699 -0.0692 -0.2157 -0.4457
18400TIP3    H176615   2.199   1.353  15.680 -2.3152  0.9971  0.7876
18400TIP3    H276616   2.135   1.232  15.615 -1.3830  1.2033 -0.5683
18401TIP3   OH276617   5.994   1.218   5.336  0.2073  0.0351  0.5629
18401TIP3    H176618   6.075   1.241   5.382  0.9439 -0.8205 -0.2537
18401TIP3    H276619   5.925   1.232   5.400  1.1859 -0.9339  1.8979
18402TIP3   OH276620   3.181   2.597  14.883  0.1110  0.1118  0.3650
18402TIP3    H176621   3.274   2.578  14.874 -0.2495 -1.3220 -0.5030
18402TIP3    H276622   3.145   2.587  14.795 -1.4591 -2.8328  1.2294
18403TIP3   OH276623   1.174   1.775   2.764  0.7737 -0.0293  0.2618
18403TIP3    H176624   1.197   1.824   2.843  2.6665  0.6473 -0.6383
18403TIP3    H276625   1.169   1.684   2.793 -0.1684  0.3805  1.4534
18404TIP3   OH276626   0.864   3.070  13.950 -0.1575  0.3848 -0.6649
18404TIP3    H176627   0.838   3.137  13.887  0.3625 -0.2196 -1.5510
18404TIP3    H276628   0.950   3.040  13.919 -0.7695 -1.3224 -0.8203
18405TIP3   OH276629   0.293   0.198   3.785 -0.4167 -0.5820  0.2794
18405TIP3    H176630   0.214   0.251   3.794  0.0527  0.0924  0.5220
18405TIP3    H276631   0.274   0.118   3.833 -0.4246  0.1955  1.6315
18406TIP3   OH276632   4.230   1.400   4.995  0.3376 -0.6754 -0.0362
18406TIP3    H176633   4.158   1.449   4.956  1.7418  1.1170 -0.5497
18406TIP3    H276634   4.194   1.366   5.077 -1.3016 -0.5166 -0.6507
18407TIP3   OH276635   3.464   1.907  16.442  0.2942 -0.7427 -0.2827
18407TIP3    H176636   3.398   1.973  16.420 -1.1198 -2.1867 -0.6244
18407TIP3    H276637   3.414   1.824  16.444  0.8881 -1.2969  4.8118
18408TIP3   OH276638   4.978   1.683   0.607 -0.2483 -0.0150 -0.2379
18408TIP3    H176639   4.966   1.603   0.658 -1.5604 -0.3542 -1.0206
18408TIP3    H276640   4.913   1.743   0.642  0.6489  0.6863  0.2609
18409TIP3   OH276641   2.473   2.747   3.624  0.7947 -0.5288  0.5188
18409TIP3    H176642   2.417   2.771   3.697 -0.0366  0.0646 -0.3043
18409TIP3    H276643   2.414   2.706   3.560  1.4298 -0.6215 -0.0229
18410TIP3   OH276644   1.702   5.904   5.654 -0.0509  0.5327 -0.0850
18410TIP3    H176645   1.638   5.898   5.583 -0.0506 -1.3045  0.0219
18410TIP3    H276646   1.777   5.949   5.615 -0.3963  0.3505 -0.9880
18411TIP3   OH276647   5.593   4.407  16.290 -0.0509  0.1646  0.5278
18411TIP3    H176648   5.524   4.434  16.351 -0.7581  2.6365 -1.1981
18411TIP3    H276649   5.547   4.365  16.218  0.1648  1.7901 -0.6164
18412TIP3   OH276650   0.387   3.081   5.318  0.4627  0.0977 -0.5633
18412TIP3    H176651   0.456   3.047   5.375  0.6348  2.5701  0.8589
18412TIP3    H276652   0.350   3.004   5.276  1.2355 -1.7473  1.8898
18413TIP3   OH276653   2.973   1.484   5.806 -0.4812 -0.0288 -0.6093
18413TIP3    H176654   2.955   1.403   5.856  0.9768  0.6347  1.1082
18413TIP3    H276655   3.055   1.466   5.762 -0.6041  0.2186 -0.9369
18414TIP3   OH276656   2.004   4.433  15.592 -0.4802 -0.4492 -0.2706
18414TIP3    H176657   2.064   4.505  15.613 -0.0182 -0.9227  0.0470
18414TIP3    H276658   2.046   4.387  15.520 -0.8447 -0.3223 -0.5675
18415TIP3   OH276659   4.192   2.158   2.603 -0.3669  0.5552 -0.4600
18415TIP3    H176660   4.229   2.106   2.532 -0.9577 -0.2599 -0.1821
18415TIP3    H276661   4.219   2.113   2.683 -2.3061 -0.3509 -0.2557
18416TIP3   OH276662   1.362   3.255   2.907 -0.2093  0.1356  0.1415
18416TIP3    H176663   1.450   3.293   2.902 -1.2534  3.0219  1.3368
18416TIP3    H276664   1.330   3.283   2.993 -1.7254 -2.3104  0.4516
18417TIP3   OH276665   2.645   3.120  11.527  0.6739  0.1789 -0.3751
18417TIP3    H176666   2.712   3.053  11.541  1.3552  1.2404  1.9111
18417TIP3    H276667   2.575   3.097  11.587  0.5277  0.9849 -0.2205
18418TIP3   OH276668   2.908   0.833   1.633  0.1070 -0.0964  0.0294
18418TIP3    H176669   2.860   0.874   1.704 -0.8407  0.3177 -0.8191
18418TIP3    H276670   2.851   0.842   1.557  0.9135 -0.8823 -0.7026
18419TIP3   OH276671   5.207   5.390   1.021  0.0820  0.0092  0.0871
18419TIP3    H176672   5.287   5.336   1.017 -1.0944 -1.8174 -0.0881
18419TIP3    H276673   5.196   5.410   1.114  2.4375  3.0974 -0.1326
18420TIP3   OH276674   0.955   3.007   4.616 -0.1940  0.3313 -0.4670
18420TIP3    H176675   1.049   3.008   4.597 -0.2909 -0.1862 -0.9891
18420TIP3    H276676   0.927   3.098   4.602  0.7294  1.1826  2.3752
18421TIP3   OH276677   4.522   6.345   4.734  0.1092 -0.2358  0.1872
18421TIP3    H176678   4.603   6.394   4.722  1.1516 -1.6468  1.1011
18421TIP3    H276679   4.454   6.411   4.739  1.4675  1.1228  1.4420
18422TIP3   OH276680   0.329   2.194   5.429 -0.1808 -0.2468 -0.2301
18422TIP3    H176681   0.267   2.178   5.501 -1.0671 -1.7839 -1.2719
18422TIP3    H276682   0.274   2.196   5.351  1.1058 -2.1273 -1.2466
18423TIP3   OH276683   5.157   5.832  12.327 -0.3424 -0.6261 -0.1179
18423TIP3    H176684   5.067   5.816  12.356 -0.3818  0.0386  0.1559
18423TIP3    H276685   5.169   5.775  12.251 -1.3838  0.1136 -0.8672
18424TIP3   OH276686   3.526   5.720  16.120  0.5000 -0.5224  0.3527
18424TIP3    H176687   3.554   5.674  16.200 -0.1377 -0.8171  0.4135
18424TIP3    H276688   3.593   5.787  16.107  0.0177  0.3000  1.8050
18425TIP3   OH276689   0.120   0.173  14.638  0.2420 -0.1702  0.4078
18425TIP3    H176690   0.089   0.087  14.666  1.0771 -0.2274  1.2241
18425TIP3    H276691   0.200   0.154  14.587 -0.2628  0.0528 -0.4866
18426TIP3   OH276692   1.607   2.372  13.883  0.2602  0.4280  0.0152
18426TIP3    H176693   1.533   2.311  13.875  1.4861 -0.9545 -1.7338
18426TIP3    H276694   1.614   2.412  13.796  1.0096  1.2244  0.4243
18427TIP3   OH276695   2.287   0.729   4.799 -0.0511 -0.5297 -0.6085
18427TIP3    H176696   2.200   0.753   4.767 -1.0981 -0.3079  2.1292
18427TIP3    H276697   2.333   0.812   4.809  0.0620 -0.5487 -0.9736
18428TIP3   OH276698   5.734   2.654   5.567  0.5041 -0.0485 -0.2740
18428TIP3    H176699   5.728   2.749   5.564 -0.7237 -0.0485  1.0280
18428TIP3    H276700   5.743   2.634   5.660 -0.1942 -1.2333 -0.4400
18429TIP3   OH276701   6.809   5.272   3.956 -0.9309 -0.4010 -0.3291
18429TIP3    H176702   6.832   5.271   3.863 -1.8233  1.3624 -0.6052
18429TIP3    H276703   6.774   5.184   3.973 -0.6525 -0.7849 -1.6142
18430TIP3   OH276704   3.615   4.857  15.496  0.4391 -0.2395 -0.8160
18430TIP3    H176705   3.659   4.774  15.515  1.4128 -0.0538 -2.1267
18430TIP3    H276706   3.680   4.924  15.515  0.1894  0.1350 -1.2550
18431TIP3   OH276707   0.141   0.221   0.791  0.0549 -0.4010 -0.0222
18431TIP3    H176708   0.098   0.283   0.851 -0.7760 -0.0655 -0.9520
18431TIP3    H276709   0.136   0.137   0.836 -0.6372 -0.1727  0.3392
18432TIP3   OH276710   5.036   0.002  13.425  0.1298  0.6091 -0.0665
18432TIP3    H176711   5.038  -0.045  13.342  1.6321  2.8279 -1.3633
18432TIP3    H276712   4.995  -0.060  13.486  0.1365 -1.5588 -2.1236
18433TIP3   OH276713   5.819   5.253  12.692 -0.3095  0.4457 -0.3041
18433TIP3    H176714   5.736   5.274  12.736 -0.5410  1.4239 -1.1703
18433TIP3    H276715   5.874   5.330  12.704  0.0643  0.2463 -0.6810
18434TIP3   OH276716   5.971   1.621  14.303  0.2171  0.5073 -0.8187
18434TIP3    H176717   6.024   1.679  14.248  1.8004  2.5311  2.4978
18434TIP3    H276718   6.035   1.578  14.360 -1.4108  0.8477  1.4145
18435TIP3   OH276719   4.870   4.123  12.193  0.7847  0.0330 -0.4317
18435TIP3    H176720   4.782   4.090  12.174  0.3629  1.2967 -0.7987
18435TIP3    H276721   4.913   4.127  12.108  0.4799  1.3574 -0.5364
18436TIP3   OH276722   2.365   2.177  15.273 -0.1227 -0.1445 -0.5410
18436TIP3    H176723   2.276   2.207  15.294 -0.7671 -1.6794 -0.9412
18436TIP3    H276724   2.354   2.122  15.195  1.0509 -1.0545 -0.0928
18437TIP3   OH276725   3.746   3.424  13.004 -0.0735 -0.0172 -0.3503
18437TIP3    H176726   3.817   3.465  12.955 -1.5583  1.4276 -1.3871
18437TIP3    H276727   3.780   3.416  13.093  1.6712 -0.1502 -1.0044
18438TIP3   OH276728   4.285   2.410  13.739  0.1720 -0.1825 -0.2956
18438TIP3    H176729   4.350   2.459  13.687  0.0537  0.6093  0.2832
18438TIP3    H276730   4.201   2.435  13.701  0.1678 -0.7216 -0.6426
18439TIP3   OH276731   3.426   2.937   4.804 -0.4577 -0.3312 -0.2573
18439TIP3    H176732   3.429   2.843   4.789  2.8504 -0.3784 -0.1218
18439TIP3    H276733   3.424   2.975   4.716  1.0831 -0.5931 -0.4383
18440TIP3   OH276734   1.648   2.439   4.721  0.3642 -0.0672 -0.1349
18440TIP3    H176735   1.688   2.521   4.691 -0.8110  0.3969 -0.4844
18440TIP3    H276736   1.662   2.438   4.815 -1.0452  1.3781  0.1333
18441TIP3   OH276737   5.678   2.071   0.120  0.0653 -0.2433 -0.0776
18441TIP3    H176738   5.730   2.027   0.052  0.5943  1.7981 -1.1172
18441TIP3    H276739   5.738   2.080   0.194  0.7897  0.8129 -0.7508
18442TIP3   OH276740   5.476   0.212   3.139  0.2317  0.7042 -0.2595
18442TIP3    H176741   5.425   0.132   3.136  0.1243  0.6506  1.5808
18442TIP3    H276742   5.468   0.242   3.230  2.4193  1.3835 -0.2286
18443TIP3   OH276743   5.040   1.543  11.965  0.1734  0.2290 -0.3295
18443TIP3    H176744   5.044   1.600  12.042  0.1773 -1.1016  0.6883
18443TIP3    H276745   5.088   1.591  11.897  0.5600  1.2349  0.6242
18444TIP3   OH276746   2.776   2.564   5.756 -0.3322 -0.5820 -0.7677
18444TIP3    H176747   2.812   2.652   5.762 -0.3486 -0.4962 -1.8646
18444TIP3    H276748   2.689   2.571   5.795 -0.5458  0.0060 -1.3437
18445TIP3   OH276749   1.249   4.132  13.150 -0.5305  0.2059  0.1394
18445TIP3    H176750   1.200   4.188  13.209  0.4760  0.8998  0.3321
18445TIP3    H276751   1.325   4.184  13.125 -0.9450 -0.0439 -1.8069
18446TIP3   OH276752   3.175   2.409  15.558  0.5409 -0.7273 -0.3020
18446TIP3    H176753   3.199   2.316  15.559  1.6370 -0.4561  1.0573
18446TIP3    H276754   3.090   2.411  15.513  0.7893 -2.3002 -0.9195
18447TIP3   OH276755   0.288   1.120  12.941  0.0087  0.4646  0.1032
18447TIP3    H176756   0.365   1.160  12.982 -0.1393  1.1157 -0.2396
18447TIP3    H276757   0.231   1.194  12.920 -1.9467 -0.1083  2.7530
18448TIP3   OH276758   1.504   4.505   5.723  0.0435 -0.0077  0.0735
18448TIP3    H176759   1.427   4.492   5.778 -0.7335  2.1246 -0.4215
18448TIP3    H276760   1.524   4.418   5.689 -1.8288 -0.6959  0.6126
18449TIP3   OH276761   0.602   3.447  12.283 -0.2099 -0.4102 -0.2055
18449TIP3    H176762   0.688   3.405  12.274  0.6687  1.4377 -1.1026
18449TIP3    H276763   0.543   3.392  12.232  0.6946 -1.0784 -0.5567
18450TIP3   OH276764   2.883   2.373   1.388 -0.4912 -0.1193 -0.4684
18450TIP3    H176765   2.890   2.338   1.299 -0.7777  0.9453 -0.9308
18450TIP3    H276766   2.848   2.462   1.376 -2.0186 -0.4993  0.8021
18451TIP3   OH276767   4.421   2.956   6.364 -0.4724 -0.3411 -0.0223
18451TIP3    H176768   4.344   2.948   6.307 -1.2815  0.6197  0.8771
18451TIP3    H276769   4.456   2.867   6.370 -4.4184 -2.0321  3.3926
18452TIP3   OH276770   4.139   2.491  12.826  0.2441 -0.4105  0.0197
18452TIP3    H176771   4.090   2.440  12.761  0.6035 -2.3960  1.2457
18452TIP3    H276772   4.182   2.559  12.774 -2.0117  0.0842 -1.3827
18453TIP3   OH276773   5.680   1.494   5.806 -0.7473 -0.4238 -0.0619
18453TIP3    H176774   5.635   1.573   5.837 -0.3715 -1.1749  2.6283
18453TIP3    H276775   5.772   1.518   5.804 -0.7768 -0.3519 -0.7634
18454TIP3   OH276776   4.364   6.261   1.344 -0.3500 -0.1672  0.9315
18454TIP3    H176777   4.320   6.337   1.306 -1.4888 -0.6312  1.2658
18454TIP3    H276778   4.390   6.209   1.268 -2.2160 -0.8702  0.7259
18455TIP3   OH276779   4.464   0.507   1.050  0.0821  0.6284  0.0629
18455TIP3    H176780   4.377   0.543   1.068  0.2274  0.0592  2.1183
18455TIP3    H276781   4.525   0.567   1.094  0.4843 -0.7087  1.4159
18456TIP3   OH276782   2.684   6.319   6.520  0.0054 -0.3138 -0.8068
18456TIP3    H176783   2.595   6.311   6.554  0.4638 -0.8976  0.2974
18456TIP3    H276784   2.740   6.315   6.597  0.9361  1.6306 -1.2999
18457TIP3   OH276785   4.625   0.220   4.035 -0.5342  0.8822 -0.1310
18457TIP3    H176786   4.621   0.292   3.972  0.0242  1.1939  0.1861
18457TIP3    H276787   4.656   0.145   3.984  0.4252  1.2620 -0.1230
18458TIP3   OH276788   5.489   1.859  15.009 -0.0617  0.1075  0.0010
18458TIP3    H176789   5.468   1.883  15.099 -0.7946 -0.8161  0.0942
18458TIP3    H276790   5.406   1.870  14.962  0.1738  0.0165 -0.4439
18459TIP3   OH276791   3.532   4.091  14.134  0.1683  0.3053 -0.3924
18459TIP3    H176792   3.482   4.107  14.054 -3.4233  0.2003  1.6277
18459TIP3    H276793   3.529   4.174  14.182  0.7072 -0.1295  0.4216
18460TIP3   OH276794   6.227   5.247  14.839 -0.1015 -0.3893 -0.3046
18460TIP3    H176795   6.183   5.311  14.896  0.5484 -0.0247 -0.2032
18460TIP3    H276796   6.175   5.167  14.849 -2.3263  0.6915 -2.1881
18461TIP3   OH276797   1.060   6.137   4.723 -0.1273  0.1521 -0.4071
18461TIP3    H176798   1.076   6.107   4.812 -0.8110  1.0026  0.0143
18461TIP3    H276799   0.988   6.199   4.731  0.6748  1.2555 -1.3556
18462TIP3   OH276800   2.945   3.404   1.715 -0.0501  0.3954  0.9113
18462TIP3    H176801   2.961   3.311   1.698  0.6071  0.9863 -2.3693
18462TIP3    H276802   2.889   3.432   1.643 -0.7064  2.4488  2.1411
18463TIP3   OH276803   4.741   3.359   1.231 -0.3308  0.5995  0.1353
18463TIP3    H176804   4.691   3.393   1.304  0.5581 -0.2691  1.1868
18463TIP3    H276805   4.812   3.422   1.219 -0.8294  1.0689 -0.4044
18464TIP3   OH276806   1.706   4.902   1.147 -0.1093  0.3793 -0.2406
18464TIP3    H176807   1.687   4.855   1.228 -1.6043  1.9183  0.3547
18464TIP3    H276808   1.799   4.924   1.154  0.4258 -1.6288 -0.1482
18465TIP3   OH276809   6.284   4.050  12.570  0.0654  0.2451  0.0492
18465TIP3    H176810   6.330   4.079  12.648  1.7382 -0.9158 -0.4519
18465TIP3    H276811   6.295   3.954  12.569 -1.4562  0.0398 -0.6655
18466TIP3   OH276812   4.415   6.346   3.652 -0.4286 -0.1505  0.5380
18466TIP3    H176813   4.413   6.341   3.747  0.3761 -0.3701  0.5548
18466TIP3    H276814   4.498   6.305   3.627  0.4067  1.8015 -0.1222
18467TIP3   OH276815   5.787   6.091  12.753  0.0115 -0.0334  0.4778
18467TIP3    H176816   5.692   6.090  12.743  0.0677  1.1058 -0.4403
18467TIP3    H276817   5.820   6.104  12.664  0.9493  1.2535  0.9853
18468TIP3   OH276818   4.057   0.852  13.638  0.5856 -0.5630  0.2160
18468TIP3    H176819   4.032   0.770  13.594 -0.6325 -0.4809  0.6974
18468TIP3    H276820   3.974   0.898  13.649  1.0930  0.1491  1.1410
18469TIP3   OH276821   2.942   3.884  11.290  0.7872 -0.7037 -0.6195
18469TIP3    H176822   2.940   3.866  11.384 -0.1720 -2.2177 -0.9047
18469TIP3    H276823   2.850   3.892  11.265  0.9400 -2.1494 -1.7479
18470TIP3   OH276824   2.065   6.369  16.669 -0.0118 -0.1196  0.5957
18470TIP3    H176825   1.986   6.393  16.717  0.6197  0.2732  1.4555
18470TIP3    H276826   2.135   6.377  16.733  0.8896  0.6949 -0.4555
18471TIP3   OH276827   3.894   1.102   5.446 -0.2810  0.4027  0.1432
18471TIP3    H176828   3.984   1.070   5.434 -0.3875 -0.1728  0.8022
18471TIP3    H276829   3.864   1.060   5.527 -1.3758  0.0483 -0.4193
18472TIP3   OH276830   0.068   4.613  13.833  0.4411  0.5746  0.1813
18472TIP3    H176831   0.013   4.543  13.799 -0.8034  1.0049  1.2131
18472TIP3    H276832   0.014   4.692  13.826  0.6590  0.9010  1.8002
18473TIP3   OH276833   1.951   4.681  15.274  0.0678  0.4949 -0.4006
18473TIP3    H176834   1.928   4.760  15.323  1.7947  0.6949  0.1779
18473TIP3    H276835   2.047   4.679  15.277  0.0863 -1.1527 -1.1708
18474TIP3   OH276836   5.096   1.809  16.114 -0.2161  0.1480 -0.1511
18474TIP3    H176837   5.052   1.738  16.068 -0.1284  0.0669 -0.1099
18474TIP3    H276838   5.136   1.768  16.190 -1.7609  0.5479  0.9297
18475TIP3   OH276839   3.091   4.288  12.221 -0.2883 -0.5434 -0.0529
18475TIP3    H176840   3.151   4.239  12.278  0.4257  0.1327 -0.2110
18475TIP3    H276841   3.145   4.355  12.181 -0.5694 -1.5378 -2.2369
18476TIP3   OH276842   1.253   0.459  15.898  0.1378 -0.9600 -0.0162
18476TIP3    H176843   1.311   0.515  15.950  0.1446 -0.7129 -0.2907
18476TIP3    H276844   1.221   0.515  15.828 -0.4908 -1.0759  0.1691
18477TIP3   OH276845   4.791   1.842   3.325  0.7332 -0.2705  0.0799
18477TIP3    H176846   4.722   1.776   3.314  0.6319 -0.2012  0.2831
18477TIP3    H276847   4.820   1.862   3.236  0.1623  0.0482 -0.0364
18478TIP3   OH276848   4.396   6.198  10.880  0.1428  0.1240 -0.3717
18478TIP3    H176849   4.450   6.169  10.806  1.5117  0.4993  0.4457
18478TIP3    H276850   4.406   6.130  10.946 -0.4616  0.1628 -0.2269
18479TIP3   OH276851   2.346   5.154   5.084  0.1705  0.4463 -0.6076
18479TIP3    H176852   2.349   5.117   5.172  4.9391 -0.8962 -1.0655
18479TIP3    H276853   2.383   5.242   5.093 -0.0458  0.6053 -1.1838
18480TIP3   OH276854   6.512   4.862  12.286 -0.0392  0.2234 -0.0602
18480TIP3    H176855   6.490   4.773  12.314 -1.7156  0.5458 -0.2634
18480TIP3    H276856   6.444   4.917  12.324 -0.1981  1.1616 -1.5932
18481TIP3   OH276857   6.100   5.123   3.487 -0.2537 -0.2877  0.6219
18481TIP3    H176858   6.056   5.070   3.421  1.8194 -0.8258 -0.3899
18481TIP3    H276859   6.113   5.064   3.561 -1.1323 -0.1378  0.9109
18482TIP3   OH276860   0.612   5.903   2.963  0.3692  0.4790 -0.4112
18482TIP3    H176861   0.680   5.969   2.975 -1.1243  2.3691 -1.7080
18482TIP3    H276862   0.549   5.920   3.034  1.5333 -1.7662  1.2674
18483TIP3   OH276863   4.670   1.883  15.135  0.5267 -0.0728 -0.5626
18483TIP3    H176864   4.618   1.839  15.202 -0.0090 -0.8447 -1.4473
18483TIP3    H276865   4.745   1.919  15.182 -0.2998  0.2004  0.5826
18484TIP3   OH276866   4.812   2.829  13.710 -0.1678  0.3194 -0.5935
18484TIP3    H176867   4.747   2.868  13.651 -0.2822 -0.0439 -0.7158
18484TIP3    H276868   4.793   2.735  13.706  0.6164  0.1687 -0.9320
18485TIP3   OH276869   0.977   5.261  12.163  0.4467  0.2056 -0.2217
18485TIP3    H176870   0.902   5.253  12.104 -0.9829  1.6682  1.3024
18485TIP3    H276871   1.005   5.171  12.179  1.4897 -0.2582 -3.7289
18486TIP3   OH276872   5.642   2.510   0.197 -0.1211 -0.5465 -0.1167
18486TIP3    H176873   5.734   2.496   0.173 -0.3023  0.6429 -1.6642
18486TIP3    H276874   5.608   2.422   0.214  0.6512 -1.2590 -2.0613
18487TIP3   OH276875   2.175   1.852   1.285 -0.1333 -0.0182 -0.4675
18487TIP3    H176876   2.147   1.899   1.363 -0.5923 -0.5972 -0.2732
18487TIP3    H276877   2.159   1.913   1.213  1.3226  0.9387 -0.0224
18488TIP3   OH276878   5.745   1.213   0.369  0.4880  0.4334 -0.1377
18488TIP3    H176879   5.729   1.182   0.280 -1.0679  1.7988 -0.3810
18488TIP3    H276880   5.673   1.178   0.420  0.4413  1.0538  0.2292
18489TIP3   OH276881   0.757   5.263   1.367  0.2477  0.2152  0.3505
18489TIP3    H176882   0.829   5.327   1.368  0.8581 -0.4550  0.4631
18489TIP3    H276883   0.781   5.199   1.435  0.5677 -1.1090 -0.9611
18490TIP3   OH276884   1.418   5.250   1.389 -0.0726  0.0329  0.5495
18490TIP3    H176885   1.509   5.277   1.379 -0.1529 -0.4264 -2.1270
18490TIP3    H276886   1.419   5.155   1.379 -0.9351  0.1231 -0.6508
18491TIP3   OH276887   6.670   2.800  15.299  0.3145  0.5292  0.0066
18491TIP3    H176888   6.603   2.823  15.364  0.1536  2.2205 -0.7252
18491TIP3    H276889   6.713   2.882  15.278  2.1310 -0.4024 -0.1325
18492TIP3   OH276890   1.210   0.170   1.243  0.1633  0.4493  0.2502
18492TIP3    H176891   1.153   0.116   1.187  0.6266  0.1125  0.0909
18492TIP3    H276892   1.288   0.184   1.190 -0.6428  2.7955 -0.4213
18493TIP3   OH276893   3.348   5.172   5.154  0.6640  0.2255 -0.4940
18493TIP3    H176894   3.358   5.114   5.079  1.6486 -0.6286  0.2653
18493TIP3    H276895   3.312   5.116   5.223 -0.7191  1.1199 -0.4634
18494TIP3   OH276896   2.032   1.440  17.038  0.0771  0.0984  0.7946
18494TIP3    H176897   1.956   1.466  16.985  0.2391 -0.5764  0.2205
18494TIP3    H276898   2.060   1.357  17.001  0.4226 -0.2102  1.7214
18495TIP3   OH276899   5.834   3.288  12.411  0.0954  0.0489 -0.3979
18495TIP3    H176900   5.861   3.249  12.328 -1.4734 -1.8150 -0.0894
18495TIP3    H276901   5.882   3.371  12.415  0.9638 -0.2769 -2.6789
18496TIP3   OH276902   4.048   1.355   1.344 -0.2546 -0.2012  0.3272
18496TIP3    H176903   3.972   1.360   1.402 -0.8439 -0.1722 -0.4258
18496TIP3    H276904   4.011   1.358   1.256  0.5510 -1.2384 -0.0668
18497TIP3   OH276905   4.582   2.918   3.735 -0.2399  0.1439 -0.2478
18497TIP3    H176906   4.652   2.907   3.799  0.9864  0.2600 -1.5247
18497TIP3    H276907   4.502   2.921   3.788  0.7427  0.5560  1.2944
18498TIP3   OH276908   4.024   4.813   1.547  0.1767  0.0470  0.1835
18498TIP3    H176909   3.935   4.823   1.514  0.3254 -0.5126 -0.3970
18498TIP3    H276910   4.036   4.718   1.555 -0.7139  0.0854  4.1958
18499TIP3   OH276911   6.447   2.306  15.882  0.6190  0.1157 -0.4076
18499TIP3    H176912   6.362   2.261  15.884  0.5049  0.3434  0.8485
18499TIP3    H276913   6.475   2.300  15.791  0.2619 -1.8555 -0.4454
18500TIP3   OH276914   2.404   4.840  15.663  0.3543  0.2313  0.0659
18500TIP3    H176915   2.438   4.891  15.736 -0.6319  0.1956  0.5676
18500TIP3    H276916   2.458   4.866  15.588  1.8659 -0.2839  0.9478
18501TIP3   OH276917   4.377   1.049  15.931  0.7156  0.0718 -0.5411
18501TIP3    H176918   4.403   0.998  16.008 -0.3909  0.7445  0.3031
18501TIP3    H276919   4.335   0.985  15.873 -1.6448  0.1237  0.9701
18502TIP3   OH276920   5.710   3.640  14.626  0.1635  0.4452  0.1586
18502TIP3    H176921   5.658   3.695  14.567  0.2218  1.6390  1.1668
18502TIP3    H276922   5.651   3.622  14.699  0.4505 -0.0679  0.2633
18503TIP3   OH276923   5.115   4.521   3.002 -0.0002  0.2293 -0.0663
18503TIP3    H176924   5.118   4.580   3.077  0.3518 -0.7310  0.6898
18503TIP3    H276925   5.181   4.556   2.941 -0.2012  0.9360  0.1122
18504TIP3   OH276926   2.692   0.181   0.212 -0.2554  0.0714 -0.4025
18504TIP3    H176927   2.771   0.142   0.174  0.1078  2.0328 -1.8465
18504TIP3    H276928   2.625   0.170   0.144 -1.1286 -1.0829  0.5889
18505TIP3   OH276929   6.229   1.180  11.748  0.0831 -0.3942  0.0328
18505TIP3    H176930   6.149   1.215  11.709 -0.1834 -0.3743  0.5942
18505TIP3    H276931   6.214   1.185  11.842  1.8710  2.2822  0.2674
18506TIP3   OH276932   1.895   6.597   3.365  0.3998  1.0083  0.9522
18506TIP3    H176933   1.962   6.570   3.303 -0.5944  0.2341  0.1726
18506TIP3    H276934   1.926   6.566   3.450 -0.5203 -2.5096  0.1628
18507TIP3   OH276935   2.189   5.351  11.223  0.1002 -0.1233  0.1683
18507TIP3    H176936   2.187   5.261  11.190  0.2362 -0.1996  0.3714
18507TIP3    H276937   2.109   5.391  11.188 -0.8894 -0.8298  1.5523
18508TIP3   OH276938   1.437   6.621   2.136 -0.3644  0.4249  0.1177
18508TIP3    H176939   1.365   6.598   2.078  0.9095  0.7178 -1.6878
18508TIP3    H276940   1.448   6.545   2.193 -2.3638  0.5699  0.7538
18509TIP3   OH276941   2.017   0.111  15.240 -0.1564  0.2894 -0.2447
18509TIP3    H176942   1.971   0.034  15.272  0.5841  0.0868  0.3931
18509TIP3    H276943   2.094   0.118  15.297  0.3327  0.8991 -0.9486
18510TIP3   OH276944   0.755   2.741   2.070 -0.3345 -0.1236 -0.2316
18510TIP3    H176945   0.833   2.691   2.093  0.1473 -0.5641 -2.5534
18510TIP3    H276946   0.698   2.677   2.028 -0.7296  0.7660 -1.0725
18511TIP3   OH276947   0.630   6.676   0.189 -0.1214 -0.1507 -0.2016
18511TIP3    H176948   0.636   6.583   0.211  0.0714 -0.0228  0.2913
18511TIP3    H276949   0.540   6.687   0.157 -0.3870 -0.3572  0.4558
18512TIP3   OH276950   1.471   1.021  13.394  0.3632  0.0978  0.7634
18512TIP3    H176951   1.413   0.945  13.402  0.1964  0.2705  1.1888
18512TIP3    H276952   1.556   0.984  13.369 -0.0854 -0.1075 -0.5842
18513TIP3   OH276953   1.458   5.747   5.790 -0.1443 -0.3639 -0.4281
18513TIP3    H176954   1.468   5.780   5.701  0.2039 -0.9885 -0.6277
18513TIP3    H276955   1.547   5.747   5.825 -0.3130  0.1362  0.0218
18514TIP3   OH276956   3.795   5.052  15.116  0.4721 -0.4339  0.0945
18514TIP3    H176957   3.713   5.012  15.144 -0.6972  2.5413  1.4377
18514TIP3    H276958   3.832   5.090  15.196  2.2614 -0.2143 -0.7899
18515TIP3   OH276959   1.494   3.889   0.658 -0.1642 -0.0246 -0.0649
18515TIP3    H176960   1.510   3.884   0.752 -0.1443  0.0277 -0.0657
18515TIP3    H276961   1.566   3.942   0.624 -0.9543  1.1919  0.0898
18516TIP3   OH276962   4.779   2.701   1.891  0.1101  0.2623 -0.1839
18516TIP3    H176963   4.730   2.701   1.974 -0.2988 -1.1489 -0.3963
18516TIP3    H276964   4.757   2.784   1.850  0.0896  0.8609  0.9817
18517TIP3   OH276965   4.483   1.225  13.579 -0.0681  0.5235 -0.2911
18517TIP3    H176966   4.446   1.148  13.537  0.4210 -0.6432  1.3303
18517TIP3    H276967   4.415   1.256  13.639 -0.1550  1.1966 -0.7223
18518TIP3   OH276968   0.057   2.902  13.174  0.0152 -0.6360 -0.1812
18518TIP3    H176969   0.098   2.871  13.255 -0.0915 -0.0829  0.0866
18518TIP3    H276970   0.007   2.826  13.143 -0.8879 -0.5148  0.8967
18519TIP3   OH276971   4.673   5.614   1.553 -0.3011  0.3248  0.3199
18519TIP3    H176972   4.764   5.621   1.582 -0.0998 -2.5729  0.7156
18519TIP3    H276973   4.621   5.628   1.632 -0.1537  0.7690  0.3405
18520TIP3   OH276974   5.052   3.034   2.615  0.3731 -0.3471  0.0915
18520TIP3    H176975   5.109   3.069   2.546 -0.7625  1.6775  0.1276
18520TIP3    H276976   4.977   2.998   2.568 -0.7160  1.6187  0.2197
18521TIP3   OH276977   4.570   3.360  10.508 -0.2982 -0.6701 -0.3613
18521TIP3    H176978   4.492   3.323  10.467  0.5934 -2.2089 -0.7637
18521TIP3    H276979   4.537   3.415  10.579 -1.7491 -1.6083 -0.2746
18522TIP3   OH276980   5.569   2.051  14.579  0.5879  0.8204  0.1885
18522TIP3    H176981   5.557   2.139  14.544 -0.0967  1.5628  2.1332
18522TIP3    H276982   5.663   2.034  14.569  1.0468  2.4653  1.2062
18523TIP3   OH276983   0.802   3.233  12.400 -0.0751 -0.0596 -0.1402
18523TIP3    H176984   0.763   3.175  12.466  0.0130  0.7715  0.6653
18523TIP3    H276985   0.855   3.294  12.451  0.9982 -0.1755 -1.0994
18524TIP3   OH276986   6.461   6.387   5.567  0.4140  0.2607  0.6872
18524TIP3    H176987   6.416   6.307   5.543  0.4587 -0.4646  2.9070
18524TIP3    H276988   6.548   6.378   5.526  0.5878 -1.0479  1.2997
18525TIP3   OH276989   5.534   4.908  16.253  0.5160 -0.2829 -0.0976
18525TIP3    H176990   5.506   4.916  16.162 -1.2030 -0.8794  0.3473
18525TIP3    H276991   5.469   4.851  16.293 -0.1787  1.9302  2.1170
18526TIP3   OH276992   4.300   3.075   5.128 -0.1823  0.1534 -0.0113
18526TIP3    H176993   4.283   3.014   5.200 -0.8488 -0.4565 -0.6752
18526TIP3    H276994   4.278   3.161   5.165 -0.3537 -0.1288  0.5648
18527TIP3   OH276995   5.557   2.740  12.290  0.4804  0.0670 -0.8050
18527TIP3    H176996   5.474   2.722  12.335  0.5885 -0.4158 -0.8003
18527TIP3    H276997   5.592   2.816  12.336 -0.1798  0.5602 -1.1028
18528TIP3   OH276998   6.374   5.678   0.663 -0.0221  0.4817  0.2258
18528TIP3    H176999   6.398   5.719   0.579 -0.3615 -2.2163 -1.3098
18528TIP3    H277000   6.440   5.711   0.724  1.8370  0.6170 -1.6936
18529TIP3   OH277001   1.398   5.575   1.426  0.4242  0.6682 -0.5125
18529TIP3    H177002   1.434   5.662   1.441  0.7487  0.5116 -0.3722
18529TIP3    H277003   1.474   5.517   1.425 -0.0056 -0.1812  3.2125
18530TIP3   OH277004   4.747   0.179  11.156 -0.2565 -0.4167 -0.8051
18530TIP3    H177005   4.766   0.193  11.064 -1.5355  0.4575 -0.9674
18530TIP3    H277006   4.713   0.263  11.187  1.1771 -0.3409  0.7645
18531TIP3   OH277007   0.489   0.851   3.427 -0.0320 -0.0942 -0.0006
18531TIP3    H177008   0.423   0.914   3.397 -0.9217 -0.5217  0.9892
18531TIP3    H277009   0.485   0.856   3.523  1.0866 -0.4340  0.0788
18532TIP3   OH277010   5.946   2.252  12.873  0.3523 -0.7487 -0.1369
18532TIP3    H177011   5.853   2.232  12.886 -0.2019  0.8331 -1.3363
18532TIP3    H277012   5.978   2.275  12.960 -0.4790 -0.9498  0.2342
18533TIP3   OH277013   2.206   0.681  14.646 -0.1101 -0.1688 -0.2277
18533TIP3    H177014   2.275   0.698  14.711 -1.1178  1.8103  0.4187
18533TIP3    H277015   2.159   0.605  14.681 -1.2144  1.4178  1.9616
18534TIP3   OH277016   6.537   5.744  12.258 -0.1640 -0.6034 -0.5117
18534TIP3    H177017   6.625   5.751  12.220  0.4898 -2.0496  0.6193
18534TIP3    H277018   6.552   5.716  12.348 -1.7117  1.9369  0.6302
18535TIP3   OH277019   6.243   2.535   5.272  0.1237  0.0512  0.4671
18535TIP3    H177020   6.159   2.493   5.290 -1.3217  2.1231 -0.9023
18535TIP3    H277021   6.287   2.538   5.357 -1.1895 -1.0428  1.2404
18536TIP3   OH277022   2.858   6.010   6.233 -0.2548 -0.2986 -0.4911
18536TIP3    H177023   2.848   5.962   6.315  0.2169 -0.6728 -0.6466
18536TIP3    H277024   2.778   5.990   6.184 -0.1296 -0.8166 -0.4951
18537TIP3   OH277025   6.098   0.837   6.360 -0.0488 -0.1903 -0.5562
18537TIP3    H177026   6.034   0.871   6.423 -0.3081 -1.1792 -0.2578
18537TIP3    H277027   6.118   0.749   6.392  1.4241  0.0766 -0.6909
18538TIP3   OH277028   4.861   6.309  16.730  0.2131 -0.6000 -0.1012
18538TIP3    H177029   4.916   6.331  16.806 -0.8357  2.2988 -0.0700
18538TIP3    H277030   4.922   6.306  16.656  0.8436 -0.5021  0.4080
18539TIP3   OH277031   4.109   3.575   1.498  0.1618  0.4654  0.5009
18539TIP3    H177032   4.188   3.539   1.456 -0.3754  0.1626 -0.2799
18539TIP3    H277033   4.055   3.498   1.517 -1.3493  0.8186 -1.8893
18540TIP3   OH277034   0.307   1.894  11.461  0.2615 -0.1428  0.1173
18540TIP3    H177035   0.364   1.971  11.463  0.8253 -0.5466  0.0190
18540TIP3    H277036   0.218   1.930  11.459  0.4324  0.5097  2.0288
18541TIP3   OH277037   2.280   4.449   2.099  0.5150  0.0030  1.0180
18541TIP3    H177038   2.370   4.481   2.101  0.9396 -0.4372 -3.0903
18541TIP3    H277039   2.288   4.355   2.119  0.7791  0.1643  1.7071
18542TIP3   OH277040   1.783   4.470   4.131  0.3750  0.4055 -0.4722
18542TIP3    H177041   1.855   4.421   4.170  1.0399  0.6837 -1.3096
18542TIP3    H277042   1.735   4.405   4.079 -2.1300 -0.6075  2.7746
18543TIP3   OH277043   4.694   1.725  11.646 -0.0750  0.2672 -0.0380
18543TIP3    H177044   4.776   1.775  11.651  0.0367 -0.0464  1.9527
18543TIP3    H277045   4.705   1.669  11.569  1.2611  0.7802 -0.2476
18544TIP3   OH277046   4.338   6.603  12.911  0.0194 -0.1093  0.8555
18544TIP3    H177047   4.308   6.686  12.949 -0.6118  0.4467 -0.7416
18544TIP3    H277048   4.404   6.571  12.972  0.3796  1.6510  1.4540
18545TIP3   OH277049   4.221   3.229  16.504  0.0527 -0.0931  0.8394
18545TIP3    H177050   4.235   3.136  16.519  1.4660  0.2019  1.4976
18545TIP3    H277051   4.184   3.262  16.586  0.7443  0.1461  1.0626
18546TIP3   OH277052   4.956   6.364   5.611  0.1904 -0.0176 -0.1519
18546TIP3    H177053   4.943   6.456   5.588 -1.1099  0.1588  1.1584
18546TIP3    H277054   4.888   6.317   5.562  2.0862 -0.6083 -2.4220
18547TIP3   OH277055   2.962   1.147  16.485  0.7330  0.0717  0.1127
18547TIP3    H177056   3.055   1.162  16.467  0.6532  0.2892 -0.1087
18547TIP3    H277057   2.923   1.234  16.487 -0.2782 -0.0993 -4.0220
18548TIP3   OH277058   4.310   2.587  14.229 -0.4910  0.3255  0.0711
18548TIP3    H177059   4.347   2.609  14.315 -2.0318 -1.8353  1.4038
18548TIP3    H277060   4.325   2.664  14.176  0.1512  1.9338  2.4266
18549TIP3   OH277061   3.445   0.302  16.305 -0.1987 -0.2871 -0.1205
18549TIP3    H177062   3.457   0.341  16.218  0.3630  0.7106  0.3890
18549TIP3    H277063   3.359   0.335  16.333 -0.1362 -0.1740 -0.0651
18550TIP3   OH277064   1.878   4.602  14.260  0.0569 -0.2061  0.2834
18550TIP3    H177065   1.862   4.692  14.232 -2.4336 -0.8734 -0.7083
18550TIP3    H277066   1.931   4.564  14.189 -3.4394 -0.9471 -2.1851
18551TIP3   OH277067   4.130   4.237   0.134 -0.2693  0.7681 -0.0910
18551TIP3    H177068   4.052   4.274   0.174 -0.8604  2.9164 -2.8769
18551TIP3    H277069   4.203   4.280   0.179 -0.7639  0.7296  0.7682
18552TIP3   OH277070   5.305   3.303  10.500  0.0400 -0.1699 -1.0416
18552TIP3    H177071   5.215   3.294  10.470 -0.3261  0.6259 -0.2496
18552TIP3    H277072   5.352   3.229  10.461 -1.2005 -1.2530 -0.5336
18553TIP3   OH277073   2.034   3.375  13.340  0.4398  0.0858 -0.2533
18553TIP3    H177074   2.093   3.340  13.408  0.5627  0.2610 -0.2712
18553TIP3    H277075   2.089   3.384  13.263  0.6776  1.3561  0.0451
18554TIP3   OH277076   2.561   0.570   1.092 -0.1325 -0.4350  0.1160
18554TIP3    H177077   2.608   0.498   1.050  0.1736  0.2960 -0.8259
18554TIP3    H277078   2.620   0.599   1.162  0.3450 -0.2276 -0.3668
18555TIP3   OH277079   4.931   3.078  12.355 -0.4786 -0.1918  0.6366
18555TIP3    H177080   5.018   3.038  12.351  0.1316  1.1439 -1.2482
18555TIP3    H277081   4.929   3.138  12.280 -1.8077  2.3090  2.5022
18556TIP3   OH277082   2.268   0.212  16.720 -0.4966  0.3116  0.5994
18556TIP3    H177083   2.239   0.301  16.700  1.1541  1.0676  1.3714
18556TIP3    H277084   2.187   0.164  16.740 -1.5779  1.1804 -1.4063
18557TIP3   OH277085   2.102   0.813   5.124  1.0406  0.4883 -0.2192
18557TIP3    H177086   2.073   0.788   5.211 -1.1653  0.7438 -0.8355
18557TIP3    H277087   2.194   0.837   5.136  1.3675 -1.4178  1.6229
18558TIP3   OH277088   3.555   3.510   5.965 -0.4229  0.2392  0.0496
18558TIP3    H177089   3.489   3.526   5.898 -0.7947 -0.3352  0.2634
18558TIP3    H277090   3.569   3.595   6.007 -2.8377 -0.0360  1.6276
18559TIP3   OH277091   2.935   0.124   0.066 -0.3331 -0.0147 -0.0226
18559TIP3    H177092   2.909   0.184  -0.004 -0.1951  0.7201  0.5397
18559TIP3    H277093   3.020   0.158   0.096  0.2626 -1.1193 -0.3990
18560TIP3   OH277094   6.358   0.110   3.735  0.1719 -0.1492 -0.1820
18560TIP3    H177095   6.319   0.137   3.818  0.9425 -0.5045  0.3115
18560TIP3    H277096   6.315   0.028   3.713 -2.4172  1.4912 -1.8532
18561TIP3   OH277097   2.569   0.684  12.916  0.4109 -0.3502  0.3361
18561TIP3    H177098   2.660   0.680  12.945 -0.2877 -4.0578  2.7840
18561TIP3    H277099   2.563   0.623  12.843  0.0816  0.8780 -0.6996
18562TIP3   OH277100   3.186   0.028   4.280 -0.0205  0.1937 -0.5483
18562TIP3    H177101   3.231  -0.028   4.217 -0.9907 -1.4707  0.1687
18562TIP3    H277102   3.100   0.044   4.240 -0.1137  0.3240 -0.2958
18563TIP3   OH277103   5.760   4.437   2.920  0.7569 -0.0578  0.0752
18563TIP3    H177104   5.831   4.373   2.915  0.8525  0.1037 -0.8426
18563TIP3    H277105   5.798   4.517   2.884  0.4183  0.3201  0.5503
18564TIP3   OH277106   4.700   4.830   2.212  0.2840  0.4398 -0.2516
18564TIP3    H177107   4.636   4.875   2.157  0.8236  1.6989  0.1320
18564TIP3    H277108   4.649   4.763   2.258 -0.6265  1.0096 -0.4125
18565TIP3   OH277109   1.120   0.126  15.716 -0.2035  0.4940 -0.0859
18565TIP3    H177110   1.187   0.075  15.670  0.7265  0.7115  0.9742
18565TIP3    H277111   1.048   0.064  15.729 -0.6955  0.5469 -2.1842
18566TIP3   OH277112   5.080   3.503   1.884 -0.1623  0.6901  0.0416
18566TIP3    H177113   5.093   3.530   1.975  1.7573  0.2277 -0.0402
18566TIP3    H277114   4.999   3.546   1.857 -1.2270  0.1798  2.1981
18567TIP3   OH277115   2.510   6.745  16.312 -0.4190 -0.1088  0.0350
18567TIP3    H177116   2.579   6.739  16.246 -1.5641 -1.6796 -1.0950
18567TIP3    H277117   2.436   6.783  16.265 -1.0633 -0.6797  0.5718
18568TIP3   OH277118   2.870   6.756  16.584 -0.5252  0.8120  0.2690
18568TIP3    H177119   2.778   6.782  16.585 -0.2191  2.0696 -0.6983
18568TIP3    H277120   2.891   6.749  16.491  0.4787  1.0447  0.4704
18569TIP3   OH277121   5.173   6.295  16.030 -0.2198  0.0662  0.3615
18569TIP3    H177122   5.203   6.351  15.958  0.1493  0.1364  0.5666
18569TIP3    H277123   5.095   6.338  16.063  0.7060  1.1059  1.2760
18570TIP3   OH277124   6.120   3.012  14.991  0.3313  0.1944 -0.5623
18570TIP3    H177125   6.052   2.985  14.929  0.3233  0.4345 -0.6601
18570TIP3    H277126   6.110   2.954  15.066 -0.5742  0.8208 -0.1836
18571TIP3   OH277127   6.504   0.421   4.060 -0.3111 -0.3821 -0.5148
18571TIP3    H177128   6.414   0.402   4.037 -0.4678  0.7060 -0.8693
18571TIP3    H277129   6.550   0.429   3.976  0.1114 -0.8882 -0.3395
18572TIP3   OH277130   2.076   0.651  10.581  0.1615 -0.0289  0.0934
18572TIP3    H177131   2.095   0.618  10.493 -0.8104  0.7070 -0.4092
18572TIP3    H277132   1.986   0.684  10.575  0.2676  0.4922  1.2249
18573TIP3   OH277133   1.201   6.548   0.473  0.4552  0.4869  0.5753
18573TIP3    H177134   1.217   6.626   0.527 -0.2369  0.1863  1.2285
18573TIP3    H277135   1.199   6.476   0.536  0.8293 -0.0365  0.0032
18574TIP3   OH277136   1.843   0.146  11.773 -0.3352  0.7584  0.1248
18574TIP3    H177137   1.836   0.237  11.745 -0.6088  0.1294 -2.0987
18574TIP3    H277138   1.770   0.102  11.729  0.2078 -0.6586  0.5814
18575TIP3   OH277139   4.850   3.533  15.637  0.1933  0.0109 -0.2778
18575TIP3    H177140   4.883   3.548  15.726  0.3819  1.4792 -0.5728
18575TIP3    H277141   4.920   3.485  15.593  1.0769  1.2543 -0.2764
18576TIP3   OH277142   5.293   1.261  15.985  0.6168  0.4092  0.1164
18576TIP3    H177143   5.366   1.201  15.999  1.6372  1.6192  0.2256
18576TIP3    H277144   5.308   1.295  15.897 -0.2757  0.0850 -0.1680
18577TIP3   OH277145   4.849   0.861  14.722 -0.0115  0.2626  0.7734
18577TIP3    H177146   4.818   0.811  14.798 -0.0220 -0.8505  0.0514
18577TIP3    H277147   4.795   0.831  14.650  1.9563 -0.9219 -0.2962
18578TIP3   OH277148   6.176   1.743   2.704  0.1196  0.0380 -0.1061
18578TIP3    H177149   6.111   1.715   2.768 -0.2826  0.4572 -0.3202
18578TIP3    H277150   6.255   1.693   2.725  0.1233  0.4774  0.9804
18579TIP3   OH277151   4.999   5.816  12.620  0.3448  0.0408 -0.3975
18579TIP3    H177152   4.975   5.767  12.542  0.9192 -2.8290  1.0767
18579TIP3    H277153   5.076   5.770  12.654 -0.2254  0.8168  2.1319
18580TIP3   OH277154   2.190   1.389  14.284  0.2274 -0.2857 -0.2298
18580TIP3    H177155   2.275   1.402  14.243  1.0605  0.6935  1.6690
18580TIP3    H277156   2.181   1.294  14.290  1.0304 -0.4051 -0.7647
18581TIP3   OH277157   2.418   2.194   2.892 -0.3402 -0.2137  0.0602
18581TIP3    H177158   2.458   2.110   2.913  0.0764 -0.0337  0.0119
18581TIP3    H277159   2.405   2.236   2.978 -0.1090 -0.1354  0.0592
18582TIP3   OH277160   1.944   1.324   1.390  0.0137 -0.4031  0.3994
18582TIP3    H177161   1.859   1.282   1.381  0.1713 -1.2925  2.5745
18582TIP3    H277162   1.929   1.415   1.362 -1.6575 -0.5437  0.7407
18583TIP3   OH277163   2.227   5.425   1.112  0.2297 -0.0079  0.8256
18583TIP3    H177164   2.317   5.403   1.087  0.8574  1.3937  1.7008
18583TIP3    H277165   2.173   5.362   1.065  1.6359 -0.5616 -0.1278
18584TIP3   OH277166   0.691   3.379   2.916 -0.3992 -0.0921  0.3055
18584TIP3    H177167   0.634   3.452   2.942  1.5772  1.6555  0.0000
18584TIP3    H277168   0.648   3.342   2.839 -1.5465  0.6463  0.5641
18585TIP3   OH277169   0.647   5.479  14.272 -0.3412  0.1866 -0.2165
18585TIP3    H177170   0.606   5.392  14.272  2.3004 -1.1871  0.6307
18585TIP3    H277171   0.595   5.531  14.333  0.1405 -2.0228  2.2619
18586TIP3   OH277172   0.317   2.791   0.575 -1.0593 -0.1459  0.1353
18586TIP3    H177173   0.265   2.716   0.604  0.7274 -0.6050  2.4739
18586TIP3    H277174   0.272   2.867   0.612 -0.4244 -0.5023  1.7333
18587TIP3   OH277175   2.142   2.585   1.577  0.8363 -0.4897  0.4423
18587TIP3    H177176   2.235   2.561   1.579  0.3181 -2.8213 -0.5867
18587TIP3    H277177   2.118   2.578   1.485 -0.2513  0.6726  0.6142
18588TIP3   OH277178   4.789   1.558   4.153 -0.0927 -0.5933 -0.2260
18588TIP3    H177179   4.712   1.615   4.163 -1.3036 -2.4400  1.6764
18588TIP3    H277180   4.850   1.588   4.220  0.4815  0.1800 -1.0495
18589TIP3   OH277181   5.563   2.777  15.183  0.5577  0.2308  0.1698
18589TIP3    H177182   5.559   2.780  15.279  1.5788  0.0763  0.2246
18589TIP3    H277183   5.475   2.804  15.155  0.6994  1.8112  1.1288
18590TIP3   OH277184   0.514   2.184   2.251  0.6144 -0.0293  0.4109
18590TIP3    H177185   0.583   2.216   2.193 -0.1271  2.4173  0.7832
18590TIP3    H277186   0.525   2.089   2.250  0.9140 -0.1010 -3.3583
18591TIP3   OH277187   3.594   4.234  15.036 -0.0727 -0.0749  0.0562
18591TIP3    H177188   3.646   4.220  15.114  0.2431  0.2811 -0.0907
18591TIP3    H277189   3.513   4.274  15.067  0.4143  0.8847  0.1061
18592TIP3   OH277190   5.965   4.921  14.314  0.1946  0.2226  0.5295
18592TIP3    H177191   6.036   4.859  14.295  0.0292 -0.0942  0.9461
18592TIP3    H277192   5.887   4.866  14.325 -0.0750  0.5519  0.2930
18593TIP3   OH277193   4.535   2.493   0.301 -0.5745 -0.1313  0.5071
18593TIP3    H177194   4.620   2.505   0.344  0.8837 -3.9895 -0.8232
18593TIP3    H277195   4.537   2.554   0.227  1.9659 -1.3545 -0.5659
18594TIP3   OH277196   2.952   0.143   4.989  0.1134 -0.3699 -0.4797
18594TIP3    H177197   2.955   0.238   4.987  0.9527 -0.4121 -1.4541
18594TIP3    H277198   2.896   0.119   4.915 -0.0239 -0.6503 -0.2904
18595TIP3   OH277199   2.348   3.928  12.744 -0.5077  0.0375  0.6604
18595TIP3    H177200   2.302   3.993  12.689 -0.4535 -0.2157  0.3105
18595TIP3    H277201   2.335   3.845  12.698 -1.7475 -0.4479  1.8021
18596TIP3   OH277202   4.957   1.053   3.130  0.1309 -0.0611 -0.2615
18596TIP3    H177203   5.003   1.125   3.086  0.1622  1.3594  1.9757
18596TIP3    H277204   4.882   1.095   3.172  1.7714 -0.6476  3.6611
18597TIP3   OH277205   0.560   3.979   1.657  0.0997  0.2482  0.2619
18597TIP3    H177206   0.557   3.898   1.707 -1.3126 -0.3431 -0.7344
18597TIP3    H277207   0.612   4.039   1.712 -1.6730 -0.2443  2.6217
18598TIP3   OH277208   0.780   1.532   3.261 -0.1684 -0.3083 -0.0408
18598TIP3    H177209   0.724   1.458   3.236 -1.6802  1.0946 -1.0772
18598TIP3    H277210   0.868   1.496   3.262 -1.1094 -3.1315  3.6052
18599TIP3   OH277211   6.517   1.633  15.029 -0.5730  0.0218 -0.1278
18599TIP3    H177212   6.578   1.559  15.037 -0.5129 -0.0054 -0.7665
18599TIP3    H277213   6.553   1.686  14.958 -0.8149  0.4772  0.0867
18600TIP3   OH277214   5.516   6.613  12.381 -0.6268  0.2134  0.2665
18600TIP3    H177215   5.501   6.531  12.334  0.2537  0.3212 -0.2202
18600TIP3    H277216   5.522   6.679  12.312  0.8699  0.3475  0.4851
18601TIP3   OH277217   0.214   0.729   3.417  0.2825  0.0296  0.2262
18601TIP3    H177218   0.238   0.670   3.489  0.8791  1.2000  1.0177
18601TIP3    H277219   0.180   0.807   3.461  0.1699  0.5605 -0.7903
18602TIP3   OH277220   1.747   1.995  12.213  0.0637 -0.1171 -0.8283
18602TIP3    H177221   1.779   2.083  12.194  0.3148 -0.3225 -1.3775
18602TIP3    H277222   1.826   1.943  12.228 -0.0688 -0.3343 -0.8786
18603TIP3   OH277223   5.159   0.361  12.985  0.2397  0.2124 -0.1963
18603TIP3    H177224   5.068   0.391  12.989  0.0226 -0.1652 -1.8207
18603TIP3    H277225   5.173   0.317  13.069 -1.0298  0.3926  0.1379
18604TIP3   OH277226   3.724   1.346  12.759 -0.4771 -0.2046  0.5277
18604TIP3    H177227   3.735   1.326  12.666  1.0100  0.6357  0.4969
18604TIP3    H277228   3.760   1.270  12.805  0.8453  0.3239  0.4025
18605TIP3   OH277229   4.847   3.542   5.149  0.5559 -0.1465 -0.8686
18605TIP3    H177230   4.758   3.556   5.116  0.1823 -3.6958 -1.8584
18605TIP3    H277231   4.834   3.511   5.239  0.8182 -0.1098 -0.8176
18606TIP3   OH277232   3.132   1.221  11.268  0.1710  0.2001 -0.4209
18606TIP3    H177233   3.155   1.195  11.358  0.5152 -3.2430 -1.3480
18606TIP3    H277234   3.078   1.149  11.236 -1.1194  2.0179 -2.5651
18607TIP3   OH277235   6.696   0.494  16.902 -0.3957  0.2151  0.4432
18607TIP3    H177236   6.780   0.539  16.915  0.3402 -0.4038 -1.6923
18607TIP3    H277237   6.710   0.406  16.937 -0.5914  0.4962  1.2412
18608TIP3   OH277238   3.937   4.053   0.541  0.4617  0.5013 -0.6500
18608TIP3    H177239   3.927   4.012   0.627  0.0672  0.8562 -0.5239
18608TIP3    H277240   4.031   4.070   0.533  0.5388  0.2000 -0.4160
18609TIP3   OH277241   1.720   3.169   3.344  0.0731 -0.0747 -0.1447
18609TIP3    H177242   1.679   3.097   3.296  1.3256 -0.9645  0.0764
18609TIP3    H277243   1.774   3.126   3.411  1.2449  1.0466 -0.3338
18610TIP3   OH277244   5.958   2.098  13.430 -0.4185  0.2399 -0.2212
18610TIP3    H177245   5.891   2.063  13.371 -0.3879  1.1887 -0.8386
18610TIP3    H277246   6.020   2.142  13.372 -0.2778  1.0184  0.5049
18611TIP3   OH277247   0.897   4.715  13.920  0.1713 -0.0329 -0.7171
18611TIP3    H177248   0.810   4.677  13.908  0.5204 -0.7366 -1.1244
18611TIP3    H277249   0.926   4.681  14.005 -0.4514  1.2242  0.0124
18612TIP3   OH277250   2.066   3.645   4.523 -0.5990  0.1132 -0.1882
18612TIP3    H177251   2.075   3.557   4.486 -0.6763  0.6741 -1.6200
18612TIP3    H277252   2.141   3.655   4.581  0.6584 -0.1006 -1.7181
18613TIP3   OH277253   3.976   0.771   2.042 -0.3105  0.5355  0.4395
18613TIP3    H177254   4.003   0.829   2.113  1.2482  0.1083  0.2261
18613TIP3    H277255   4.056   0.724   2.017 -0.8330  0.5903 -1.5300
18614TIP3   OH277256   5.100   0.047   3.327 -0.2970  0.3270 -0.2287
18614TIP3    H177257   5.105  -0.045   3.354  0.9911  0.4160 -0.0984
18614TIP3    H277258   5.054   0.090   3.399 -0.7785 -0.1850 -0.2205
18615TIP3   OH277259   0.285   0.299   5.918  0.0831  0.3999  0.2685
18615TIP3    H177260   0.332   0.223   5.952 -0.7237  0.4669  1.5968
18615TIP3    H277261   0.274   0.280   5.824 -0.2052 -1.1913  0.5821
18616TIP3   OH277262   2.879   4.641   5.387 -0.7125  0.1231 -0.1206
18616TIP3    H177263   2.933   4.719   5.378  0.0598 -0.0092  2.5433
18616TIP3    H277264   2.790   4.672   5.373 -0.5098  1.7457  1.6607
18617TIP3   OH277265   5.292   0.138  11.214 -0.5100  0.3883 -0.2017
18617TIP3    H177266   5.301   0.110  11.305 -1.2400 -1.7998 -0.7331
18617TIP3    H277267   5.206   0.179  11.209 -1.1965 -0.9999 -0.2148
18618TIP3   OH277268   5.545   2.278   0.239  0.0373  0.6285 -0.0435
18618TIP3    H177269   5.609   2.259   0.308  1.8696  2.3480 -1.1659
18618TIP3    H277270   5.550   2.204   0.179  0.6314  0.5337  0.1232
18619TIP3   OH277271   1.603   0.884   2.812 -0.2800  0.2085 -0.5787
18619TIP3    H177272   1.679   0.904   2.866 -0.3577 -0.0705 -0.3631
18619TIP3    H277273   1.529   0.893   2.871 -0.2748 -1.3067 -0.2984
18620TIP3   OH277274   2.737   1.110  10.796  0.4490 -0.1828 -0.3772
18620TIP3    H177275   2.725   1.189  10.744 -1.5292 -0.9198 -1.1345
18620TIP3    H277276   2.787   1.051  10.738  2.5336  0.6728  0.4391
18621TIP3   OH277277   0.478   5.335   5.469  0.1927  1.3922  0.1748
18621TIP3    H177278   0.494   5.255   5.419 -0.3913 -0.2260  2.4322
18621TIP3    H277279   0.518   5.405   5.416  1.3266 -0.4565 -1.5478
18622TIP3   OH277280   2.650   4.319  12.072  0.6534 -0.0337 -0.0182
18622TIP3    H177281   2.716   4.304  12.139  0.0393  0.6153  0.7391
18622TIP3    H277282   2.694   4.371  12.005  1.8134 -2.1968 -1.0485
18623TIP3   OH277283   6.474   6.793  16.420  0.0103 -0.3652 -0.4607
18623TIP3    H177284   6.519   6.766  16.340 -0.5974 -2.4733 -0.1321
18623TIP3    H277285   6.541   6.839  16.471  1.1608 -1.4010 -1.0014
18624TIP3   OH277286   6.726   2.153  14.798 -0.2110 -0.1761  0.7740
18624TIP3    H177287   6.774   2.087  14.850 -0.7915  0.0636  1.6281
18624TIP3    H277288   6.730   2.120  14.708 -1.3429 -1.9191  1.3151
18625TIP3   OH277289   4.911   0.711  12.188  0.0167 -0.1811  0.7027
18625TIP3    H177290   5.005   0.695  12.176  0.0978 -0.0088  1.0839
18625TIP3    H277291   4.887   0.769  12.116  0.4018  0.4988  1.1083
18626TIP3   OH277292   1.204   4.561   3.972 -0.3096  0.3910  0.4438
18626TIP3    H177293   1.156   4.518   4.043 -1.3860 -1.1150 -1.1120
18626TIP3    H277294   1.204   4.654   3.995 -0.4572 -0.0588  2.4711
18627TIP3   OH277295   5.337   3.811  12.404 -0.1577 -0.1266  0.1466
18627TIP3    H177296   5.410   3.870  12.422  1.9542 -1.6393 -2.6274
18627TIP3    H277297   5.313   3.829  12.313 -3.7144  0.6539  1.0994
18628TIP3   OH277298   5.097   5.373   3.732 -0.0094  0.7797 -0.2293
18628TIP3    H177299   5.110   5.409   3.819 -1.5386  0.3928  0.1727
18628TIP3    H277300   5.003   5.355   3.726  0.5263 -2.8288 -0.4796
18629TIP3   OH277301   2.603   6.429  13.804  0.5168 -0.0204 -0.2741
18629TIP3    H177302   2.599   6.441  13.709 -3.0758  3.5622  0.0727
18629TIP3    H277303   2.512   6.417  13.831  0.8480  2.9460  2.9375
18630TIP3   OH277304   1.358   2.620  14.575 -0.5978 -0.4262  0.1317
18630TIP3    H177305   1.436   2.674  14.585 -0.4112 -0.7514  0.4790
18630TIP3    H277306   1.385   2.533  14.605 -0.4294 -1.1248 -1.9199
18631TIP3   OH277307   0.266   5.845   1.651  0.3229 -0.0913 -0.3579
18631TIP3    H177308   0.246   5.777   1.587 -0.9490 -0.6655  0.5962
18631TIP3    H277309   0.296   5.919   1.599 -1.6077 -0.1968 -1.7077
18632TIP3   OH277310   2.702   6.243   3.871 -0.0987 -0.0895  0.0948
18632TIP3    H177311   2.609   6.222   3.863  0.1075 -1.3731  0.8662
18632TIP3    H277312   2.704   6.339   3.868 -1.5681  0.0171  1.1783
18633TIP3   OH277313   1.969   5.068  13.822 -0.3288  0.3791  0.0653
18633TIP3    H177314   2.052   5.037  13.857 -0.7899  0.5277  1.3337
18633TIP3    H277315   1.948   5.146  13.873 -1.3018  0.2800 -0.1555
18634TIP3   OH277316   0.057   1.536  12.039  0.0950  0.0018 -0.2407
18634TIP3    H177317   0.116   1.522  12.113 -1.4223  0.8450  1.2144
18634TIP3    H277318   0.037   1.630  12.042 -2.0924 -0.4055  0.0070
18635TIP3   OH277319   3.854   1.909  11.333  0.2439 -0.6509 -0.3331
18635TIP3    H177320   3.772   1.942  11.369 -0.2187 -1.5721 -0.5128
18635TIP3    H277321   3.852   1.815  11.350  1.7223 -0.5554  0.5435
18636TIP3   OH277322   4.807   6.055  15.313  0.3234 -0.6746 -0.1362
18636TIP3    H177323   4.734   6.114  15.332  0.2298 -0.7240 -0.3283
18636TIP3    H277324   4.861   6.104  15.251  0.1793 -0.8334 -0.3936
18637TIP3   OH277325   5.040   6.100  14.864 -0.0901 -0.3121  0.0669
18637TIP3    H177326   5.116   6.043  14.871 -0.9686 -1.5458 -0.0901
18637TIP3    H277327   5.060   6.158  14.790 -0.1166 -1.9591 -1.2959
18638TIP3   OH277328   2.726   5.891  12.154  0.3273  0.2815  0.0596
18638TIP3    H177329   2.685   5.848  12.229 -0.0475  1.7288  0.7243
18638TIP3    H277330   2.773   5.821  12.109 -0.6457 -0.8954  0.8130
18639TIP3   OH277331   1.992   3.530   0.789 -0.8568 -0.8476  0.1334
18639TIP3    H177332   2.047   3.457   0.818 -0.8917 -0.4060  1.3609
18639TIP3    H277333   2.026   3.552   0.702  2.3692  0.7739  1.6289
18640TIP3   OH277334   3.729   6.691  14.037  0.0925 -0.1076  0.2105
18640TIP3    H177335   3.644   6.700  14.080  0.1601 -0.5693  0.4449
18640TIP3    H277336   3.776   6.771  14.060 -0.9097  1.0155 -1.3846
18641TIP3   OH277337   0.454   0.522   4.857 -0.2888  0.3047  0.9342
18641TIP3    H177338   0.439   0.534   4.764  1.4819  1.9400  0.8180
18641TIP3    H277339   0.500   0.438   4.864 -0.9491 -0.1094  0.4271
18642TIP3   OH277340   0.087   5.075   6.269  0.2617  0.5456 -0.0000
18642TIP3    H177341   0.001   5.112   6.289  0.1597  0.6026 -0.5274
18642TIP3    H277342   0.149   5.147   6.286 -0.0046  1.2727 -1.8054
18643TIP3   OH277343   0.617   0.999   5.913 -0.0771  0.2427 -0.1410
18643TIP3    H177344   0.597   1.087   5.881  1.6784  1.2673  1.4157
18643TIP3    H277345   0.691   0.971   5.860 -0.5868 -0.2854 -0.5826
18644TIP3   OH277346   5.531   5.953  13.008  0.0941  0.0938  0.3180
18644TIP3    H177347   5.599   5.909  13.058 -0.1062  0.0059  0.5168
18644TIP3    H277348   5.455   5.895  13.014  0.5826 -0.8224 -1.6128
18645TIP3   OH277349   2.775   0.961  14.019 -0.0188 -0.9525 -0.6621
18645TIP3    H177350   2.747   0.911  13.943  0.4063 -0.5985 -1.0559
18645TIP3    H277351   2.763   1.053  13.994  0.3897 -0.8261 -0.4110
18646TIP3   OH277352   1.558   3.035   5.863 -0.1393  0.7596  0.0096
18646TIP3    H177353   1.528   2.972   5.929 -0.6315  1.9606  0.9578
18646TIP3    H277354   1.517   3.118   5.888 -0.6998  1.1732 -2.0552
18647TIP3   OH277355   0.305   5.623   0.365  0.1817  0.0190  0.5155
18647TIP3    H177356   0.290   5.607   0.272  1.7371 -0.5957  0.3363
18647TIP3    H277357   0.220   5.650   0.399 -0.4584  0.0534 -1.0379
18648TIP3   OH277358   6.085   0.290  15.399 -0.2578  0.1558  0.1695
18648TIP3    H177359   6.009   0.270  15.455  0.7095 -1.2824  1.0468
18648TIP3    H277360   6.112   0.378  15.426 -0.4060 -0.1229  1.2969
18649TIP3   OH277361   4.479   3.079  16.441 -0.0485 -0.3955  0.0507
18649TIP3    H177362   4.432   3.010  16.487  1.1370  0.3868  2.6771
18649TIP3    H277363   4.571   3.058  16.455  0.3319  1.4686  0.6513
18650TIP3   OH277364   6.116   6.189  15.896  0.0133  0.1054 -0.9154
18650TIP3    H177365   6.043   6.177  15.834 -0.6806  1.0244 -0.3038
18650TIP3    H277366   6.074   6.210  15.979  0.9659  2.3239 -0.9088
18651TIP3   OH277367   1.770   6.645  13.972 -0.5536 -0.8131  0.3346
18651TIP3    H177368   1.825   6.679  14.042 -0.7275 -0.2165  0.1872
18651TIP3    H277369   1.767   6.715  13.907  1.7588 -2.3030 -1.5185
18652TIP3   OH277370   3.897   0.574  13.073 -0.7423  0.0076  0.4231
18652TIP3    H177371   3.908   0.587  13.167 -0.1100  0.2444  0.3228
18652TIP3    H277372   3.891   0.479  13.063 -3.4155  0.0444  0.9533
18653TIP3   OH277373   5.079   0.033  15.288 -0.1707  0.3369  0.2881
18653TIP3    H177374   5.081  -0.060  15.311  2.2951 -0.7206 -3.3326
18653TIP3    H277375   5.005   0.041  15.228 -2.3740  1.5726  2.9678
18654TIP3   OH277376   5.867   6.610   1.359 -0.3682  0.9202  0.2055
18654TIP3    H177377   5.816   6.546   1.410 -1.6461  1.6643 -0.0907
18654TIP3    H277378   5.917   6.557   1.298  0.4195  0.0678  1.5472
18655TIP3   OH277379   4.492   1.030  14.750  0.5153 -0.2132 -0.0169
18655TIP3    H177380   4.463   1.093  14.816 -0.7870  1.4387 -2.0440
18655TIP3    H277381   4.552   1.079  14.695 -0.0123 -0.9138 -1.2561
18656TIP3   OH277382   0.541   2.997   3.618 -0.0991  0.3243 -0.1854
18656TIP3    H177383   0.630   2.968   3.595  0.4791 -0.1959  2.3936
18656TIP3    H277384   0.508   2.929   3.676 -0.3039  2.6791  2.6965
18657TIP3   OH277385   1.810   3.906  17.079 -0.8982 -0.5064  0.4879
18657TIP3    H177386   1.883   3.923  17.019 -1.0455 -0.6068  0.2808
18657TIP3    H277387   1.752   3.981  17.068 -2.7843 -2.1705 -2.2375
18658TIP3   OH277388   0.748   3.552   1.530  0.1866  0.2949 -0.2247
18658TIP3    H177389   0.654   3.535   1.533  0.3859 -0.8025  0.6261
18658TIP3    H277390   0.760   3.630   1.585 -0.0302 -0.6855  1.2809
18659TIP3   OH277391   4.750   1.551  14.062  0.2226 -0.6572  0.0677
18659TIP3    H177392   4.685   1.587  14.123  0.2115 -1.4018  0.5135
18659TIP3    H277393   4.800   1.489  14.115  1.4224  0.0437 -0.2283
18660TIP3   OH277394   6.600   6.099   5.084 -0.1928 -0.0644 -0.1754
18660TIP3    H177395   6.641   6.156   5.019  1.7650 -0.4539  0.6381
18660TIP3    H277396   6.548   6.157   5.139 -0.2358  0.5489 -0.8517
18661TIP3   OH277397   5.095   5.757   4.285 -0.2392  0.0085 -0.5780
18661TIP3    H177398   5.103   5.832   4.225  0.2292  1.0652  0.7419
18661TIP3    H277399   5.162   5.695   4.254  0.8658  1.0774 -0.4127
18662TIP3   OH277400   4.402   4.246   5.180 -0.3507 -0.2588 -0.4189
18662TIP3    H177401   4.462   4.176   5.207 -1.8214 -1.3115  0.2673
18662TIP3    H277402   4.399   4.240   5.084  3.0401  1.9229 -0.8156
18663TIP3   OH277403   4.268   1.151   2.618 -0.1914  0.3963 -0.0524
18663TIP3    H177404   4.313   1.077   2.577 -1.3525 -1.3962  1.7057
18663TIP3    H277405   4.294   1.146   2.710 -2.0955  0.7332  0.5451
18664TIP3   OH277406   6.596   5.182   0.480  0.1815  0.3592 -0.0030
18664TIP3    H177407   6.510   5.164   0.441 -1.0229  2.9153  1.2176
18664TIP3    H277408   6.577   5.204   0.571  2.4591 -1.4288  0.9944
18665TIP3   OH277409   4.164   0.356  16.166 -0.0930 -0.2100 -0.5799
18665TIP3    H177410   4.217   0.294  16.217  0.1285  0.2225 -0.2845
18665TIP3    H277411   4.087   0.372  16.222  0.4717  0.7951 -0.0575
18666TIP3   OH277412   5.733   5.651   2.705 -0.2684  0.1080 -0.9811
18666TIP3    H177413   5.739   5.568   2.657  3.7019 -0.1032 -0.4936
18666TIP3    H277414   5.791   5.710   2.656  1.1408  0.9316  1.5320
18667TIP3   OH277415   3.002   6.668   2.728 -0.1305  0.2602  0.3469
18667TIP3    H177416   3.069   6.682   2.794  0.1399  1.9916 -0.2575
18667TIP3    H277417   2.994   6.752   2.682 -1.1462 -0.5440 -1.0447
18668TIP3   OH277418   2.535   4.028   3.302  0.6587  0.2216  0.1936
18668TIP3    H177419   2.585   4.097   3.258  0.8443  0.2936  0.5133
18668TIP3    H277420   2.499   4.071   3.380 -1.2053  0.6116 -0.8105
18669TIP3   OH277421   6.577   3.490  12.967 -0.0993  0.0534 -0.3949
18669TIP3    H177422   6.604   3.549  13.037  0.2896  0.2638 -0.7209
18669TIP3    H277423   6.482   3.482  12.978  0.1448 -1.2733  1.2188
18670TIP3   OH277424   4.621   1.515   2.994  0.3170 -0.1431 -0.0949
18670TIP3    H177425   4.680   1.457   3.042  0.6570 -1.7156 -2.2437
18670TIP3    H277426   4.608   1.471   2.909 -1.9522  1.3965 -0.6453
18671TIP3   OH277427   4.194   1.601   0.765 -0.4700 -0.1890  0.5175
18671TIP3    H177428   4.134   1.535   0.801  0.5791 -1.6906 -0.3434
18671TIP3    H277429   4.179   1.598   0.671  0.2883  0.0780  0.3837
18672TIP3   OH277430   1.733   1.425  13.634 -1.0701 -0.4571  0.4672
18672TIP3    H177431   1.775   1.495  13.584 -1.0002 -1.6684 -1.2861
18672TIP3    H277432   1.689   1.469  13.706 -1.0305  1.3867 -0.5800
18673TIP3   OH277433   6.499   3.219  10.907  0.7179  0.2985  0.6653
18673TIP3    H177434   6.525   3.306  10.939 -0.2231 -0.1763  2.9275
18673TIP3    H277435   6.544   3.158  10.966 -0.7192 -0.6461  0.8246
18674TIP3   OH277436   0.260   0.862   4.594  0.4072  0.8514 -0.4907
18674TIP3    H177437   0.199   0.928   4.559 -0.4993 -0.4969 -1.5580
18674TIP3    H277438   0.205   0.802   4.643  1.3902  1.5048  1.5096
18675TIP3   OH277439   6.313   0.621  13.957  0.1075 -0.4542  0.0765
18675TIP3    H177440   6.301   0.660  13.870 -1.4637 -0.5484  0.2236
18675TIP3    H277441   6.280   0.687  14.018  2.2319  0.0862  0.7401
18676TIP3   OH277442   1.840   2.896  12.402 -0.2081  0.1292 -0.3797
18676TIP3    H177443   1.927   2.922  12.374  1.1721 -3.9817 -0.5365
18676TIP3    H277444   1.787   2.896  12.321  0.8028 -1.1685 -1.0824
18677TIP3   OH277445   2.035   4.985   3.235  0.5807  0.2332  0.5613
18677TIP3    H177446   2.000   5.070   3.261  0.0435  0.3625 -0.5403
18677TIP3    H277447   2.001   4.970   3.146  1.3267 -0.7564  0.4149
18678TIP3   OH277448   2.724   3.554   4.618  0.2654 -0.2675 -0.0630
18678TIP3    H177449   2.702   3.468   4.654 -0.9812 -0.2000 -0.5873
18678TIP3    H277450   2.690   3.551   4.529  1.4431  0.2987 -0.5482
18679TIP3   OH277451   2.751   1.400  16.464 -0.4216  0.0680 -0.8517
18679TIP3    H177452   2.714   1.445  16.539 -1.1877 -0.5195 -0.8588
18679TIP3    H277453   2.781   1.469  16.405 -1.9850  0.5970 -1.0702
18680TIP3   OH277454   4.499   1.680  11.965  0.2866  0.0658  0.5978
18680TIP3    H177455   4.590   1.687  11.996  0.8173 -0.9378 -0.6214
18680TIP3    H277456   4.473   1.770  11.946  1.8994  0.1829 -1.3548
18681TIP3   OH277457   0.140   1.459  11.372  0.3027  0.0931  0.5629
18681TIP3    H177458   0.052   1.436  11.342  0.7599 -1.0479  0.0480
18681TIP3    H277459   0.192   1.465  11.291  1.1198 -1.1453  0.9684
18682TIP3   OH277460   5.698   2.983   4.388  0.0637  0.5078  0.1047
18682TIP3    H177461   5.735   2.903   4.351 -2.3577 -0.2160 -0.9342
18682TIP3    H277462   5.670   2.959   4.476 -1.3941 -0.0786 -0.4878
18683TIP3   OH277463   5.356   0.668  16.746  0.6369 -0.3951  0.3515
18683TIP3    H177464   5.346   0.762  16.761 -1.0246 -0.5032  0.0233
18683TIP3    H277465   5.332   0.628  16.830  1.4092 -0.5480  0.5133
18684TIP3   OH277466   5.959   1.502  15.189 -0.4787  0.0103 -0.2257
18684TIP3    H177467   5.901   1.467  15.257 -0.1142  0.3038  0.2457
18684TIP3    H277468   6.037   1.531  15.237 -0.5878  1.0497 -0.6562
18685TIP3   OH277469   0.202   3.603   1.862  0.2619  0.1301 -0.3841
18685TIP3    H177470   0.142   3.635   1.929  0.7719  0.2091  0.0439
18685TIP3    H277471   0.255   3.537   1.907  1.2326  0.8427 -0.4627
18686TIP3   OH277472   2.381   2.098  11.585  0.0572 -0.3355 -0.0450
18686TIP3    H177473   2.357   2.171  11.528  0.5751 -0.2362 -0.1435
18686TIP3    H277474   2.384   2.022  11.526  1.4205 -0.0816 -0.3256
18687TIP3   OH277475   1.817   1.082  12.732 -0.2895 -0.0448 -0.0545
18687TIP3    H177476   1.883   1.031  12.684  1.9160  1.2547  1.4332
18687TIP3    H277477   1.776   1.137  12.666  1.6582  0.6720 -0.7234
18688TIP3   OH277478   0.226   3.556   3.535  0.4906 -0.4760 -0.4371
18688TIP3    H177479   0.184   3.483   3.580 -0.9544 -0.1658 -1.2330
18688TIP3    H277480   0.183   3.561   3.450  1.5354  0.4341 -0.9420
18689TIP3   OH277481   2.124   1.698   3.396  0.2657  0.1553  0.1671
18689TIP3    H177482   2.035   1.725   3.417 -0.4288 -1.6891 -0.2146
18689TIP3    H277483   2.162   1.671   3.480 -0.9821 -2.9095 -0.1053
18690TIP3   OH277484   0.008   3.110   2.358  0.1748  0.3152  0.4353
18690TIP3    H177485  -0.082   3.084   2.378 -0.1197 -0.9722 -2.1436
18690TIP3    H277486  -0.001   3.195   2.315  0.0724 -0.2151 -0.6167
18691TIP3   OH277487   6.037   1.525   2.130 -0.1110  0.3100  0.0474
18691TIP3    H177488   6.025   1.436   2.098 -1.0231 -0.1013  1.4373
18691TIP3    H277489   6.076   1.515   2.217 -0.2455  1.2553  0.2353
18692TIP3   OH277490   1.686   5.951  15.113 -0.6860  0.2290 -0.0526
18692TIP3    H177491   1.668   5.863  15.146 -1.0050 -0.6033 -2.2360
18692TIP3    H277492   1.738   5.992  15.182 -1.9222 -1.0634  1.7454
18693TIP3   OH277493   2.472   6.264  12.862  0.3039  0.3095 -0.3460
18693TIP3    H177494   2.427   6.342  12.894  0.7736  1.3273 -2.0780
18693TIP3    H277495   2.557   6.295  12.833  0.1268 -0.6283 -2.0023
18694TIP3   OH277496   2.303   5.061   3.314  0.1985  0.1099 -0.6214
18694TIP3    H177497   2.297   5.151   3.346 -0.2708 -0.5884  1.3901
18694TIP3    H277498   2.229   5.053   3.253 -0.3120  0.8184 -0.1145
18695TIP3   OH277499   3.859   4.759  16.645  0.5789 -0.8060 -0.2191
18695TIP3    H177500   3.851   4.825  16.575  0.2433 -0.5113  0.0887
18695TIP3    H277501   3.809   4.684  16.612  0.6855 -0.7852 -0.4328
18696TIP3   OH277502   0.381   3.825   3.060  0.2474  0.6543  0.7085
18696TIP3    H177503   0.400   3.880   3.135 -1.4764  1.6207  0.4671
18696TIP3    H277504   0.430   3.865   2.988  1.6622 -0.1045  1.1947
18697TIP3   OH277505   3.920   1.725  14.754  0.3004  0.0299  0.2633
18697TIP3    H177506   3.830   1.700  14.732  0.5331 -1.3153  0.7115
18697TIP3    H277507   3.951   1.772  14.677 -0.6628  0.1996 -0.0409
18698TIP3   OH277508   4.774   3.087   3.506 -0.3740  0.1788 -0.1083
18698TIP3    H177509   4.745   3.099   3.596 -1.7376 -2.7201 -0.0452
18698TIP3    H277510   4.862   3.125   3.504 -1.0032  1.8987  1.9270
18699TIP3   OH277511   2.016   3.531  17.012  0.5371 -0.2489  0.3412
18699TIP3    H177512   2.012   3.523  16.917  2.2443  0.2825  0.1902
18699TIP3    H277513   1.934   3.575  17.036  1.0323  1.6114 -1.1355
18700TIP3   OH277514   4.681   3.766   3.854  0.0678 -0.0885  0.6747
18700TIP3    H177515   4.670   3.855   3.890 -0.3300 -0.4027  1.3488
18700TIP3    H277516   4.649   3.708   3.924 -2.2487 -0.6687 -0.7694
18701TIP3   OH277517   0.375   6.425  15.379 -0.1382  0.0460  0.5435
18701TIP3    H177518   0.297   6.450  15.329  0.8734  1.1962 -0.5275
18701TIP3    H277519   0.362   6.465  15.465 -1.5011 -1.2348  0.9901
18702TIP3   OH277520   5.510   6.201   4.963  0.0416 -0.1580  0.2809
18702TIP3    H177521   5.436   6.254   4.994 -0.4193 -0.3986 -0.3702
18702TIP3    H277522   5.502   6.118   5.010  0.7730  0.3346  1.3137
18703TIP3   OH277523   0.671   6.283   5.575 -0.6062 -0.4000 -0.1823
18703TIP3    H177524   0.738   6.346   5.551  0.4509 -1.1580  0.6782
18703TIP3    H277525   0.613   6.279   5.499  0.7603 -0.2877 -1.2724
18704TIP3   OH277526   5.893   0.416  11.879 -0.3959 -0.1566  0.0286
18704TIP3    H177527   5.942   0.355  11.825  0.0503 -0.0206  0.2789
18704TIP3    H277528   5.903   0.501  11.835 -0.0411 -0.0478  0.3165
18705TIP3   OH277529   3.081   2.139   5.932 -0.1970  0.6801 -0.0142
18705TIP3    H177530   3.054   2.160   6.021 -0.6951 -0.1042  0.0285
18705TIP3    H277531   3.154   2.199   5.914  1.7230 -0.9413  1.8973
18706TIP3   OH277532   3.060   1.658   1.538 -0.0682  0.4381  0.5447
18706TIP3    H177533   3.147   1.620   1.544 -1.3899 -2.9409  0.6996
18706TIP3    H277534   3.029   1.634   1.451 -1.1431  0.8307  0.7971
18707TIP3   OH277535   4.759   1.228   1.870 -0.4154  0.2718 -0.7150
18707TIP3    H177536   4.741   1.191   1.784 -0.2146  0.5592 -0.8837
18707TIP3    H277537   4.762   1.323   1.855 -2.4097  0.4943 -0.0252
18708TIP3   OH277538   4.280   1.217  11.911  0.1101  0.2373  0.1150
18708TIP3    H177539   4.352   1.170  11.953 -0.1134 -0.5290 -0.3396
18708TIP3    H277540   4.322   1.288  11.863  0.7403 -1.1030 -1.3947
18709TIP3   OH277541   0.440   2.407   4.126  0.2511 -0.1833 -0.1005
18709TIP3    H177542   0.404   2.330   4.081 -2.0025  0.0423  1.1964
18709TIP3    H277543   0.469   2.373   4.211  0.5940  0.1474 -0.0850
18710TIP3   OH277544   3.238   1.558  12.422 -0.1485 -0.5189  0.2806
18710TIP3    H177545   3.210   1.504  12.495 -1.5293  1.6851  1.4986
18710TIP3    H277546   3.284   1.631  12.462 -1.4524  1.0573 -0.9206
18711TIP3   OH277547   3.736   4.570   4.058 -0.1593 -0.3953 -0.3257
18711TIP3    H177548   3.720   4.658   4.092  0.1210 -0.8667  1.1283
18711TIP3    H277549   3.666   4.516   4.096  0.4312 -1.0355 -0.1165
18712TIP3   OH277550   0.925   3.587  11.787  0.5994 -0.0119 -0.3735
18712TIP3    H177551   0.863   3.658  11.803 -0.5465 -1.1811  0.4911
18712TIP3    H277552   0.877   3.524  11.734  1.1988 -0.7125 -0.0976
18713TIP3   OH277553   2.377   5.512  14.300 -0.1453 -0.2760 -0.0521
18713TIP3    H177554   2.457   5.540  14.256 -0.3517 -0.4818 -0.5705
18713TIP3    H277555   2.310   5.573  14.268 -0.0900  0.2762  0.8400
18714TIP3   OH277556   0.697   6.609   5.275  0.2855  0.5317 -0.3096
18714TIP3    H177557   0.640   6.680   5.305 -1.1505  0.5034 -2.7245
18714TIP3    H277558   0.698   6.618   5.180  1.5020 -1.6378 -0.5583
18715TIP3   OH277559   5.728   6.701   0.268 -0.3194 -0.3318  0.5182
18715TIP3    H177560   5.792   6.651   0.319 -0.3446 -4.6708 -3.0981
18715TIP3    H277561   5.777   6.733   0.192 -1.4347  0.9093  0.2748
18716TIP3   OH277562   1.196   0.746  10.839  0.3343 -0.1264 -0.6054
18716TIP3    H177563   1.251   0.825  10.837 -0.5765  0.5355 -0.3466
18716TIP3    H277564   1.259   0.674  10.840  1.2022  0.5979 -0.3968
18717TIP3   OH277565   1.225   2.162  16.043 -0.6113 -0.1729 -0.4252
18717TIP3    H177566   1.218   2.116  15.960 -0.7496 -1.3450  0.2104
18717TIP3    H277567   1.138   2.198  16.059 -0.7691 -0.5438 -0.4539
18718TIP3   OH277568   5.452   0.355   3.726 -0.2701 -0.3472  0.1059
18718TIP3    H177569   5.420   0.422   3.665 -1.4561  0.7643  1.8613
18718TIP3    H277570   5.487   0.405   3.800 -0.5669 -1.6597  1.1750
18719TIP3   OH277571   0.144   4.403  13.553 -0.2778 -0.2479 -0.0571
18719TIP3    H177572   0.198   4.341  13.505 -0.0274  0.3683 -0.5905
18719TIP3    H277573   0.124   4.472  13.490  1.3445  1.3608  1.0861
18720TIP3   OH277574   3.348   3.543   5.681  0.1953 -0.4436 -0.1094
18720TIP3    H177575   3.408   3.536   5.607 -0.7937 -3.0101 -0.7566
18720TIP3    H277576   3.287   3.613   5.655  1.9345  1.1661 -0.0767
18721TIP3   OH277577   1.684   2.168  16.463  0.8533 -0.0540  0.0182
18721TIP3    H177578   1.710   2.256  16.437  0.1349 -0.0574 -0.7374
18721TIP3    H277579   1.754   2.139  16.522  1.7375  0.5358 -0.7087
18722TIP3   OH277580   2.518   4.987  11.642 -0.0707  0.3965 -0.4460
18722TIP3    H177581   2.592   5.041  11.614 -0.0049 -0.2819 -1.6674
18722TIP3    H277582   2.530   4.904  11.595 -0.4708 -0.4828  0.9645
18723TIP3   OH277583   1.639   2.228   2.826  0.1485 -0.1659  0.4822
18723TIP3    H177584   1.569   2.260   2.768  1.4503  0.2230 -0.9233
18723TIP3    H277585   1.595   2.213   2.909 -1.8872 -1.1704 -0.6984
18724TIP3   OH277586   4.262   0.551  13.636  0.0464  0.3543  0.1277
18724TIP3    H177587   4.305   0.635  13.625  0.9193  0.1093  1.3838
18724TIP3    H277588   4.294   0.497  13.564  0.6534  0.6576  0.1633
18725TIP3   OH277589   3.778   4.447   2.308  0.1534 -0.4603 -0.4515
18725TIP3    H177590   3.831   4.370   2.285  1.6284  0.1660  0.7021
18725TIP3    H277591   3.747   4.428   2.397  2.6015  1.2592  0.8861
18726TIP3   OH277592   4.161   3.149   4.287  0.0553  0.1792  0.1018
18726TIP3    H177593   4.153   3.183   4.198 -0.2232  0.4209  0.2181
18726TIP3    H277594   4.094   3.081   4.293 -1.0627  1.2824  0.6443
18727TIP3   OH277595   6.058   5.144   0.397 -0.0675 -0.3144 -0.8819
18727TIP3    H177596   5.972   5.176   0.369  0.3356  2.1203  0.3803
18727TIP3    H277597   6.052   5.049   0.391 -2.9582 -0.2220 -0.5581
18728TIP3   OH277598   5.066   6.092   4.613  0.2661  0.3444  0.3564
18728TIP3    H177599   5.149   6.080   4.660  0.5895  3.0010  0.6586
18728TIP3    H277600   5.004   6.120   4.680 -0.4528 -0.0645 -0.1216
18729TIP3   OH277601   6.139   3.587  16.555  0.2210  0.7554 -0.0855
18729TIP3    H177602   6.139   3.514  16.493  1.2767  1.1798 -0.6074
18729TIP3    H277603   6.140   3.665  16.499 -1.2856  1.2090  0.4518
18730TIP3   OH277604   1.575   3.989   2.005  0.6747  0.2290  0.3505
18730TIP3    H177605   1.603   3.986   1.913 -1.0185 -1.4722 -0.1898
18730TIP3    H277606   1.646   3.948   2.053  2.3228  2.5666  0.0961
18731TIP3   OH277607   0.047   1.131  12.695  0.6948 -0.6366 -0.1552
18731TIP3    H177608   0.057   1.047  12.740  0.4588  1.0145  3.2895
18731TIP3    H277609  -0.047   1.138  12.677  0.0076  0.4213  3.1660
18732TIP3   OH277610   4.085   4.808  10.960  0.4597  0.1185 -0.0937
18732TIP3    H177611   4.124   4.852  10.885  2.3585 -1.1541  0.0666
18732TIP3    H277612   4.044   4.730  10.923  1.3723 -0.4949  0.1640
18733TIP3   OH277613   5.794   0.968  15.638  0.0950  0.4017  0.6116
18733TIP3    H177614   5.719   0.991  15.584  0.7089  2.0317  0.4084
18733TIP3    H277615   5.860   1.033  15.616  1.6070 -1.0306  0.7389
18734TIP3   OH277616   1.394   0.607  16.736  0.3238 -0.1710  1.1077
18734TIP3    H177617   1.471   0.612  16.680  1.2984  0.1146  2.4310
18734TIP3    H277618   1.331   0.666  16.696 -0.1676 -2.1988 -1.3620
18735TIP3   OH277619   3.664   5.306   3.774 -0.1885 -0.0105 -0.3421
18735TIP3    H177620   3.689   5.238   3.712  0.7714  1.2594 -1.4214
18735TIP3    H277621   3.598   5.357   3.727  1.4563  1.7277 -0.9123
18736TIP3   OH277622   4.668   4.096  14.680  0.6885  0.3601 -0.4226
18736TIP3    H177623   4.686   4.004  14.659  0.4488  0.4240 -0.9279
18736TIP3    H277624   4.752   4.140  14.665  1.4298 -0.1106  1.9628
18737TIP3   OH277625   0.488   1.493   5.745 -0.4755  0.8713  0.2293
18737TIP3    H177626   0.545   1.528   5.677 -1.0584 -0.7160 -1.1689
18737TIP3    H277627   0.477   1.564   5.807  1.5042  1.8033 -0.4303
18738TIP3   OH277628   4.386   0.810  13.079  0.5500  0.4114 -0.2109
18738TIP3    H177629   4.329   0.853  13.143 -0.6884  0.1678 -1.1164
18738TIP3    H277630   4.409   0.879  13.017 -1.1394 -0.1023 -1.4591
18739TIP3   OH277631   2.933   3.863  15.135  0.3052  0.3313 -0.4773
18739TIP3    H177632   3.012   3.903  15.098 -0.3902  1.7103 -0.5560
18739TIP3    H277633   2.956   3.846  15.227  1.1980 -0.7541 -0.8836
18740TIP3   OH277634   6.253   2.157   4.395 -0.4516  1.0083  0.2855
18740TIP3    H177635   6.229   2.235   4.445 -2.8859  0.8029 -0.4571
18740TIP3    H277636   6.170   2.113   4.377  0.8293 -1.7244  0.5751
18741TIP3   OH277637   1.297   2.480  12.272  0.4894  0.0640 -0.0361
18741TIP3    H177638   1.345   2.556  12.240 -1.3020  0.4671 -2.0278
18741TIP3    H277639   1.343   2.405  12.235  1.3473  0.2378  0.6416
18742TIP3   OH277640   3.250   6.389  12.717  0.7926  0.0961 -0.1493
18742TIP3    H177641   3.270   6.454  12.785 -0.2503  1.1019 -0.7762
18742TIP3    H277642   3.275   6.305  12.757 -0.3349  0.5856  1.7282
18743TIP3   OH277643   4.183   5.639   4.151 -0.1659 -0.5660  0.0823
18743TIP3    H177644   4.125   5.700   4.196 -0.0320  0.9401 -1.6809
18743TIP3    H277645   4.171   5.657   4.058 -1.0685 -4.1228 -0.6580
18744TIP3   OH277646   5.333   2.745   2.266 -0.0167  0.0002  0.3748
18744TIP3    H177647   5.240   2.756   2.243 -0.3570  0.2955  1.8337
18744TIP3    H277648   5.335   2.745   2.361  1.4725 -0.2435  0.3685
18745TIP3   OH277649   1.974   2.446   3.223 -0.0171  0.3077 -0.0987
18745TIP3    H177650   1.903   2.388   3.248 -1.5416  0.9279 -2.6101
18745TIP3    H277651   2.014   2.473   3.306 -3.7750  1.2374  1.6399
18746TIP3   OH277652   5.386   5.685   0.472  0.0992 -0.3001  0.2434
18746TIP3    H177653   5.340   5.671   0.555 -0.9857  0.7080 -0.1685
18746TIP3    H277654   5.336   5.633   0.409 -0.8768  1.2554 -0.3179
18747TIP3   OH277655   5.409   3.352   0.124 -0.5658  0.0849 -0.1636
18747TIP3    H177656   5.451   3.377   0.042 -2.1063  1.8391 -0.4900
18747TIP3    H277657   5.336   3.297   0.098 -1.3830  1.0878 -0.0433
18748TIP3   OH277658   5.268   3.213  15.200  0.0732 -0.3096 -0.2402
18748TIP3    H177659   5.209   3.242  15.269  0.3805 -0.7904  0.2368
18748TIP3    H277660   5.229   3.133  15.166 -0.5433  0.4120 -1.2464
18749TIP3   OH277661   2.429   4.845  16.746  0.3330 -0.3054  0.2643
18749TIP3    H177662   2.355   4.784  16.739  1.1840 -1.3525  0.0548
18749TIP3    H277663   2.457   4.838  16.837 -0.2576  0.6314  0.5288
18750TIP3   OH277664   2.576   3.545   2.307  0.2889  0.2861 -0.0542
18750TIP3    H177665   2.511   3.545   2.237 -2.2540 -0.8742  2.1091
18750TIP3    H277666   2.582   3.637   2.335 -0.8860  0.3363  0.0727
18751TIP3   OH277667   5.845   2.028  15.175 -0.2587 -0.0082 -0.8487
18751TIP3    H177668   5.881   1.995  15.092  0.2104  0.1765 -0.7216
18751TIP3    H277669   5.835   2.122  15.161  1.9590  0.4279  0.0395
18752TIP3   OH277670   5.047   1.460  14.460 -0.1006 -0.2692 -0.4116
18752TIP3    H177671   5.027   1.549  14.488  0.8581  0.0430 -0.6729
18752TIP3    H277672   5.049   1.409  14.541 -1.8173 -0.3134 -0.3690
18753TIP3   OH277673   5.635   6.615  15.282  0.4441  0.1939 -0.4817
18753TIP3    H177674   5.586   6.589  15.203  2.7008 -0.9765 -1.5839
18753TIP3    H277675   5.652   6.533  15.328  0.5276  0.6960  0.3996
18754TIP3   OH277676   0.447   2.835  12.101  0.0179  0.6154  0.0680
18754TIP3    H177677   0.388   2.834  12.176  0.5684 -0.0231  0.5034
18754TIP3    H277678   0.529   2.871  12.135  0.0715  0.9267 -0.3840
18755TIP3   OH277679   3.195   0.010  12.895 -0.5413  0.0847 -0.0247
18755TIP3    H177680   3.115   0.052  12.863 -0.1143  0.5883 -0.4498
18755TIP3    H277681   3.246  -0.009  12.816  1.4924  3.2742  0.3116
18756TIP3   OH277682   4.693   2.637  10.555 -0.0044 -0.0700 -0.1649
18756TIP3    H177683   4.640   2.587  10.492  0.1073  0.7784 -0.9433
18756TIP3    H277684   4.687   2.727  10.525 -0.1749  0.3936  1.2194
18757TIP3   OH277685   1.109   5.355  13.946  0.1221 -0.0867 -0.2467
18757TIP3    H177686   1.040   5.325  14.006 -0.9681 -0.2180 -1.5193
18757TIP3    H277687   1.074   5.435  13.907 -0.2241 -1.2211 -2.4089
18758TIP3   OH277688   1.065   1.898  15.483  0.1702 -0.2458 -0.5578
18758TIP3    H177689   1.058   1.817  15.432  0.7657 -0.7034  0.0722
18758TIP3    H277690   1.015   1.962  15.433  2.1843 -0.2092 -2.6702
18759TIP3   OH277691   1.783   3.347   2.015  0.0343 -0.2957 -0.3456
18759TIP3    H177692   1.776   3.431   1.969 -0.4703  0.9659  1.9123
18759TIP3    H277693   1.697   3.334   2.054  0.0043 -2.0640 -0.9301
18760TIP3   OH277694   6.127   6.237  12.703  0.0057 -0.1398  0.1347
18760TIP3    H177695   6.041   6.257  12.665 -0.7961 -1.0915  1.3490
18760TIP3    H277696   6.135   6.299  12.776  0.6113  0.3210 -0.3198
18761TIP3   OH277697   1.310   5.544  16.262  0.4318  0.2762  0.0235
18761TIP3    H177698   1.320   5.620  16.205  0.0221 -0.0656 -0.5211
18761TIP3    H277699   1.399   5.526  16.294  0.4470  1.2778  0.5604
18762TIP3   OH277700   4.382   6.783   3.621  0.1712 -0.6710 -0.7936
18762TIP3    H177701   4.357   6.726   3.694  1.9604 -1.6843 -0.9051
18762TIP3    H277702   4.376   6.727   3.544  1.3766 -0.5790 -0.9807
18763TIP3   OH277703   2.121   4.388  11.492 -0.3429 -0.4253 -0.3423
18763TIP3    H177704   2.064   4.391  11.569 -1.3030  1.6865 -1.0640
18763TIP3    H277705   2.077   4.327  11.432 -1.2134  0.2526 -0.4047
18764TIP3   OH277706   2.089   2.285  14.546  0.5147  0.7142  0.6379
18764TIP3    H177707   2.068   2.220  14.614 -0.9587  0.9569  0.4388
18764TIP3    H277708   2.145   2.237  14.485 -0.3600 -0.3197  0.6078
18765TIP3   OH277709   2.494   4.268   5.211  0.3429  0.0229  0.0093
18765TIP3    H177710   2.504   4.267   5.306 -2.3788  1.9128  0.4257
18765TIP3    H277711   2.451   4.184   5.191 -1.2232  0.5896  0.8257
18766TIP3   OH277712   6.739   2.681  13.844 -0.3099  0.0254  0.6474
18766TIP3    H177713   6.768   2.760  13.891  1.7010 -0.5533  0.4891
18766TIP3    H277714   6.710   2.621  13.913 -1.1083  0.6022  0.8252
18767TIP3   OH277715   3.227   3.098  14.969 -0.1830 -0.2433 -0.1901
18767TIP3    H177716   3.255   3.162  15.034 -0.3897 -0.0297 -0.3126
18767TIP3    H277717   3.190   3.150  14.898 -2.0029 -0.5633  0.4840
18768TIP3   OH277718   4.293   5.649   5.468 -0.2300 -0.7598 -0.2983
18768TIP3    H177719   4.198   5.650   5.477 -0.2455 -1.0285 -0.4213
18768TIP3    H277720   4.325   5.620   5.553 -0.2817 -1.1436 -0.4053
18769TIP3   OH277721   1.501   6.485   1.877  0.4837  0.1450 -0.4581
18769TIP3    H177722   1.531   6.492   1.786 -0.2418  0.1299 -0.7110
18769TIP3    H277723   1.456   6.400   1.881  1.9403 -0.6153  0.3580
18770TIP3   OH277724   3.770   1.288  16.972 -0.4528 -0.0169  0.1609
18770TIP3    H177725   3.703   1.232  16.932 -0.4523 -0.2607  0.4950
18770TIP3    H277726   3.725   1.331  17.044 -0.4733  0.4779 -0.1478
18771TIP3   OH277727   2.470   2.007  10.892 -0.4817  0.2760 -0.1106
18771TIP3    H177728   2.475   2.028  10.985  0.4673 -0.4698  0.0172
18771TIP3    H277729   2.443   2.089  10.850 -0.2463  0.7954  0.7434
18772TIP3   OH277730   4.981   5.054  12.073  0.0063 -0.3282  0.2731
18772TIP3    H177731   4.992   5.047  11.978  0.2746 -0.5403  0.3174
18772TIP3    H277732   4.886   5.053  12.086 -0.1195  1.8159 -0.1370
18773TIP3   OH277733   0.673   2.141  11.354  0.3941  0.0742  0.5401
18773TIP3    H177734   0.758   2.119  11.315 -1.1484 -0.0268 -3.2608
18773TIP3    H277735   0.673   2.237  11.356  0.0098  0.1625 -1.2776
18774TIP3   OH277736   1.835   6.139   6.561  0.5748 -0.2798 -0.5562
18774TIP3    H177737   1.814   6.208   6.623  0.2589 -0.1635 -0.7930
18774TIP3    H277738   1.929   6.123   6.573  0.7579  0.5480 -0.8715
18775TIP3   OH277739   2.092   3.467  14.405  0.1891  0.0551  0.1371
18775TIP3    H177740   2.124   3.414  14.332 -1.2838 -1.6393  0.6368
18775TIP3    H277741   2.010   3.505  14.373  0.3185  0.5707  0.4039
18776TIP3   OH277742   6.600   0.897   1.592  0.4708  0.3767 -0.0097
18776TIP3    H177743   6.547   0.956   1.537 -0.0447  0.4680  0.5745
18776TIP3    H277744   6.626   0.827   1.533  0.4364  0.7913 -0.5251
18777TIP3   OH277745   1.338   2.202   5.756 -0.1039 -0.1023 -0.2727
18777TIP3    H177746   1.424   2.165   5.775 -0.5823 -0.7464  0.7160
18777TIP3    H277747   1.306   2.233   5.841 -0.3798  1.1879 -0.8187
18778TIP3   OH277748   6.060   1.869  11.530 -0.4067 -0.1885 -0.1092
18778TIP3    H177749   6.006   1.859  11.608 -0.1739  0.0811  0.0845
18778TIP3    H277750   6.011   1.823  11.461 -0.7573 -0.1647  0.1234
18779TIP3   OH277751   2.102   5.612   3.197 -0.6487  0.0439  0.1723
18779TIP3    H177752   2.153   5.539   3.164 -0.5159  0.7309 -1.2270
18779TIP3    H277753   2.135   5.626   3.286  0.9583 -0.1323 -0.3593
18780TIP3   OH277754   0.265   3.356   2.486 -0.4335  0.8769  0.1983
18780TIP3    H177755   0.272   3.261   2.480  0.6974  1.0153 -0.8389
18780TIP3    H277756   0.355   3.388   2.480 -0.9333  2.1096 -1.6053
18781TIP3   OH277757   5.350   5.958   0.566 -0.1201  0.6703  0.5355
18781TIP3    H177758   5.313   5.997   0.487 -0.1312 -1.5330 -0.6357
18781TIP3    H277759   5.385   5.874   0.537  0.5220  0.1005  2.7543
18782TIP3   OH277760   5.723   0.462  16.599  0.2142 -0.2271  0.2298
18782TIP3    H177761   5.707   0.369  16.582 -2.0930  0.1558 -0.0242
18782TIP3    H277762   5.782   0.490  16.529  2.4582 -1.8557  1.3614
18783TIP3   OH277763   3.163   2.341  14.980  0.3763 -0.4722  0.3800
18783TIP3    H177764   3.156   2.433  14.954  1.2406 -0.4042  0.3698
18783TIP3    H277765   3.229   2.340  15.049  1.9821 -1.3542 -1.0750
18784TIP3   OH277766   2.533   2.790  16.419 -0.6444 -0.6720  0.4946
18784TIP3    H177767   2.475   2.866  16.417 -1.0137 -0.9305 -1.5993
18784TIP3    H277768   2.596   2.808  16.488 -1.2592  1.1268  0.6161
18785TIP3   OH277769   6.716   3.386   4.284 -0.2537 -0.1163 -0.0506
18785TIP3    H177770   6.691   3.443   4.212 -1.0922 -2.1401 -1.4543
18785TIP3    H277771   6.636   3.378   4.336  0.1762  0.8347  0.7936
18786TIP3   OH277772   4.663   1.872  14.484 -0.2515  0.3157 -0.6674
18786TIP3    H177773   4.635   1.887  14.575 -0.4719  1.7922 -0.9491
18786TIP3    H277774   4.609   1.932  14.432  0.3674  0.0026 -1.7050
18787TIP3   OH277775   2.994   4.338  11.901 -0.2390  0.2511 -0.6367
18787TIP3    H177776   2.995   4.279  11.976 -2.4144  0.0435 -0.6898
18787TIP3    H277777   3.064   4.401  11.918  1.0398 -1.3343  0.2359
18788TIP3   OH277778   1.261   4.364   3.477  0.3007 -0.3565  0.3431
18788TIP3    H177779   1.348   4.345   3.444  1.1149  2.6927  0.3871
18788TIP3    H277780   1.274   4.392   3.568 -0.8654 -0.8939  0.7030
18789TIP3   OH277781   3.277   0.909  12.084  0.1485  0.0391 -0.2582
18789TIP3    H177782   3.196   0.960  12.090 -0.0612 -0.1465 -1.2542
18789TIP3    H277783   3.262   0.848  12.012  0.1121 -1.9846  1.3690
18790TIP3   OH277784   3.143   2.505   2.210  0.5454 -0.2850 -0.1863
18790TIP3    H177785   3.192   2.567   2.157  0.9242 -0.1319  0.3372
18790TIP3    H277786   3.052   2.519   2.183  0.7188 -0.1471 -0.7259
18791TIP3   OH277787   0.883   4.553  11.376 -0.0140 -0.1372  0.1895
18791TIP3    H177788   0.918   4.467  11.401  2.9746  0.4253 -1.5966
18791TIP3    H277789   0.810   4.532  11.318 -0.4203 -1.4225  1.1049
18792TIP3   OH277790   4.685   5.038  10.573 -0.1308  0.2885 -0.8036
18792TIP3    H177791   4.622   5.031  10.501 -3.1697  0.2187  1.6506
18792TIP3    H277792   4.675   5.127  10.605  0.5856  0.0880  0.0194
18793TIP3   OH277793   3.439   5.641   1.224  0.5728  0.1372  0.9291
18793TIP3    H177794   3.423   5.571   1.160  1.6244  0.3442  0.4172
18793TIP3    H277795   3.381   5.712   1.196  1.9295  0.7105 -0.6275
18794TIP3   OH277796   2.528   2.431  14.972  0.2530  0.0303  0.2053
18794TIP3    H177797   2.571   2.353  15.006  2.2591  1.3548  0.9372
18794TIP3    H277798   2.478   2.465  15.046  1.4813  0.7896  0.7325
18795TIP3   OH277799   1.752   6.819   3.325 -0.0130 -0.3638 -0.4338
18795TIP3    H177800   1.685   6.795   3.261  0.5594  0.6466 -1.4606
18795TIP3    H277801   1.820   6.752   3.314 -0.0642 -0.3814 -0.6504
18796TIP3   OH277802   3.281   6.761   2.649 -0.0469 -0.4167  0.2716
18796TIP3    H177803   3.342   6.717   2.590 -0.6581 -0.9532  0.0222
18796TIP3    H277804   3.336   6.816   2.705  0.8385 -2.2740  1.2981
18797TIP3   OH277805   0.051   1.714  15.074  0.2124  0.0282 -0.4465
18797TIP3    H177806   0.140   1.752  15.074  0.3192 -0.0972  1.4365
18797TIP3    H277807   0.065   1.620  15.063  0.2862  0.0436 -0.4856
18798TIP3   OH277808   4.051   0.019   2.344 -0.6296  0.3562  0.5482
18798TIP3    H177809   4.043  -0.068   2.305 -0.9935  0.7300 -0.2331
18798TIP3    H277810   3.995   0.075   2.290  0.4665  1.2990  0.3481
18799TIP3   OH277811   2.275   3.633  14.534 -0.0407  0.3502  0.0118
18799TIP3    H177812   2.188   3.658  14.567  0.0912  1.3834 -0.3918
18799TIP3    H277813   2.256   3.587  14.452 -0.2352  0.0547  0.2201
18800TIP3   OH277814   0.322   6.450   5.788  0.0095  0.0244 -0.5209
18800TIP3    H177815   0.356   6.416   5.705 -0.9425  1.6055 -1.6092
18800TIP3    H277816   0.256   6.514   5.762 -1.3027 -0.4371  1.4898
18801TIP3   OH277817   1.776   2.678  12.762 -0.6237  0.1644  0.2385
18801TIP3    H177818   1.734   2.755  12.725  0.8785  0.5152 -0.7981
18801TIP3    H277819   1.774   2.692  12.857 -0.6156  1.3420  0.0715
18802TIP3   OH277820   3.245   2.710   2.082 -0.3096 -0.4663 -0.1768
18802TIP3    H177821   3.184   2.782   2.066 -0.2609 -0.6007 -1.0037
18802TIP3    H277822   3.315   2.749   2.134 -1.2141 -0.3716  1.0088
18803TIP3   OH277823   4.446   5.029   1.828 -0.1237 -0.7953 -0.2914
18803TIP3    H177824   4.449   4.959   1.763  0.0950 -0.4784 -0.6226
18803TIP3    H277825   4.519   5.086   1.805  0.4703 -1.1189  0.7244
18804TIP3   OH277826   5.964   6.136   6.362 -0.0270 -0.1566  0.6826
18804TIP3    H177827   5.881   6.120   6.318 -0.0015  2.8143 -0.6882
18804TIP3    H277828   6.027   6.148   6.291  0.3155  3.3353  1.3911
18805TIP3   OH277829   6.237   0.953   4.072 -0.1489 -0.0367  0.0289
18805TIP3    H177830   6.233   0.967   3.977 -0.4736 -1.2034 -0.1577
18805TIP3    H277831   6.182   1.022   4.109 -1.0193 -0.2919 -0.7376
18806TIP3   OH277832   4.082   4.087  13.221 -0.0286 -0.0692  0.4536
18806TIP3    H177833   4.149   4.151  13.199  0.3088 -1.0148 -1.4304
18806TIP3    H277834   4.101   4.012  13.165 -4.9500  1.0342 -3.3918
18807TIP3   OH277835   3.255   1.456   5.254 -0.0054  0.1747 -0.8597
18807TIP3    H177836   3.330   1.438   5.310 -1.0648 -1.3992  0.1258
18807TIP3    H277837   3.285   1.526   5.195  1.9317  0.1601  0.0424
18808TIP3   OH277838   3.644   6.326   1.150  0.4890 -0.2569 -0.5644
18808TIP3    H177839   3.677   6.237   1.162 -1.0364 -0.6180  1.3975
18808TIP3    H277840   3.622   6.330   1.057  0.4448 -1.9869 -0.6725
18809TIP3   OH277841   2.680   0.980   4.416  0.1870  0.3206  0.0332
18809TIP3    H177842   2.668   1.039   4.490  2.4275 -1.1443  1.7088
18809TIP3    H277843   2.622   0.905   4.435  0.0209  0.3764 -0.2378
18810TIP3   OH277844   6.598   0.060  12.508 -0.0906  0.2925 -0.3174
18810TIP3    H177845   6.568   0.150  12.499 -0.7098  0.0103 -1.3156
18810TIP3    H277846   6.518   0.008  12.512  0.2551 -0.2903 -0.6967
18811TIP3   OH277847   6.395   0.571  12.028 -0.0024 -0.2514 -0.4473
18811TIP3    H177848   6.338   0.609  11.961 -1.2777 -0.4477  0.4771
18811TIP3    H277849   6.385   0.477  12.017  1.0729 -0.3056 -1.0257
18812TIP3   OH277850   4.443   0.055  13.773  0.3198 -0.5111  0.2902
18812TIP3    H177851   4.362   0.075  13.819  0.9869  0.3507  1.1295
18812TIP3    H277852   4.418   0.049  13.681 -0.8750 -1.3572  0.6471
18813TIP3   OH277853   6.401   5.897   5.579  0.4359 -0.0853  0.2831
18813TIP3    H177854   6.367   5.865   5.663  0.4683  0.2690  0.4349
18813TIP3    H277855   6.486   5.853   5.570  1.6656  1.7739  1.7081
18814TIP3   OH277856   3.858   3.290  12.648  0.1614  0.1699 -0.2359
18814TIP3    H177857   3.868   3.281  12.553 -0.0375  0.4447 -0.2847
18814TIP3    H277858   3.941   3.330  12.676 -0.4639  1.7380 -0.5373
18815TIP3   OH277859   3.748   1.119   3.293  0.1537  0.4007  0.1874
18815TIP3    H177860   3.810   1.184   3.325 -0.6597  0.8435  0.8901
18815TIP3    H277861   3.740   1.056   3.364  0.9942 -0.5402 -0.5178
18816TIP3   OH277862   0.672   3.826  16.555 -0.2740 -0.1021 -0.1230
18816TIP3    H177863   0.679   3.827  16.650 -0.9011 -0.1093 -0.0722
18816TIP3    H277864   0.583   3.857  16.537  0.4669  1.8413 -0.7665
18817TIP3   OH277865   3.413   2.454  12.632 -1.0053  0.0840 -0.2947
18817TIP3    H177866   3.344   2.410  12.681  0.3680  0.0111  1.6735
18817TIP3    H277867   3.406   2.546  12.659 -0.6834  0.1730 -0.5120
18818TIP3   OH277868   0.544   5.680  14.726  0.1658  0.5400  0.5464
18818TIP3    H177869   0.586   5.761  14.755 -2.0475  2.3920 -1.0328
18818TIP3    H277870   0.463   5.677  14.777  0.5072 -1.0482  1.0230
18819TIP3   OH277871   5.546   3.580  12.604  0.3832 -0.1360 -0.0335
18819TIP3    H177872   5.590   3.573  12.689 -0.0311 -1.1729  0.1006
18819TIP3    H277873   5.453   3.586  12.625  0.2365 -0.8901 -0.4228
18820TIP3   OH277874   4.721   4.297  13.645  0.3196 -0.0377 -0.0242
18820TIP3    H177875   4.711   4.204  13.668 -1.0999  0.6689  2.5691
18820TIP3    H277876   4.810   4.319  13.674  0.0685 -0.2126  0.9180
18821TIP3   OH277877   1.539   0.052  16.604  0.5139 -0.0655  0.0561
18821TIP3    H177878   1.535   0.048  16.508 -0.7289 -0.8154  0.1204
18821TIP3    H277879   1.448   0.044  16.632  0.8397  0.4371  1.2992
18822TIP3   OH277880   4.663   0.780  12.616  0.5860  0.3226  0.2679
18822TIP3    H177881   4.720   0.825  12.554 -0.5511  1.2843 -0.1261
18822TIP3    H277882   4.577   0.819  12.601 -0.0452 -0.6302  1.2902
18823TIP3   OH277883   3.589   2.291   3.186  0.3695  0.4084 -0.1696
18823TIP3    H177884   3.637   2.361   3.228  1.2398 -0.7738  0.8830
18823TIP3    H277885   3.649   2.216   3.187 -0.7783 -0.5620 -0.5934
18824TIP3   OH277886   3.717   3.854   5.465 -0.1230  0.2235  0.3694
18824TIP3    H177887   3.774   3.777   5.472 -0.1588  0.3080  2.0435
18824TIP3    H277888   3.649   3.839   5.530  0.6112  2.2649  1.7041
18825TIP3   OH277889   3.469   2.665   4.773 -0.3034 -0.4031  0.4345
18825TIP3    H177890   3.439   2.653   4.863 -0.6191 -1.3038  0.2173
18825TIP3    H277891   3.547   2.720   4.781 -0.9843  0.5080  1.1610
18826TIP3   OH277892   5.517   0.643   3.363 -0.7573  0.0528  0.4185
18826TIP3    H177893   5.469   0.586   3.424 -0.0417  0.3843  1.3017
18826TIP3    H277894   5.467   0.724   3.362 -1.9597 -0.6532 -1.0842
18827TIP3   OH277895   4.495   3.895   4.967  0.4100  0.0534  0.0088
18827TIP3    H177896   4.587   3.880   4.944  0.6605  1.7161 -0.2420
18827TIP3    H277897   4.454   3.917   4.883 -0.2487 -0.7954  0.1046
18828TIP3   OH277898   1.105   5.135  17.041  0.2312 -0.5365 -0.3759
18828TIP3    H177899   1.113   5.229  17.023  0.1327 -0.5889 -0.7114
18828TIP3    H277900   1.098   5.095  16.954 -0.3442 -0.7982 -0.2106
18829TIP3   OH277901   2.795   4.947   0.558 -0.0129 -0.2270 -0.5067
18829TIP3    H177902   2.858   4.880   0.584 -0.9295 -1.3919 -1.1973
18829TIP3    H277903   2.837   5.030   0.581  0.7950 -1.0530  1.1652
18830TIP3   OH277904   2.817   6.207   2.323  0.3265  0.2837 -0.9420
18830TIP3    H177905   2.796   6.154   2.247  1.1239  0.4637 -1.2954
18830TIP3    H277906   2.909   6.190   2.340  0.5317  1.3559 -0.9149
18831TIP3   OH277907   3.721   6.108   4.860  0.2887  0.2263  0.1335
18831TIP3    H177908   3.688   6.033   4.811  1.1521 -0.2192  0.2138
18831TIP3    H277909   3.752   6.169   4.793 -1.1523  0.9034  0.0286
18832TIP3   OH277910   0.371   2.830  16.255 -0.2322  0.0080 -0.0896
18832TIP3    H177911   0.301   2.821  16.319  0.1740 -1.6951  0.1696
18832TIP3    H277912   0.444   2.866  16.306  0.1520 -1.5208  0.5055
18833TIP3   OH277913   3.024   6.361   3.865 -0.3434  0.4694  0.3648
18833TIP3    H177914   2.961   6.342   3.934 -1.4909 -0.0294 -0.7780
18833TIP3    H277915   2.996   6.306   3.792  2.3114 -0.9091  0.2748
18834TIP3   OH277916   2.299   2.448  14.681 -0.3480 -0.0527  0.6638
18834TIP3    H177917   2.216   2.420  14.641  0.8868 -2.2110 -0.5636
18834TIP3    H277918   2.305   2.541  14.660 -2.3717  0.1208  0.6592
18835TIP3   OH277919   4.302   4.754   3.314  0.2341 -0.0661 -0.4864
18835TIP3    H177920   4.366   4.707   3.368  1.5932 -0.7856 -2.5804
18835TIP3    H277921   4.319   4.724   3.225 -1.9137  1.0522 -1.3533
18836TIP3   OH277922   2.915   4.934  13.104  0.7406  0.0106 -0.2730
18836TIP3    H177923   2.973   4.925  13.180 -0.1899  0.0777  0.4559
18836TIP3    H277924   2.907   4.845  13.070  1.6013  0.0623 -0.6317
18837TIP3   OH277925   3.230   5.769  11.802  0.3517 -0.1142 -0.0242
18837TIP3    H177926   3.141   5.803  11.787 -0.0925 -0.9578  0.5800
18837TIP3    H277927   3.277   5.842  11.842  0.0431  0.4584 -0.6696
18838TIP3   OH277928   3.457   0.828   6.091 -0.5993  0.1698 -0.6081
18838TIP3    H177929   3.538   0.808   6.137 -0.3516 -2.5356 -1.9801
18838TIP3    H277930   3.400   0.867   6.157  2.3112  4.0147  0.0009
18839TIP3   OH277931   5.601   6.356  14.626  0.2578  0.6789 -0.3022
18839TIP3    H177932   5.516   6.384  14.657  0.1051 -0.1957  0.0934
18839TIP3    H277933   5.600   6.376  14.532 -0.3623  0.6979 -0.2948
18840TIP3   OH277934   5.169   6.727  13.187 -0.0719 -0.2864  0.6050
18840TIP3    H177935   5.116   6.680  13.123  1.0574 -2.2411  1.0295
18840TIP3    H277936   5.224   6.660  13.227  0.4478  1.1492  2.4510
18841TIP3   OH277937   3.327   2.399  14.481 -0.2477  0.0945  0.3481
18841TIP3    H177938   3.351   2.490  14.460 -1.9281  0.2372 -1.2701
18841TIP3    H277939   3.379   2.347  14.420  0.8406 -0.0821  1.3904
18842TIP3   OH277940   5.074   4.110  16.486  0.2376  0.1540 -0.2572
18842TIP3    H177941   5.156   4.130  16.442 -0.4009  0.7608 -1.2074
18842TIP3    H277942   5.053   4.020  16.460  0.0341  0.3934 -0.9463
18843TIP3   OH277943   0.937   5.236   0.242 -0.0464  0.1367  0.5690
18843TIP3    H177944   0.966   5.149   0.213 -0.4545  0.2489 -0.1889
18843TIP3    H277945   0.980   5.297   0.182 -0.0264  0.4442  0.8904
18844TIP3   OH277946   0.136   5.496  12.842  0.1475  0.8297 -0.4438
18844TIP3    H177947   0.045   5.492  12.872  0.2055 -0.6023 -0.3940
18844TIP3    H277948   0.142   5.430  12.773  0.5859  2.5284 -2.1411
18845TIP3   OH277949   0.147   6.820   0.010 -0.4067  0.1930 -0.6877
18845TIP3    H177950   0.168   6.905  -0.029 -0.6715 -0.2203 -1.7669
18845TIP3    H277951   0.069   6.791  -0.036 -0.2519 -0.6969 -0.4085
18846TIP3   OH277952   0.168   2.949  10.914  0.5224 -0.2990  0.0952
18846TIP3    H177953   0.261   2.966  10.932  1.1207 -2.0607 -1.0952
18846TIP3    H277954   0.168   2.898  10.834 -1.6518  1.4763 -1.1508
18847TIP3   OH277955   1.444   3.410   5.827 -0.2804  0.0397 -0.0800
18847TIP3    H177956   1.514   3.474   5.842  0.3296 -0.4057 -0.9084
18847TIP3    H277957   1.450   3.350   5.901  0.2299  0.0060 -0.1401
18848TIP3   OH277958   6.744   1.856   0.720 -0.2478  0.4945 -0.1082
18848TIP3    H177959   6.804   1.784   0.700  0.9311  1.8395 -1.6756
18848TIP3    H277960   6.792   1.912   0.781 -1.3276 -0.1914  1.4642
18849TIP3   OH277961   1.321   6.569   4.469 -0.2042  0.5309  0.2666
18849TIP3    H177962   1.250   6.530   4.519  2.1713 -1.2751  2.5374
18849TIP3    H277963   1.324   6.518   4.388 -0.2842 -0.7302  1.0257
18850TIP3   OH277964   1.417   2.600   0.221  0.1574 -0.0597 -0.6733
18850TIP3    H177965   1.372   2.521   0.192 -2.2616  0.5261  1.1952
18850TIP3    H277966   1.489   2.568   0.276  0.5185 -0.9678 -1.6445
18851TIP3   OH277967   6.344   3.746  12.590 -0.5130  0.1412  0.4380
18851TIP3    H177968   6.274   3.695  12.550  0.1522 -0.3154 -0.1491
18851TIP3    H277969   6.348   3.714  12.680  1.8386 -3.0456 -0.6178
18852TIP3   OH277970   2.279   5.224   5.420  0.6881 -0.0269 -0.4277
18852TIP3    H177971   2.192   5.240   5.456  1.0873  0.8648  0.1647
18852TIP3    H277972   2.268   5.148   5.362 -0.6647  0.6210 -1.0559
18853TIP3   OH277973   3.817   3.200   1.807  0.6869 -0.1346  0.0164
18853TIP3    H177974   3.793   3.293   1.803  0.4936 -0.2213 -1.8096
18853TIP3    H277975   3.745   3.155   1.762  0.8168 -1.1846  0.8103
18854TIP3   OH277976   6.505   3.656  10.770  0.5537  0.7329 -0.3110
18854TIP3    H177977   6.469   3.672  10.682  1.0630  0.2240 -0.6193
18854TIP3    H277978   6.600   3.661  10.758  0.6055  1.3442  0.3514
18855TIP3   OH277979   6.516   1.870   2.196  0.2538  0.7682 -0.0725
18855TIP3    H177980   6.439   1.924   2.210  1.5685  2.9766 -0.8328
18855TIP3    H277981   6.535   1.832   2.282 -1.3673  0.5580  0.2226
18856TIP3   OH277982   1.740   0.690  16.743 -0.1571  0.6298  0.4828
18856TIP3    H177983   1.823   0.647  16.760 -1.1092 -1.1613  0.7707
18856TIP3    H277984   1.691   0.628  16.689 -0.9694  2.0464 -0.4792
18857TIP3   OH277985   0.571   1.531   2.285  0.3255 -0.4046 -0.2006
18857TIP3    H177986   0.611   1.524   2.372 -0.2060  2.5923  0.4170
18857TIP3    H277987   0.492   1.477   2.290  0.3889 -0.4037  1.1362
18858TIP3   OH277988   5.376   2.574  16.321  0.1167 -0.2973 -0.0813
18858TIP3    H177989   5.412   2.648  16.369 -2.6094  1.2966 -0.2628
18858TIP3    H277990   5.398   2.592  16.230 -1.8124  1.2183 -0.3191
18859TIP3   OH277991   6.785   2.720  12.887 -0.4041  0.7185 -0.2933
18859TIP3    H177992   6.847   2.787  12.858  0.9457  0.0630  0.9239
18859TIP3    H277993   6.840   2.649  12.921 -1.7749  1.0767  3.0383
18860TIP3   OH277994   3.019   4.022  16.573 -0.0362  0.1074 -0.4211
18860TIP3    H177995   2.955   3.993  16.638  0.7576 -0.3652  0.1609
18860TIP3    H277996   2.973   4.014  16.490  0.0446 -2.6199 -0.2815
18861TIP3   OH277997   6.204   2.450   4.998 -0.1516  0.1388  0.2325
18861TIP3    H177998   6.133   2.497   4.953  1.7156  2.3264 -0.6669
18861TIP3    H277999   6.203   2.486   5.087 -0.6310 -0.4024  0.4510
18862TIP3   OH278000   2.424   1.105   3.035 -0.7728 -0.3489  0.5855
18862TIP3    H178001   2.434   1.013   3.060  0.7635 -0.2283  0.4840
18862TIP3    H278002   2.489   1.152   3.088  0.3327  0.3134 -1.2724
18863TIP3   OH278003   0.469   5.684  11.208  0.2599  0.3298  0.4535
18863TIP3    H178004   0.495   5.752  11.271 -0.4045  0.4829  0.5627
18863TIP3    H278005   0.548   5.669  11.155  1.1155 -0.4017  1.8548
18864TIP3   OH278006   2.070   6.603  13.655 -0.2391 -0.1950  1.2215
18864TIP3    H178007   2.058   6.696  13.633  0.2049 -0.1865  0.9952
18864TIP3    H278008   2.146   6.576  13.604 -0.6843 -0.8279  0.8828
18865TIP3   OH278009   3.168   5.748  13.749  0.0523  0.4134 -0.4750
18865TIP3    H178010   3.249   5.794  13.771  0.1135 -0.0571  0.3329
18865TIP3    H278011   3.099   5.800  13.789  0.0384  0.3223 -0.3790
18866TIP3   OH278012   4.764   2.682   5.921  0.2411 -0.0606 -0.4732
18866TIP3    H178013   4.789   2.666   5.830  0.4864  0.5605 -0.5221
18866TIP3    H278014   4.844   2.665   5.972  0.2054 -0.0469 -0.4121
18867TIP3   OH278015   3.685   1.946  12.810 -0.0271  0.1021  0.0242
18867TIP3    H178016   3.714   1.924  12.721 -0.8976 -3.0136  0.4167
18867TIP3    H278017   3.753   1.910  12.867 -1.6643 -2.0565  0.7172
18868TIP3   OH278018   4.791   0.689   3.989  0.5745 -0.3119  0.3205
18868TIP3    H178019   4.834   0.715   3.907  0.0054  1.3493  0.5065
18868TIP3    H278020   4.715   0.639   3.960  0.6365 -0.1387 -0.1634
18869TIP3   OH278021   6.312   6.336  12.202  0.0800  0.7864  0.0879
18869TIP3    H178022   6.267   6.318  12.119  1.7939 -1.1972 -0.4906
18869TIP3    H278023   6.254   6.303  12.269 -1.4058  2.5521 -0.2386
18870TIP3   OH278024   2.339   6.024   2.485  0.0104  0.5526 -0.3669
18870TIP3    H178025   2.426   5.987   2.470 -0.1842  0.6036 -1.7071
18870TIP3    H278026   2.279   5.951   2.473 -0.1890  0.7079 -0.3147
18871TIP3   OH278027   5.388   3.573   1.065  0.2961 -0.2553  0.2423
18871TIP3    H178028   5.430   3.520   1.132 -3.0741  0.1235  2.9186
18871TIP3    H278029   5.307   3.526   1.044  0.1741  0.7991 -1.9690
18872TIP3   OH278030   5.222   3.224  12.988  0.1963  0.3867  0.7165
18872TIP3    H178031   5.185   3.248  13.073 -0.3979  0.6718  0.3853
18872TIP3    H278032   5.312   3.257  12.991  0.7195 -1.0759  1.8542
18873TIP3   OH278033   0.786   3.080   4.931 -0.5813 -0.0466  0.9835
18873TIP3    H178034   0.806   3.173   4.929  0.2169 -0.2174  0.8331
18873TIP3    H278035   0.870   3.036   4.915 -0.4281 -0.8340  3.4734
18874TIP3   OH278036   1.491   4.474  15.735 -0.5414  0.6322  0.4564
18874TIP3    H178037   1.536   4.549  15.774  1.7817 -1.6243  2.5113
18874TIP3    H278038   1.413   4.462  15.788 -0.9007  1.5378  0.1434
18875TIP3   OH278039   4.587   3.848   2.204  0.9040 -0.3594 -0.3098
18875TIP3    H178040   4.557   3.918   2.146  0.6436  1.0870  1.4451
18875TIP3    H278041   4.549   3.768   2.168 -0.1545  0.6339 -1.4915
18876TIP3   OH278042   4.584   0.395   3.354  0.5447 -0.6061 -0.1158
18876TIP3    H178043   4.556   0.467   3.298  0.2982  0.0637  0.8358
18876TIP3    H278044   4.522   0.325   3.337 -0.3141  0.0500  0.2775
18877TIP3   OH278045   6.642   0.408   0.188 -0.4230 -0.8777  0.6491
18877TIP3    H178046   6.617   0.316   0.200 -0.3859 -0.9780  0.0210
18877TIP3    H278047   6.560   0.457   0.197 -0.2873 -0.8651  1.9789
18878TIP3   OH278048   4.352   1.825  14.300  0.5223 -0.2720 -0.0177
18878TIP3    H178049   4.301   1.902  14.327 -0.0253 -0.5690 -0.1957
18878TIP3    H278050   4.402   1.801  14.378 -0.4373 -0.6366  0.4980
18879TIP3   OH278051   1.837   5.241   0.734  0.7132  0.1895 -0.4433
18879TIP3    H178052   1.909   5.226   0.796  3.0077  2.6990 -2.2905
18879TIP3    H278053   1.829   5.336   0.729 -1.9852 -0.0095 -1.2317
18880TIP3   OH278054   5.910   6.179  15.726 -0.0830 -0.5365  0.5514
18880TIP3    H178055   5.815   6.175  15.716  0.2078 -1.9264 -3.1912
18880TIP3    H278056   5.934   6.266  15.693  0.0289 -0.5455  0.6066
18881TIP3   OH278057   6.755   4.622  11.140  0.0473 -0.2677  0.2070
18881TIP3    H178058   6.796   4.705  11.116  0.2141 -0.8577 -1.7424
18881TIP3    H278059   6.808   4.555  11.096  0.1208 -1.4641  2.0146
18882TIP3   OH278060   4.368   4.926  12.935 -0.3577 -1.1882  0.5651
18882TIP3    H178061   4.420   4.849  12.959  0.0784 -1.6889 -1.7551
18882TIP3    H278062   4.391   4.992  13.000  0.3323 -2.5669  1.7750
18883TIP3   OH278063   1.579   5.932   3.419  0.0137  0.3744  0.3706
18883TIP3    H178064   1.597   5.899   3.331 -1.1963  1.9646 -0.5433
18883TIP3    H278065   1.651   5.991   3.438  0.1046  0.2890  0.2898
18884TIP3   OH278066   2.581   2.099  15.517  0.1325 -0.0903 -0.1528
18884TIP3    H178067   2.523   2.160  15.471  1.4668  0.2124 -1.5306
18884TIP3    H278068   2.615   2.149  15.591  0.2142  0.4298 -0.5319
18885TIP3   OH278069   0.942   3.488   0.838  1.0113  0.0310 -0.0563
18885TIP3    H178070   0.895   3.439   0.906  0.5296  1.5196  0.7395
18885TIP3    H278071   1.034   3.468   0.854  0.7395 -2.6597 -1.4258
18886TIP3   OH278072   3.061   1.574  14.906 -0.6125  0.6106 -0.1905
18886TIP3    H178073   3.055   1.638  14.977 -3.6193 -0.4075  0.6113
18886TIP3    H278074   3.121   1.507  14.939  0.5264  1.6781  0.0053
18887TIP3   OH278075   0.341   0.936   0.080  0.0066  0.1941  0.4107
18887TIP3    H178076   0.347   0.850   0.038  0.0882 -0.4213  1.6381
18887TIP3    H278077   0.247   0.950   0.093 -0.0073  0.2871  0.2013
18888TIP3   OH278078   0.936   3.560   4.410 -0.0781 -0.1564  1.0212
18888TIP3    H178079   0.878   3.504   4.462 -1.5477  1.1373  0.8360
18888TIP3    H278080   1.020   3.557   4.457 -0.7671 -0.6815  2.2815
18889TIP3   OH278081   1.554   1.342  13.949  0.1113  0.2909  0.2353
18889TIP3    H178082   1.485   1.358  13.886 -0.7931 -0.9255  0.8731
18889TIP3    H278083   1.580   1.251  13.934 -0.8250 -0.3720  2.2112
18890TIP3   OH278084   6.047   1.438   2.892  0.3961 -0.1482  0.2041
18890TIP3    H178085   6.027   1.345   2.898 -0.4142  0.0863  1.5448
18890TIP3    H278086   6.125   1.450   2.945 -0.0172  0.0696  0.7718
18891TIP3   OH278087   3.763   3.280   3.076  0.1096 -0.4917  0.7525
18891TIP3    H178088   3.843   3.329   3.096 -0.1017 -0.0731  0.5837
18891TIP3    H278089   3.694   3.332   3.117  0.1644 -2.2995  3.4170
18892TIP3   OH278090   1.405   1.276  12.230 -0.3240 -0.2627 -0.3562
18892TIP3    H178091   1.340   1.271  12.160  0.7033 -0.8509 -1.3128
18892TIP3    H278092   1.414   1.370  12.248 -2.5789 -0.2438  0.9485
18893TIP3   OH278093   6.784   4.428  10.208  0.5599 -0.4324  0.3566
18893TIP3    H178094   6.708   4.370  10.210  0.1632  0.0942  1.3364
18893TIP3    H278095   6.749   4.512  10.178  0.6820 -0.1076  1.0972
18894TIP3   OH278096   1.665   1.683   5.902  0.8949 -0.6372 -0.2825
18894TIP3    H178097   1.663   1.731   5.985  0.7272 -1.0002 -0.0711
18894TIP3    H278098   1.581   1.638   5.899  0.2601  0.5629 -1.3740
18895TIP3   OH278099   4.616   3.070   6.160 -0.1415  0.1228  0.0839
18895TIP3    H178100   4.559   3.046   6.233  0.6555 -1.0080  0.3602
18895TIP3    H278101   4.692   3.111   6.201  0.6692 -1.2292 -0.0335
18896TIP3   OH278102   6.165   1.200  14.855  0.0169  0.0325  0.0676
18896TIP3    H178103   6.124   1.199  14.769 -2.6746 -1.6920  1.2233
18896TIP3    H278104   6.126   1.276  14.899 -0.3056 -0.3396  0.4396
18897TIP3   OH278105   2.643   5.933   5.688  0.0836  0.7683 -0.1980
18897TIP3    H178106   2.600   5.950   5.771 -0.7951 -1.0439 -0.2290
18897TIP3    H278107   2.730   5.971   5.698 -0.3865  1.5662  1.1155
18898TIP3   OH278108   1.821   3.475   3.622 -0.2410 -0.0055  0.1218
18898TIP3    H178109   1.795   3.394   3.666 -2.3267  0.4840 -0.0770
18898TIP3    H278110   1.771   3.475   3.540  1.2243  0.5684 -0.8128
18899TIP3   OH278111   2.103   3.318   5.306 -0.4429  0.2391 -0.0985
18899TIP3    H178112   2.197   3.303   5.317 -0.3894 -0.0499 -0.8699
18899TIP3    H278113   2.067   3.231   5.288 -0.5554  0.5979 -1.7657
18900TIP3   OH278114   6.038   4.147  15.649 -0.4338  0.3989 -0.0831
18900TIP3    H178115   6.116   4.202  15.645  2.0080 -2.4377  2.5352
18900TIP3    H278116   5.972   4.203  15.690  0.1758  2.8336 -2.1566
18901TIP3   OH278117   0.989   5.885   4.298  0.5194 -0.3784 -0.6842
18901TIP3    H178118   0.952   5.900   4.385  0.7459 -1.0479 -0.4667
18901TIP3    H278119   1.082   5.909   4.307  0.4976 -0.2534 -0.7941
18902TIP3   OH278120   4.491   4.891  10.772  0.2421  0.1562  0.1786
18902TIP3    H178121   4.491   4.864  10.864  1.3157 -1.0279 -0.1447
18902TIP3    H278122   4.582   4.887  10.746 -0.1729 -0.6188 -1.2472
18903TIP3   OH278123   5.849   0.558  14.091 -0.1890 -0.3825 -0.0488
18903TIP3    H178124   5.834   0.635  14.037  1.5597 -0.5917 -0.8789
18903TIP3    H278125   5.863   0.487  14.028 -0.7760 -1.1803  0.7002
18904TIP3   OH278126   4.352   0.702   2.624  0.0229 -0.3055  0.1632
18904TIP3    H178127   4.320   0.777   2.574  0.1913  0.6897  1.5164
18904TIP3    H278128   4.348   0.730   2.715  1.3501 -1.4661  0.6111
18905TIP3   OH278129   1.677   0.330   1.305 -0.0728 -0.5615  0.1330
18905TIP3    H178130   1.683   0.238   1.278  2.2938  0.0347 -1.6213
18905TIP3    H278131   1.711   0.331   1.394 -1.0311 -1.5089  0.5263
18906TIP3   OH278132   1.265   0.513   2.799  0.0829 -0.0401 -0.1408
18906TIP3    H178133   1.254   0.540   2.708  1.7169  1.7737  0.1389
18906TIP3    H278134   1.356   0.535   2.819  0.1533 -1.6777  1.5413
18907TIP3   OH278135   1.975   0.385   2.559 -0.0718 -0.9496  0.3608
18907TIP3    H178136   2.053   0.423   2.519  1.7287 -2.1467  2.4661
18907TIP3    H278137   1.941   0.325   2.493  2.2419 -2.2077  0.2187
18908TIP3   OH278138   1.927   3.036   0.728  0.1770 -0.0341 -0.2787
18908TIP3    H178139   1.895   2.972   0.791 -0.1658  0.5081  0.1062
18908TIP3    H278140   1.874   3.022   0.650 -0.3910  0.2690  0.0528
18909TIP3   OH278141   1.347   6.025   2.725 -0.2330 -0.2683  0.4900
18909TIP3    H178142   1.299   6.039   2.806  0.4811  0.8356  0.7557
18909TIP3    H278143   1.439   6.040   2.749 -0.1691  2.2643 -0.8968
18910TIP3   OH278144   0.144   3.916   2.965  0.3501 -0.1746  0.3661
18910TIP3    H178145   0.207   3.854   3.004  0.1778 -1.0503 -0.6818
18910TIP3    H278146   0.197   3.993   2.944  0.6534 -0.1012  1.3245
18911TIP3   OH278147   5.618   2.237   2.183 -0.2713  0.1868 -0.4322
18911TIP3    H178148   5.642   2.312   2.238 -0.4397  0.2474 -0.4386
18911TIP3    H278149   5.606   2.275   2.096  0.4157  0.0231 -0.6092
18912TIP3   OH278150   0.488   0.880  13.690  0.2130 -0.0619  0.2924
18912TIP3    H178151   0.481   0.967  13.729  1.4198  0.8462 -1.4286
18912TIP3    H278152   0.434   0.825  13.747 -0.1219  1.6702  1.7552
18913TIP3   OH278153   5.307   5.260  12.971 -0.4628 -0.4538  0.0851
18913TIP3    H178154   5.386   5.253  13.026 -0.9320  0.1847  0.8721
18913TIP3    H278155   5.258   5.180  12.990 -0.8949  0.0222  1.0707
18914TIP3   OH278156   5.378   5.954   5.389 -0.1910 -0.4044  0.2628
18914TIP3    H178157   5.424   5.904   5.456 -0.4215 -0.2930  0.5081
18914TIP3    H278158   5.288   5.921   5.391 -0.0916 -0.7291 -0.3194
18915TIP3   OH278159   6.414   0.891  16.435 -0.1723  0.0981  0.1505
18915TIP3    H178160   6.320   0.904  16.422 -0.1408 -0.8109 -1.1844
18915TIP3    H278161   6.444   0.852  16.353  1.5097  1.0242  0.2870
18916TIP3   OH278162   1.282   6.111  16.239 -0.0178 -0.2487  0.3259
18916TIP3    H178163   1.200   6.142  16.200  0.8276 -0.7491 -1.9802
18916TIP3    H278164   1.268   6.122  16.334 -2.3988  0.4764 -0.0240
18917TIP3   OH278165   0.386   3.222   1.102  0.3136 -0.3865  0.5524
18917TIP3    H178166   0.427   3.230   1.189 -0.1495  0.2316  0.7227
18917TIP3    H278167   0.383   3.312   1.069  1.0339 -0.6844 -0.3665
18918TIP3   OH278168   2.572   2.069  12.996 -0.5720 -1.0773  0.2064
18918TIP3    H178169   2.580   2.133  13.067  1.1064  1.2148 -1.8716
18918TIP3    H278170   2.479   2.045  12.996 -1.4066  1.7892  0.7809
18919TIP3   OH278171   5.519   2.615  15.789  0.1218  0.4400  0.0188
18919TIP3    H178172   5.428   2.617  15.818  0.2392 -2.0340  0.8469
18919TIP3    H278173   5.568   2.589  15.867  1.8049  3.1243 -0.0194
18920TIP3   OH278174   4.292   1.182  12.263  0.5641 -0.0663 -0.0150
18920TIP3    H178175   4.320   1.271  12.285  1.0204 -0.5795  1.6469
18920TIP3    H278176   4.224   1.194  12.197  1.5802  1.4336 -0.8429
18921TIP3   OH278177   4.405   0.912   3.980 -0.0968 -0.4000 -0.1756
18921TIP3    H178178   4.371   0.977   3.919  1.7885  0.7049 -0.1164
18921TIP3    H278179   4.500   0.924   3.979  0.2160 -2.3187  0.7961
18922TIP3   OH278180   2.254   1.893   3.000 -0.1608  0.0188  0.7720
18922TIP3    H178181   2.325   1.893   2.936  0.5298 -2.5434  1.4150
18922TIP3    H278182   2.185   1.945   2.960  0.7470 -0.3822 -1.4482
18923TIP3   OH278183   4.316   2.700  12.484  0.1485  0.0401 -0.0196
18923TIP3    H178184   4.373   2.648  12.541 -0.1539 -0.1050  0.1590
18923TIP3    H278185   4.300   2.643  12.409 -1.3837 -0.7481  0.8518
18924TIP3   OH278186   0.385   5.637  12.324 -0.0287  0.0036  0.3301
18924TIP3    H178187   0.444   5.710  12.340  0.8235 -0.8369  1.1529
18924TIP3    H278188   0.388   5.624  12.229  2.7528 -1.2868  0.4846
18925TIP3   OH278189   6.794   1.593   1.117 -0.1825  0.2051 -0.2128
18925TIP3    H178190   6.886   1.572   1.100  0.8952  1.7514  3.0076
18925TIP3    H278191   6.797   1.669   1.175 -3.5630  0.8388 -0.6774
18926TIP3   OH278192   4.259   6.801  14.221 -0.6258 -0.6574 -0.3022
18926TIP3    H178193   4.213   6.756  14.291  0.0408 -0.4885  0.2516
18926TIP3    H278194   4.352   6.791  14.242 -0.4483  0.5354 -0.4255
18927TIP3   OH278195   1.776   4.518  12.886  0.5562  0.5800 -0.1695
18927TIP3    H178196   1.842   4.537  12.819  0.1352  1.4545 -0.3422
18927TIP3    H278197   1.733   4.438  12.855 -0.0976  1.3412 -1.3175
18928TIP3   OH278198   4.245   5.427   2.411  0.5586 -0.6163 -0.1247
18928TIP3    H178199   4.167   5.447   2.461  0.8110  1.1543 -0.3639
18928TIP3    H278200   4.212   5.397   2.326  0.0877  1.2048 -0.6318
18929TIP3   OH278201   0.843   3.839   3.780 -0.0619  0.6791 -0.1130
18929TIP3    H178202   0.851   3.752   3.818 -0.6297  0.2571 -0.9335
18929TIP3    H278203   0.756   3.840   3.740 -0.4775  1.9768  0.7682
18930TIP3   OH278204   3.462   3.675  14.387 -0.1086 -0.2274  0.2613
18930TIP3    H178205   3.514   3.616  14.331  1.9789 -1.2551  3.0695
18930TIP3    H278206   3.496   3.763  14.366  1.9192 -0.7597  1.0433
18931TIP3   OH278207   2.663   5.774  13.652  0.0834 -0.1484  0.5217
18931TIP3    H178208   2.652   5.863  13.619 -0.9432 -0.3111  0.3968
18931TIP3    H278209   2.632   5.778  13.743 -0.2028 -0.4325  0.4378
18932TIP3   OH278210   4.569   3.745  13.209 -0.1483 -0.3228  0.1367
18932TIP3    H178211   4.484   3.701  13.220 -1.5705  1.9185 -1.1252
18932TIP3    H278212   4.614   3.695  13.141 -1.9307  0.3543 -1.6348
18933TIP3   OH278213   5.076   1.747   0.347 -0.0702  0.1426 -0.2503
18933TIP3    H178214   5.068   1.722   0.440  0.0650  0.6806 -0.0916
18933TIP3    H278215   5.118   1.833   0.349 -0.7134  0.4726 -0.7863
18934TIP3   OH278216   2.353   1.166   4.414 -0.1954  0.4623  0.2683
18934TIP3    H178217   2.329   1.089   4.466  1.7946 -1.2138 -1.1354
18934TIP3    H278218   2.443   1.184   4.440  0.6462 -0.0622 -2.1258
18935TIP3   OH278219   5.147   0.649  14.610  0.1792 -0.2382  0.0734
18935TIP3    H178220   5.066   0.623  14.653 -0.4514  0.5562 -0.5917
18935TIP3    H278221   5.192   0.704  14.673  0.2798 -0.8083  0.5042
18936TIP3   OH278222   6.314   3.720   6.162 -0.0464 -0.1751 -0.6037
18936TIP3    H178223   6.342   3.654   6.225  1.2775 -0.1254 -1.1059
18936TIP3    H278224   6.376   3.712   6.089 -1.1025  0.2440 -1.5876
18937TIP3   OH278225   1.173   3.903   2.340 -0.1543  0.3070  0.2814
18937TIP3    H178226   1.233   3.840   2.300 -0.3125 -0.5611  1.3375
18937TIP3    H278227   1.203   3.910   2.431 -2.2666 -1.0458  1.1948
18938TIP3   OH278228   5.087   0.617  13.549 -0.3177  0.2275  0.2225
18938TIP3    H178229   5.158   0.659  13.501 -1.0588 -1.2140 -2.3503
18938TIP3    H278230   5.023   0.686  13.564  0.8305  1.1543  1.0273
18939TIP3   OH278231   6.612   1.885   3.824  0.5053  0.4121  0.6271
18939TIP3    H178232   6.644   1.805   3.783  0.7395  0.3749  0.8819
18939TIP3    H278233   6.644   1.955   3.766 -2.6890  0.2158 -1.6522
18940TIP3   OH278234   0.386   5.303   0.802 -0.3529 -0.3009  0.2328
18940TIP3    H178235   0.324   5.339   0.866  1.9712  1.5650  1.5947
18940TIP3    H278236   0.394   5.372   0.736  0.3465 -0.4853  0.1231
18941TIP3   OH278237   5.842   2.821  12.414 -0.1328  0.7911  0.5815
18941TIP3    H178238   5.807   2.746  12.462  1.6001  0.7840  1.9529
18941TIP3    H278239   5.828   2.896  12.472 -2.9874  1.8477 -1.3015
18942TIP3   OH278240   6.073   6.644  16.762  0.7220 -0.1955  0.6778
18942TIP3    H178241   6.049   6.735  16.743 -0.9318 -0.8659 -0.7767
18942TIP3    H278242   6.132   6.649  16.837  0.3243  2.0343  0.8969
18943TIP3   OH278243   1.801   0.891  11.992  0.0888  0.2068  0.7096
18943TIP3    H178244   1.856   0.969  11.992  1.0317 -0.4129  2.5442
18943TIP3    H278245   1.719   0.920  12.033  0.5081  0.1830  1.5660
18944TIP3   OH278246   0.890   4.028   1.536 -0.3001  0.5155 -0.1379
18944TIP3    H178247   0.881   4.118   1.567  1.0527  0.6275  0.0182
18944TIP3    H278248   0.851   3.975   1.605  2.0536  0.8088  1.5339
18945TIP3   OH278249   1.111   1.453  13.948 -0.3402 -0.4386 -0.5694
18945TIP3    H178250   1.191   1.409  13.919 -0.2382 -1.0262  0.5721
18945TIP3    H278251   1.142   1.536  13.985 -0.2265 -0.7647  0.0791
18946TIP3   OH278252   6.319   0.561   4.980 -0.2049  0.0698  0.1437
18946TIP3    H178253   6.257   0.517   4.922  0.2165 -3.2786  1.9886
18946TIP3    H278254   6.274   0.565   5.065  1.2150 -0.2613  0.9424
18947TIP3   OH278255   4.387   6.684  12.175 -0.3242  0.1126  0.1265
18947TIP3    H178256   4.326   6.678  12.101 -0.9553 -1.7231  0.7466
18947TIP3    H278257   4.468   6.647  12.141 -0.6817 -0.9457  0.4022
18948TIP3   OH278258   1.362   0.656   1.398 -0.8395 -0.2206 -0.0687
18948TIP3    H178259   1.349   0.737   1.349 -0.4333 -1.3993 -2.2606
18948TIP3    H278260   1.411   0.600   1.338  0.5619 -1.4298  2.1080
18949TIP3   OH278261   0.475   4.829   2.517 -0.4268  0.4197 -0.2653
18949TIP3    H178262   0.412   4.771   2.475 -0.5289  0.4021 -0.0903
18949TIP3    H278263   0.421   4.892   2.566 -0.3088  0.1794  0.1864
18950TIP3   OH278264   0.094   4.270  17.018 -0.6098 -0.6150  0.2393
18950TIP3    H178265   0.120   4.178  17.014 -2.7173 -1.2457 -2.5805
18950TIP3    H278266   0.128   4.308  16.937  1.9879  1.7749  2.2393
18951TIP3   OH278267   3.690   1.133  14.158  0.3092 -0.3401 -0.0655
18951TIP3    H178268   3.616   1.080  14.190  2.1204 -1.8893  1.9194
18951TIP3    H278269   3.699   1.203  14.222 -1.0378  1.5011 -1.7872
18952TIP3   OH278270   4.283   6.086   3.635  0.0642  0.1879  0.3784
18952TIP3    H178271   4.352   6.152   3.621  1.2263 -1.4061 -2.1673
18952TIP3    H278272   4.323   6.023   3.695  0.2466  0.0553  0.1187
18953TIP3   OH278273   1.562   3.623  16.557  0.6642 -0.3859  0.2180
18953TIP3    H178274   1.623   3.674  16.612  2.2566 -2.0459  0.0813
18953TIP3    H278275   1.502   3.582  16.620  1.1865 -0.6324  0.5643
18954TIP3   OH278276   6.310   4.906  14.294  0.0435  0.1424 -0.1203
18954TIP3    H178277   6.352   4.841  14.351  0.1910  0.1874 -0.1774
18954TIP3    H278278   6.375   4.923  14.226  0.0278  0.3911 -0.0735
18955TIP3   OH278279   3.186   3.906  15.001  0.2019  0.2026 -0.4889
18955TIP3    H178280   3.217   3.954  15.078 -1.3878  0.2396  0.1614
18955TIP3    H278281   3.234   3.945  14.928  0.9336  0.9253  0.3494
18956TIP3   OH278282   4.525   1.403  11.892  0.5299  0.0304  1.0264
18956TIP3    H178283   4.582   1.411  11.816  0.6901  1.5963  1.2773
18956TIP3    H278284   4.495   1.492  11.909 -2.4457 -0.7870  0.5902
18957TIP3   OH278285   5.732   1.850  12.165  0.8275  0.1258  0.0173
18957TIP3    H178286   5.793   1.922  12.178 -2.0394  2.5803  1.0776
18957TIP3    H278287   5.693   1.835  12.252 -0.0279 -1.3938 -0.5779
18958TIP3   OH278288   3.710   3.581  16.486 -0.4524  0.2993 -0.0153
18958TIP3    H178289   3.632   3.573  16.430  0.1781 -2.9626 -0.6448
18958TIP3    H278290   3.783   3.580  16.424  0.1672  0.2534  0.7088
18959TIP3   OH278291   4.180   0.796  15.035  0.5287 -0.2786  0.1899
18959TIP3    H178292   4.222   0.784  15.120 -1.0241  1.6006  1.3246
18959TIP3    H278293   4.124   0.719  15.025  2.3788 -1.6143 -0.2364
18960TIP3   OH278294   2.527   1.491  12.572 -0.0508 -0.2338 -0.1597
18960TIP3    H178295   2.517   1.430  12.499  1.5552 -0.9865  0.1987
18960TIP3    H278296   2.581   1.562  12.536  3.7412 -2.2288  1.0294
18961TIP3   OH278297   5.568   5.916   5.932  0.2246 -0.4234  0.1339
18961TIP3    H178298   5.565   5.924   6.027 -1.2387  1.1146 -0.0029
18961TIP3    H278299   5.490   5.865   5.909 -0.1060  0.2688 -0.3172
18962TIP3   OH278300   3.103   0.950  14.660  0.1556  0.0364  0.4454
18962TIP3    H178301   3.077   1.031  14.615  2.3513  1.0431  0.8407
18962TIP3    H278302   3.072   0.963  14.750  0.1779  0.2936  0.4188
18963TIP3   OH278303   0.061   3.066  14.736  0.0821 -0.5261 -0.2259
18963TIP3    H178304   0.071   3.155  14.703  2.8148 -0.0247  1.6401
18963TIP3    H278305   0.087   3.010  14.663 -1.3566  0.1442 -1.3095
18964TIP3   OH278306   4.306   6.706  14.834 -0.0603  0.0291  0.0528
18964TIP3    H178307   4.334   6.740  14.918 -3.9581  1.2606  1.0702
18964TIP3    H278308   4.337   6.769  14.769 -2.5586  2.8223  1.3680
18965TIP3   OH278309   3.183   2.279   1.439  0.1933 -0.2184 -0.0769
18965TIP3    H178310   3.147   2.198   1.476 -0.2631 -1.1475 -2.3459
18965TIP3    H278311   3.107   2.323   1.400  0.5556  0.9647  0.5188
18966TIP3   OH278312   1.842   1.534   2.731 -0.0999  0.2147  0.3331
18966TIP3    H178313   1.927   1.514   2.768  0.8056  0.1022 -1.6801
18966TIP3    H278314   1.782   1.471   2.772  1.3224 -1.6704 -0.3652
18967TIP3   OH278315   5.394   4.753   4.505 -0.0223  0.4200 -0.0777
18967TIP3    H178316   5.326   4.818   4.489 -0.4571  0.2222  0.8571
18967TIP3    H278317   5.356   4.694   4.571  0.7463 -0.1720 -0.1448
18968TIP3   OH278318   6.726   6.387   5.429  0.6919  0.0399 -0.0494
18968TIP3    H178319   6.789   6.430   5.371  1.8094 -2.4119 -0.7908
18968TIP3    H278320   6.657   6.356   5.370  0.6170 -0.3954  0.2689
18969TIP3   OH278321   4.456   0.931  12.264  0.4115  0.3089  0.4298
18969TIP3    H178322   4.475   0.897  12.351  0.7458 -1.8851 -0.4426
18969TIP3    H278323   4.398   1.006  12.279 -0.3073 -0.5951  2.4855
18970TIP3   OH278324   3.113   6.331  11.571 -0.7563  0.5294  0.3991
18970TIP3    H178325   3.050   6.258  11.564 -0.6660  0.2547  2.1776
18970TIP3    H278326   3.079   6.385  11.642  0.0415  1.3810  0.1381
18971TIP3   OH278327   6.187   0.510   4.323  0.0125  0.2640  0.1089
18971TIP3    H178328   6.279   0.535   4.337 -0.0824  0.4966  0.3061
18971TIP3    H278329   6.147   0.586   4.282 -0.1285  0.2159  0.1569
18972TIP3   OH278330   6.561   6.442  13.605 -0.5061 -0.2129 -0.1962
18972TIP3    H178331   6.602   6.358  13.624  1.3358  0.2957 -1.5958
18972TIP3    H278332   6.510   6.427  13.525  0.3252  0.1025 -0.8058
18973TIP3   OH278333   2.766   0.495   1.637  0.2069 -0.0764  0.1596
18973TIP3    H178334   2.683   0.541   1.653  0.0714 -0.5393  0.7992
18973TIP3    H278335   2.817   0.511   1.716  0.1043 -1.1364  0.4562
18974TIP3   OH278336   4.451   4.981   2.455 -0.2997 -0.0216  0.2286
18974TIP3    H178337   4.395   4.910   2.423  0.3251 -0.2498 -0.3909
18974TIP3    H278338   4.427   4.991   2.547 -1.8722  0.3857 -0.1845
18975TIP3   OH278339   4.877   0.743   0.732  0.6669 -0.3266  0.5053
18975TIP3    H178340   4.811   0.678   0.708  2.0665 -1.4934 -0.3248
18975TIP3    H278341   4.921   0.706   0.808  0.6995  0.2216  0.7603
18976TIP3   OH278342   4.567   3.166  12.753 -0.2716  0.1778 -0.0241
18976TIP3    H178343   4.632   3.098  12.773  0.0355  0.6557  0.6541
18976TIP3    H278344   4.587   3.194  12.664 -1.3430 -1.6520 -0.8862
18977TIP3   OH278345   5.593   1.551  10.556 -0.2273  0.3733 -0.5712
18977TIP3    H178346   5.577   1.570  10.649 -0.2409  1.4999 -0.7885
18977TIP3    H278347   5.683   1.520  10.554 -0.6593 -1.0088 -0.0172
18978TIP3   OH278348   5.808   5.099   1.325 -0.1106 -0.2398  1.2580
18978TIP3    H178349   5.836   5.078   1.414  1.9932 -0.7427  0.5352
18978TIP3    H278350   5.853   5.035   1.270 -3.5107 -1.7543 -0.0374
18979TIP3   OH278351   6.816   1.860  11.548  1.4123 -0.4375 -0.1551
18979TIP3    H178352   6.860   1.907  11.618  2.3365 -0.5742 -0.6255
18979TIP3    H278353   6.790   1.776  11.587 -0.6905  0.6065  0.8298
18980TIP3   OH278354   2.589   0.935  16.052 -0.5465  0.4185  0.2573
18980TIP3    H178355   2.553   1.014  16.010  0.6255 -0.2615 -2.1984
18980TIP3    H278356   2.518   0.871  16.048 -0.2874  0.1897 -1.3024
18981TIP3   OH278357   4.227   2.911   6.170 -0.7012 -0.1951  0.1081
18981TIP3    H178358   4.150   2.945   6.216 -0.6812  0.9050 -0.6392
18981TIP3    H278359   4.198   2.825   6.137 -1.4027 -0.0714  0.3689
18982TIP3   OH278360   5.385   3.789   2.667  0.7700  0.5871 -0.8435
18982TIP3    H178361   5.465   3.737   2.675 -0.0041 -0.4183  0.8569
18982TIP3    H278362   5.314   3.729   2.690 -0.5930  1.2513 -3.0001
18983TIP3   OH278363   1.321   0.177  15.886  0.3854  0.2107 -0.1504
18983TIP3    H178364   1.240   0.175  15.834  0.9010 -0.5675 -0.9598
18983TIP3    H278365   1.342   0.270  15.894 -0.9894  0.4747  0.7203
18984TIP3   OH278366   6.814   4.165   5.927 -0.5442 -0.1788 -0.1515
18984TIP3    H178367   6.891   4.202   5.970  0.0118 -0.5464 -0.8159
18984TIP3    H278368   6.763   4.241   5.900  1.1935  0.2084 -2.6215
18985TIP3   OH278369   3.372   4.566   2.183 -0.6098 -0.4713 -0.3187
18985TIP3    H178370   3.368   4.505   2.109  0.0461 -0.1471 -0.6313
18985TIP3    H278371   3.388   4.651   2.143 -0.1158 -0.3113  0.2030
18986TIP3   OH278372   3.832   3.698  13.645 -0.5311 -0.0490 -0.1590
18986TIP3    H178373   3.925   3.692  13.667 -0.1315 -0.5674 -1.8448
18986TIP3    H278374   3.831   3.723  13.553 -2.1008  1.8275  0.2925
18987TIP3   OH278375   0.141   3.982  13.025 -0.0985  0.0262  0.2523
18987TIP3    H178376   0.182   3.974  13.111  0.9290 -0.1189 -0.2443
18987TIP3    H278377   0.153   4.073  13.000  1.5363 -0.4142 -0.6725
18988TIP3   OH278378   5.100   0.518   1.362  0.1597  0.3742  0.7756
18988TIP3    H178379   5.115   0.580   1.291  0.9094 -0.5654  0.0827
18988TIP3    H278380   5.064   0.571   1.433  0.8222  1.6046  0.2235
18989TIP3   OH278381   0.959   0.992   1.058 -0.2933 -0.4014  0.0278
18989TIP3    H178382   1.038   1.021   1.012  0.0844 -1.6360 -0.1247
18989TIP3    H278383   0.909   0.944   0.992 -0.6390 -0.5841  0.4232
18990TIP3   OH278384   1.942   4.164   5.186  0.4270 -0.2064  0.5621
18990TIP3    H178385   1.997   4.118   5.122 -0.4203 -0.9537  0.3445
18990TIP3    H278386   1.960   4.121   5.269  0.6156 -0.0542  0.5995
18991TIP3   OH278387   0.635   6.185  16.262  0.4552 -0.0221 -0.3356
18991TIP3    H178388   0.600   6.246  16.327  0.4357  0.1410 -0.4948
18991TIP3    H278389   0.680   6.242  16.198  0.1944 -0.1521 -0.6358
18992TIP3   OH278390   1.134   1.875   3.222 -0.0245  0.0177 -0.1975
18992TIP3    H178391   1.089   1.938   3.279  2.3873  1.2360  0.5493
18992TIP3    H278392   1.213   1.851   3.272  0.6022 -1.3213 -1.7454
18993TIP3   OH278393   3.873   2.128  11.687  0.0152 -0.4018  0.1673
18993TIP3    H178394   3.900   2.039  11.709  0.2614 -0.4155 -0.1869
18993TIP3    H278395   3.905   2.142  11.598 -3.3200 -1.3369 -1.3656
18994TIP3   OH278396   4.412   1.171   2.872 -0.1257 -0.0317  0.2519
18994TIP3    H178397   4.394   1.204   2.960  1.1878 -1.8159  1.2553
18994TIP3    H278398   4.399   1.077   2.879  0.6367 -0.2826 -1.3026
18995TIP3   OH278399   5.617   1.631  13.961  0.3257  0.4070  0.7821
18995TIP3    H178400   5.524   1.631  13.982  0.5752  1.0271  1.9851
18995TIP3    H278401   5.652   1.708  14.005  0.8096  2.2860 -2.5297
18996TIP3   OH278402   3.776   6.362  16.322  0.3979  0.2150  0.0174
18996TIP3    H178403   3.707   6.421  16.353  0.2709  0.4170 -0.6364
18996TIP3    H278404   3.856   6.395  16.363  0.2287  0.4638  0.1510
18997TIP3   OH278405   1.581   0.400   0.243  0.1284  0.1228  0.3025
18997TIP3    H178406   1.651   0.356   0.292 -0.4011 -1.9094 -0.6343
18997TIP3    H278407   1.602   0.383   0.151 -0.6246  1.0854 -0.0652
18998TIP3   OH278408   0.047   5.907  15.722  0.6672  0.4161 -0.1759
18998TIP3    H178409   0.092   5.971  15.668  1.3286 -0.2848 -0.4907
18998TIP3    H278410  -0.014   5.863  15.663 -0.8153  1.6899  0.3622
18999TIP3   OH278411   2.069   2.656  11.913 -0.3119 -0.0467  0.2768
18999TIP3    H178412   2.049   2.567  11.886 -1.2096  0.6106 -1.3188
18999TIP3    H278413   2.130   2.688  11.847 -0.8299  0.8708  0.2253
19000TIP3   OH278414   1.323   3.019  16.991  0.3840  0.5468  0.0867
19000TIP3    H178415   1.383   3.034  17.064  0.5200 -1.7682  0.5525
19000TIP3    H278416   1.239   3.053  17.021  0.4138 -0.4617  1.4188
19001TIP3   OH278417   4.765   1.958  12.449  0.1534  0.0134 -0.3783
19001TIP3    H178418   4.720   1.984  12.369  1.8713  0.6056 -1.2104
19001TIP3    H278419   4.809   2.037  12.478 -0.6762 -0.1203  1.3561
19002TIP3   OH278420   1.344   2.130  11.550  0.1174 -0.1790 -0.2895
19002TIP3    H178421   1.258   2.090  11.563 -0.4741  0.3774 -2.2083
19002TIP3    H278422   1.326   2.223  11.537  0.7043 -0.3431 -2.9185
19003TIP3   OH278423   0.209   3.849   6.093 -0.0926 -0.2889 -0.1018
19003TIP3    H178424   0.205   3.908   6.017  0.6138  0.9768  0.8011
19003TIP3    H278425   0.120   3.851   6.129 -0.0039  0.4777  0.0906
19004TIP3   OH278426   2.254   1.600  12.373  0.7609 -0.4440  0.0274
19004TIP3    H178427   2.174   1.551  12.353  1.4101 -1.9671  1.0463
19004TIP3    H278428   2.225   1.692  12.374 -1.1371 -1.0010  1.0591
19005TIP3   OH278429   6.692   2.256   0.722 -0.1720  0.3336 -0.2528
19005TIP3    H178430   6.785   2.260   0.743  0.1081  0.8306 -1.4830
19005TIP3    H278431   6.654   2.330   0.769 -0.6916 -1.9392  3.3531
19006TIP3   OH278432   5.071   6.451  15.251 -0.5267  0.2296  0.0150
19006TIP3    H178433   5.128   6.500  15.192 -2.0888  0.9083 -0.9669
19006TIP3    H278434   5.061   6.508  15.328  0.1499  0.0745  0.2267
19007TIP3   OH278435   2.594   3.527   6.035 -0.5184  0.2305 -0.1419
19007TIP3    H178436   2.501   3.506   6.051 -0.0761 -0.9970  1.0301
19007TIP3    H278437   2.631   3.538   6.123  0.6035 -0.0136 -0.5782
19008TIP3   OH278438   4.819   1.940   4.824 -0.7647 -0.4129  0.3598
19008TIP3    H178439   4.829   2.035   4.813  1.7279 -0.4437  1.5853
19008TIP3    H278440   4.762   1.931   4.900  0.6681  0.2163  1.5744
19009TIP3   OH278441   3.115   1.131  15.802  0.6142  0.6225  0.2437
19009TIP3    H178442   3.144   1.053  15.848  1.3933  1.0762  0.5358
19009TIP3    H278443   3.045   1.100  15.744  2.4486 -0.7565 -1.3809
19010TIP3   OH278444   5.470   4.003   2.244  0.1869 -0.0045  0.3193
19010TIP3    H178445   5.487   4.094   2.222  1.1761 -0.1258  0.5126
19010TIP3    H278446   5.430   4.006   2.331 -0.0113  0.2551  0.2185
19011TIP3   OH278447   5.550   5.822  14.589  0.3532  0.2136 -0.0771
19011TIP3    H178448   5.513   5.842  14.503 -0.4026 -0.4279  0.0856
19011TIP3    H278449   5.595   5.738  14.577  2.4585  1.3139 -0.4567
19012TIP3   OH278450   3.295   3.102   2.094  0.5196  0.7196 -0.1158
19012TIP3    H178451   3.348   3.169   2.135  0.7946 -0.4340  1.5072
19012TIP3    H278452   3.306   3.025   2.149 -1.4264 -0.0788 -0.7286
19013TIP3   OH278453   3.670   3.146   3.408 -0.0185  0.0607  0.4061
19013TIP3    H178454   3.756   3.188   3.416  0.8682 -1.7145  0.6348
19013TIP3    H278455   3.681   3.083   3.337 -1.6628  0.9519 -0.7144
19014TIP3   OH278456   0.231   0.604  12.175  0.4037  0.2651  0.2311
19014TIP3    H178457   0.255   0.563  12.092 -1.0615 -0.1260 -0.0262
19014TIP3    H278458   0.285   0.682  12.180  2.5768 -1.1527  0.2626
19015TIP3   OH278459   1.634   5.165   1.011  0.1298 -0.1217  0.0515
19015TIP3    H178460   1.729   5.159   0.997 -0.0816  1.3855 -2.9480
19015TIP3    H278461   1.610   5.080   1.048  2.4220 -1.2109 -0.7437
19016TIP3   OH278462   5.302   6.375  12.027 -0.0171  0.2479 -0.3225
19016TIP3    H178463   5.223   6.340  12.070  0.0095 -1.1332 -1.3116
19016TIP3    H278464   5.355   6.297  12.009  0.4701  0.9034 -1.8438
19017TIP3   OH278465   6.498   4.114  15.411 -0.1505  0.1383  0.0248
19017TIP3    H178466   6.532   4.169  15.481  1.0336 -0.1640 -0.2835
19017TIP3    H278467   6.412   4.151  15.390  0.5863  1.8213 -0.1269
19018TIP3   OH278468   6.471   1.293   2.881 -0.3701 -0.8075  0.3458
19018TIP3    H178469   6.435   1.232   2.946 -0.5326 -0.9250  0.1473
19018TIP3    H278470   6.493   1.237   2.807  2.4286 -1.1304  1.2931
19019TIP3   OH278471   3.420   4.820  16.070 -0.4831  0.2751 -0.4002
19019TIP3    H178472   3.391   4.729  16.073 -0.5162  0.2585 -1.2331
19019TIP3    H278473   3.470   4.832  16.151 -1.0612 -0.2809  0.0452
19020TIP3   OH278474   6.245   5.398   3.062  0.5064  0.2740  0.2373
19020TIP3    H178475   6.209   5.399   3.151  1.5573  1.1938  0.6869
19020TIP3    H278476   6.310   5.469   3.062  1.6121 -0.6932 -0.8151
19021TIP3   OH278477   0.359   0.080  11.902 -0.4608 -0.1771  0.1945
19021TIP3    H178478   0.353   0.175  11.904  1.3793 -0.0269  0.1466
19021TIP3    H278479   0.310   0.054  11.824 -1.3762  0.6726  0.4674
19022TIP3   OH278480   0.228   2.613  16.884 -0.3544  0.3353 -0.1054
19022TIP3    H178481   0.308   2.664  16.895 -0.5466  0.3038  1.6929
19022TIP3    H278482   0.172   2.668  16.828 -0.0215  1.4785  0.6579
19023TIP3   OH278483   2.119   2.004   2.231  0.2082 -0.1476 -0.7310
19023TIP3    H178484   2.064   2.060   2.176 -0.1640  0.0869 -0.1347
19023TIP3    H278485   2.062   1.980   2.305  0.6544 -0.5625 -0.5168
19024TIP3   OH278486   1.655   6.045   3.755 -0.3312  0.1221 -0.1054
19024TIP3    H178487   1.693   5.986   3.690  0.1556 -0.9783  1.1372
19024TIP3    H278488   1.581   5.997   3.790  0.5186 -0.1045  1.4588
19025TIP3   OH278489   4.241   1.873   3.860  0.7248  0.4359  0.3044
19025TIP3    H178490   4.147   1.867   3.877 -0.2688  2.3450 -3.4523
19025TIP3    H278491   4.262   1.965   3.877  1.6921  0.2721  0.0538
19026TIP3   OH278492   1.613   0.519  16.550  0.4953 -0.1290  0.7119
19026TIP3    H178493   1.551   0.484  16.485  1.9161  1.1195 -1.4625
19026TIP3    H278494   1.638   0.443  16.602 -1.3503 -1.0368  0.3764
19027TIP3   OH278495   0.810   6.656  11.450  0.2291  0.3049  0.5558
19027TIP3    H178496   0.866   6.688  11.521  0.2337  0.9730  0.2553
19027TIP3    H278497   0.799   6.732  11.392 -0.8663  0.1358  0.5301
19028TIP3   OH278498   6.591   6.163  13.844 -0.9204 -0.0928  0.0973
19028TIP3    H178499   6.634   6.135  13.763 -0.2716  0.4301  0.2472
19028TIP3    H278500   6.607   6.257  13.848  0.7362 -0.3868  1.7761
19029TIP3   OH278501   3.815   5.702  11.605 -0.5191  0.5125  0.2417
19029TIP3    H178502   3.806   5.756  11.527 -0.0948  0.1109 -0.0973
19029TIP3    H278503   3.747   5.636  11.597 -0.4771  0.4726  0.2099
19030TIP3   OH278504   5.896   5.361  16.712  0.1427  0.1108 -0.4551
19030TIP3    H178505   5.947   5.287  16.745 -0.9748 -0.4115  0.1531
19030TIP3    H278506   5.943   5.439  16.744  0.6637 -0.3577 -0.0677
19031TIP3   OH278507   5.443   0.216  13.048  0.2606  0.0751  0.1017
19031TIP3    H178508   5.453   0.169  12.965  1.0464  2.5624 -1.2935
19031TIP3    H278509   5.424   0.147  13.112  0.4313 -2.0130 -1.9694
19032TIP3   OH278510   2.999   0.353   0.956 -0.2297  0.1743  0.3692
19032TIP3    H178511   2.958   0.363   0.870  0.1386  1.0399  0.2871
19032TIP3    H278512   3.073   0.294   0.940 -1.3024 -1.2558  0.4872
19033TIP3   OH278513   6.588   2.239  14.492 -0.4280  0.1534  0.0681
19033TIP3    H178514   6.507   2.224  14.443 -0.4976  1.9675 -0.4625
19033TIP3    H278515   6.576   2.325  14.533 -0.0016 -0.9073  2.5883
19034TIP3   OH278516   0.544   1.151  13.422 -0.1183 -0.0790 -0.1808
19034TIP3    H178517   0.607   1.150  13.350  0.4195 -0.5388  0.2759
19034TIP3    H278518   0.580   1.088  13.485 -0.0717  0.9959  0.9116
19035TIP3   OH278519   3.072   5.924  12.108 -0.0846  0.7012 -0.1026
19035TIP3    H178520   3.073   5.980  12.031  0.5900  0.1669 -0.4943
19035TIP3    H278521   3.109   5.841  12.078 -2.1050 -0.3650  0.1767
19036TIP3   OH278522   2.907   0.837   6.422  0.2419  0.3523 -0.1758
19036TIP3    H178523   2.926   0.886   6.342 -0.3128 -0.0041 -0.5253
19036TIP3    H278524   2.991   0.836   6.469  0.5956  0.4889 -0.7904
19037TIP3   OH278525   5.552   2.425  16.483  0.5264  0.6505 -0.5313
19037TIP3    H178526   5.496   2.468  16.419  0.0598 -1.7627 -1.8867
19037TIP3    H278527   5.587   2.349  16.436  0.0291 -1.3475  2.0975
19038TIP3   OH278528   0.158   4.614   3.906  0.3855  0.2113 -0.0242
19038TIP3    H178529   0.105   4.681   3.949 -0.1785 -0.0704 -0.2781
19038TIP3    H278530   0.206   4.660   3.838  0.2739  0.4228  0.0409
19039TIP3   OH278531   1.301   6.432  15.632 -0.1697 -0.1435  0.0296
19039TIP3    H178532   1.212   6.466  15.629 -0.6661 -1.4500 -0.8901
19039TIP3    H278533   1.316   6.397  15.544  1.1453 -0.2305  0.2613
19040TIP3   OH278534   0.099   4.041  14.739  0.2684 -0.2728  0.1057
19040TIP3    H178535   0.008   4.027  14.711  0.5808 -0.4242 -0.8534
19040TIP3    H278536   0.117   4.132  14.717  1.5643 -1.2152 -3.3837
19041TIP3   OH278537   3.746   1.490  15.987 -0.0376 -0.4581 -0.3156
19041TIP3    H178538   3.789   1.576  15.995 -1.8471  0.4474  0.3330
19041TIP3    H278539   3.815   1.431  15.956  1.0024  1.4613 -1.9151
19042TIP3   OH278540   1.767   2.231   5.051  0.4364 -0.5417 -0.6910
19042TIP3    H178541   1.714   2.182   5.114  1.3311 -0.2262  0.3493
19042TIP3    H278542   1.828   2.166   5.016 -0.1166 -0.7358 -1.3031
19043TIP3   OH278543   5.945   3.625   3.483  0.6520 -0.2468  0.0329
19043TIP3    H178544   5.934   3.614   3.388  1.1986 -0.4471 -0.0090
19043TIP3    H278545   6.031   3.588   3.501  0.4896 -0.3354  0.6318
19044TIP3   OH278546   6.536   4.867  15.563  0.0592  0.3257  0.4635
19044TIP3    H178547   6.585   4.795  15.524  1.7815  1.5604  0.2174
19044TIP3    H278548   6.483   4.826  15.631  0.5822 -1.2275 -0.0190
19045TIP3   OH278549   6.795   0.240   6.513 -0.3581 -0.3229  0.0541
19045TIP3    H178550   6.787   0.147   6.534  0.5181 -0.2216  0.9491
19045TIP3    H278551   6.756   0.285   6.588  0.2243  0.0275  0.1569
19046TIP3   OH278552   3.278   1.375  15.029 -0.0376 -0.6913 -0.2085
19046TIP3    H178553   3.331   1.297  15.041  1.5073  0.3993  0.3617
19046TIP3    H278554   3.341   1.446  15.016 -1.3989  0.3931 -1.2325
19047TIP3   OH278555   4.755   1.740  10.360  0.6058 -0.7335  0.1939
19047TIP3    H178556   4.769   1.646  10.353 -2.1181 -1.1690 -0.6413
19047TIP3    H278557   4.749   1.757  10.454  0.6678 -1.4778  0.3323
19048TIP3   OH278558   3.566   0.129   6.139  0.3262  0.4603 -0.3019
19048TIP3    H178559   3.568   0.096   6.229 -1.1010 -0.6059 -0.6162
19048TIP3    H278560   3.656   0.154   6.120  0.5926  1.0655  1.5397
19049TIP3   OH278561   2.656   6.732  11.895 -0.1428  0.4300  1.0319
19049TIP3    H178562   2.685   6.806  11.842 -0.2772  0.3819  0.8925
19049TIP3    H278563   2.572   6.759  11.930  1.1436  1.6269  3.5006
19050TIP3   OH278564   1.740   0.666  13.826 -0.2924 -0.2432 -0.0586
19050TIP3    H178565   1.829   0.645  13.855 -0.0793  0.9498  0.1955
19050TIP3    H278566   1.750   0.747  13.776 -1.3161  0.2306  0.4893
19051TIP3   OH278567   4.772   1.115   4.297 -0.1368 -0.2493  0.2057
19051TIP3    H178568   4.738   1.027   4.280 -0.8358  0.1949 -0.7997
19051TIP3    H278569   4.867   1.106   4.291 -0.1142 -1.1896  1.4606
19052TIP3   OH278570   4.002   0.270   1.058  0.4066  0.1175  0.1855
19052TIP3    H178571   4.097   0.269   1.066  0.3701  0.5110  0.7537
19052TIP3    H278572   3.980   0.363   1.045  0.1549 -0.0573 -0.7675
19053TIP3   OH278573   6.055   3.536   5.720  0.4663  0.9446 -0.3738
19053TIP3    H178574   6.100   3.617   5.744  0.1680  1.1319 -0.4501
19053TIP3    H278575   6.085   3.472   5.785  1.7399  0.7751 -1.0911
19054TIP3   OH278576   4.109   1.375  15.581 -0.2846  0.6195  0.4472
19054TIP3    H178577   4.133   1.295  15.628  1.9125  1.8625  1.5965
19054TIP3    H278578   4.109   1.444  15.648  1.3219  2.1649 -1.0119
19055TIP3   OH278579   1.717   4.412  12.095 -0.5650  0.2347  0.6920
19055TIP3    H178580   1.732   4.370  12.180 -0.6431  0.4922  0.8321
19055TIP3    H278581   1.668   4.492  12.115  1.0733  1.3054  0.6145
19056TIP3   OH278582   1.178   6.635   2.058  0.1376  0.7832  0.1693
19056TIP3    H178583   1.124   6.667   1.986  0.1134  1.2549  0.3918
19056TIP3    H278584   1.119   6.634   2.133 -0.0136 -0.3331  0.0473
19057TIP3   OH278585   0.664   1.863  14.879 -0.5958  0.5533  0.1198
19057TIP3    H178586   0.738   1.806  14.858 -1.3245 -0.8399  1.1782
19057TIP3    H278587   0.592   1.830  14.826 -1.0902  0.3166  0.9295
19058TIP3   OH278588   2.972   1.489  11.525  0.0582  0.6887 -0.3762
19058TIP3    H178589   2.937   1.438  11.452 -0.2469  0.7593 -0.2800
19058TIP3    H278590   2.915   1.468  11.599  0.3214  0.6748 -0.1757
19059TIP3   OH278591   1.181   5.190   5.466 -0.2277  0.7330 -0.1935
19059TIP3    H178592   1.190   5.110   5.413 -1.5805  0.5545 -0.1773
19059TIP3    H278593   1.117   5.167   5.533 -1.6998  2.2369 -1.0248
19060TIP3   OH278594   4.516   6.664  14.047  0.3260 -0.2211  0.2812
19060TIP3    H178595   4.551   6.634  13.964  0.3466  0.2367  0.1233
19060TIP3    H278596   4.421   6.664  14.035  0.2472 -1.5000  0.7204
19061TIP3   OH278597   2.151   3.218  15.294 -0.3863  0.2963  0.3409
19061TIP3    H178598   2.177   3.160  15.223 -0.9056 -0.9789  1.1723
19061TIP3    H278599   2.082   3.273  15.256  0.5262  0.8158 -0.6200
19062TIP3   OH278600   3.101   6.099  13.613  0.1212 -0.1808  0.1196
19062TIP3    H178601   3.039   6.138  13.673 -0.5962  0.1203 -0.7931
19062TIP3    H278602   3.089   6.004  13.624  1.4712 -0.1889  1.9288
19063TIP3   OH278603   0.684   6.239   2.327 -0.3599 -0.3734 -0.0887
19063TIP3    H178604   0.738   6.312   2.357 -1.8290  1.1236 -0.9296
19063TIP3    H278605   0.731   6.205   2.250  0.4265 -0.4376  0.4121
19064TIP3   OH278606   5.416   4.821   0.018 -0.0063 -0.5291  0.0664
19064TIP3    H178607   5.451   4.908   0.036  1.5304 -1.1011 -0.0370
19064TIP3    H278608   5.368   4.831  -0.065 -0.2462  0.3064  0.2981
19065TIP3   OH278609   3.100   0.969  13.459  0.5586  0.1464  0.1553
19065TIP3    H178610   3.012   0.960  13.495 -0.2217  0.4325 -1.6021
19065TIP3    H278611   3.124   0.881  13.430  0.7663  0.1122  0.4235
19066TIP3   OH278612   1.396   5.223   1.759  0.4769 -0.4746  0.7596
19066TIP3    H178613   1.316   5.260   1.723 -0.1462 -0.4785  2.0742
19066TIP3    H278614   1.425   5.159   1.693  0.9339  1.4448 -0.9924
19067TIP3   OH278615   4.638   0.518  10.315  0.1798  0.0633  0.2528
19067TIP3    H178616   4.712   0.536  10.373 -2.1265  1.2306  3.1491
19067TIP3    H278617   4.642   0.587  10.249  1.6414  0.1206  0.3750
19068TIP3   OH278618   3.857   0.223   2.252 -0.8880 -0.2368 -0.6164
19068TIP3    H178619   3.845   0.220   2.347  2.1608  0.0340 -0.1273
19068TIP3    H278620   3.928   0.286   2.238 -0.9524 -0.5879 -3.0637
19069TIP3   OH278621   0.049   5.043   0.177  0.1472 -0.2182 -0.0343
19069TIP3    H178622   0.092   4.958   0.190 -1.2474 -0.8268  0.9107
19069TIP3    H278623  -0.001   5.056   0.257 -0.2323  1.1718 -0.4790
19070TIP3   OH278624   0.932   2.367   4.598  0.1473 -0.2362 -0.4536
19070TIP3    H178625   0.949   2.418   4.677  1.6361  1.6764 -1.9170
19070TIP3    H278626   0.871   2.299   4.626 -1.0923  1.6742  1.8674
19071TIP3   OH278627   2.067   3.067  15.071  0.7129  0.4043 -0.1071
19071TIP3    H178628   2.090   2.984  15.113 -0.0936  0.7115  1.0048
19071TIP3    H278629   2.002   3.043  15.005  0.1508  0.1862  0.5113
19072TIP3   OH278630   1.900   1.340   5.552 -0.0705  0.1276 -0.0458
19072TIP3    H178631   1.823   1.288   5.527  1.2356 -1.6270 -0.6512
19072TIP3    H278632   1.867   1.430   5.560 -1.9305 -0.3652 -1.4596
19073TIP3   OH278633   4.235   0.453   0.796 -0.0987  0.2691 -0.0330
19073TIP3    H178634   4.259   0.486   0.883  0.3945 -0.6433  0.1883
19073TIP3    H278635   4.304   0.487   0.739 -0.1077  0.4003  0.0331
19074TIP3   OH278636   0.475   4.517  15.079 -0.1603 -0.1670 -0.1544
19074TIP3    H178637   0.485   4.511  15.174 -2.4292 -2.0186  0.0509
19074TIP3    H278638   0.418   4.444  15.056  2.5597 -1.5950 -3.3608
19075TIP3   OH278639   3.437   4.991   5.641 -0.3484  0.5551  0.4198
19075TIP3    H178640   3.483   5.075   5.649 -0.7789  0.7411  0.9273
19075TIP3    H278641   3.346   5.011   5.661 -0.8159  0.3368 -1.3379
19076TIP3   OH278642   6.484   3.322  11.932  0.1373  0.1913 -0.5335
19076TIP3    H178643   6.575   3.323  11.904  0.1937 -0.7700 -0.4117
19076TIP3    H278644   6.479   3.252  11.997 -0.3030  1.4520  0.8300
19077TIP3   OH278645   2.786   6.730  12.178 -0.2545  0.4845 -0.7518
19077TIP3    H178646   2.865   6.783  12.191 -0.0587  0.1492 -0.5497
19077TIP3    H278647   2.773   6.731  12.083  1.7822 -1.9198 -1.1993
19078TIP3   OH278648   2.042   4.377  11.782  0.3930 -0.0085  0.5961
19078TIP3    H178649   1.987   4.302  11.805 -0.5733  0.7041  0.7006
19078TIP3    H278650   2.110   4.378  11.849 -0.4637  0.0759  1.4933
19079TIP3   OH278651   0.605   4.641   1.746  0.2881 -0.0513  0.5993
19079TIP3    H178652   0.532   4.703   1.748 -1.0518 -1.4509 -1.1235
19079TIP3    H278653   0.581   4.574   1.810  0.1465 -0.3837  0.2080
19080TIP3   OH278654   2.715   5.396   2.680 -0.1878 -0.7273  0.0765
19080TIP3    H178655   2.794   5.446   2.699 -2.1427  2.2100  1.3270
19080TIP3    H278656   2.701   5.343   2.758  0.6935 -1.5550 -0.3078
19081TIP3   OH278657   0.212   1.492  16.251  0.4857  0.7251 -0.3668
19081TIP3    H178658   0.131   1.485  16.199  1.5589  0.4002 -2.0713
19081TIP3    H278659   0.212   1.582  16.282 -0.1491  0.9634 -1.0171
19082TIP3   OH278660   3.940   3.201  11.136 -0.5731  1.0980  0.4810
19082TIP3    H178661   3.852   3.233  11.116 -0.1247  1.3250 -1.2884
19082TIP3    H278662   3.939   3.109  11.110  0.0376  1.4062 -0.6923
19083TIP3   OH278663   2.808   5.654  14.300  0.7386  0.0948 -0.2481
19083TIP3    H178664   2.733   5.593  14.308  0.9028  0.0763  1.5067
19083TIP3    H278665   2.849   5.652  14.386 -0.0531  3.7472  0.3859
19084TIP3   OH278666   1.177   1.159  15.359  0.2599  0.0125  0.2355
19084TIP3    H178667   1.122   1.230  15.326 -1.1482 -1.4503 -0.7200
19084TIP3    H278668   1.197   1.184  15.449  0.7962  2.1591 -0.4230
19085TIP3   OH278669   2.950   4.165  12.969  0.7135 -0.1499 -0.0537
19085TIP3    H178670   2.954   4.236  13.033 -0.3658 -2.0147  2.2330
19085TIP3    H278671   2.865   4.177  12.926  1.3357  0.9700 -1.0229
19086TIP3   OH278672   3.293   4.067   2.849 -0.0569 -0.0123  0.1481
19086TIP3    H178673   3.228   4.031   2.909  0.3912  0.1294  0.7319
19086TIP3    H278674   3.254   4.058   2.762 -0.3275 -1.1084  0.3620
19087TIP3   OH278675   2.998   4.371   3.289 -0.6064 -0.0750  0.4571
19087TIP3    H178676   3.021   4.278   3.284  1.2206  0.2317  2.0769
19087TIP3    H278677   3.047   4.412   3.217 -0.7911 -0.2333  0.2377
19088TIP3   OH278678   3.873   3.502  10.663 -0.0396  0.1072 -0.6021
19088TIP3    H178679   3.964   3.532  10.658  0.1750  0.4358  2.9739
19088TIP3    H278680   3.822   3.573  10.624  1.0590  1.2435 -0.0258
19089TIP3   OH278681   1.001   2.701  17.047 -0.7627  1.0710 -0.6421
19089TIP3    H178682   1.032   2.769  17.106  0.4817  0.8413 -0.9960
19089TIP3    H278683   0.969   2.631  17.105 -0.1623  1.1178 -0.2554
19090TIP3   OH278684   2.251   1.538   0.085  0.2681 -0.4735  0.1278
19090TIP3    H178685   2.174   1.509   0.038 -0.9938  3.0725 -0.2605
19090TIP3    H278686   2.325   1.506   0.033 -1.0452  0.5604 -2.5550
19091TIP3   OH278687   3.045   2.198  16.763  0.2660  0.2765  0.3582
19091TIP3    H178688   3.095   2.137  16.709 -0.1206  0.9961 -0.8579
19091TIP3    H278689   2.992   2.248  16.701 -0.8579  0.5534  1.4814
19092TIP3   OH278690   4.715   3.182   4.278 -0.4797 -0.1139  0.1581
19092TIP3    H178691   4.713   3.238   4.201 -0.5760  0.3065  0.4621
19092TIP3    H278692   4.808   3.173   4.299 -0.3283 -1.6470 -1.0153
19093TIP3   OH278693   1.019   5.929  13.444 -0.0629  0.1236  0.4340
19093TIP3    H178694   1.025   5.857  13.507  1.2019 -0.0223  0.1691
19093TIP3    H278695   1.058   5.894  13.364 -0.6273  0.6829 -0.0970
19094TIP3   OH278696   3.941   1.353   1.064  0.3236 -0.0491 -0.0245
19094TIP3    H178697   3.960   1.394   0.980 -0.5688  0.7535  0.1476
19094TIP3    H278698   3.855   1.387   1.088  0.5477 -0.3036  1.1886
19095TIP3   OH278699   3.660   6.222  14.024  0.2641  0.4428 -0.1671
19095TIP3    H178700   3.604   6.255  13.954 -0.9776  0.0536  0.6259
19095TIP3    H278701   3.674   6.298  14.081 -0.4243  0.2495  0.2593
19096TIP3   OH278702   4.679   6.396  15.136  0.5831 -0.2470 -0.0911
19096TIP3    H178703   4.609   6.347  15.093  0.4082 -1.0358  1.0557
19096TIP3    H278704   4.759   6.348  15.114  0.6297  0.0087 -0.4783
19097TIP3   OH278705   0.290   6.544  15.618  0.0323 -0.3049  0.1480
19097TIP3    H178706   0.239   6.468  15.646  1.3228 -0.5528  1.9794
19097TIP3    H278707   0.276   6.609  15.687 -2.3017  1.8103 -2.1222
19098TIP3   OH278708   2.288   1.637  13.562  0.2302  0.0989  0.5181
19098TIP3    H178709   2.383   1.650  13.566  0.2882 -0.2910  0.5135
19098TIP3    H278710   2.252   1.703  13.621  0.6018 -0.7490  1.7352
19099TIP3   OH278711   4.571   5.348   0.979 -0.0891  0.4785 -0.0124
19099TIP3    H178712   4.520   5.416   1.024  0.3320  0.9800 -0.2716
19099TIP3    H278713   4.654   5.345   1.026  0.4187  1.1258 -0.8236
19100TIP3   OH278714   5.181   4.569  12.038  1.0622 -0.2107  0.2448
19100TIP3    H178715   5.275   4.577  12.054  0.8430  0.6475  1.2084
19100TIP3    H278716   5.174   4.511  11.962  2.4078  0.7579 -0.6535
19101TIP3   OH278717   5.666   2.581   0.947 -0.3841 -0.6134 -0.3583
19101TIP3    H178718   5.699   2.622   0.867  0.7906 -1.0020 -0.0978
19101TIP3    H278719   5.592   2.636   0.973  1.1599  1.4394  0.0007
19102TIP3   OH278720   1.552   1.389  14.496  0.5272 -0.7487  0.5595
19102TIP3    H178721   1.493   1.313  14.497  0.0014 -0.3996 -0.8762
19102TIP3    H278722   1.617   1.368  14.428 -0.5098  0.6772 -0.9589
19103TIP3   OH278723   0.536   0.655  12.678  0.0490 -0.0324  0.2007
19103TIP3    H178724   0.555   0.743  12.710  2.1117  0.1635 -1.3539
19103TIP3    H278725   0.570   0.597  12.746  0.7121  0.3805  0.2298
19104TIP3   OH278726   4.652   3.185   3.728  0.2530  0.7803 -0.0299
19104TIP3    H178727   4.571   3.235   3.714 -0.3218 -0.4192 -1.2169
19104TIP3    H278728   4.624   3.107   3.776  1.5015  2.5712  4.0180
19105TIP3   OH278729   0.812   5.335   4.897  0.3329  0.1585  0.2923
19105TIP3    H178730   0.744   5.277   4.863  0.4768  0.0177  0.2449
19105TIP3    H278731   0.764   5.401   4.948  0.1929 -0.1592  0.5697
19106TIP3   OH278732   3.816   3.490  14.304  0.1867 -0.0239  0.2558
19106TIP3    H178733   3.864   3.482  14.386  1.3888  3.1277 -0.0102
19106TIP3    H278734   3.725   3.507  14.331  0.6187  1.2331  0.9898
19107TIP3   OH278735   2.925   5.796  12.779 -0.2568 -0.1002  0.1429
19107TIP3    H178736   3.017   5.799  12.754 -0.0334  2.2938  0.9978
19107TIP3    H278737   2.919   5.723  12.841  0.7275 -1.1765 -0.9726
19108TIP3   OH278738   2.338   3.981   0.284  0.0072  0.2252 -0.7618
19108TIP3    H178739   2.320   4.063   0.238  1.4069 -0.4917 -2.7138
19108TIP3    H278740   2.346   4.007   0.376  0.8613  2.3826 -1.3720
19109TIP3   OH278741   1.328   6.210  10.580 -0.4371  0.2662  0.3696
19109TIP3    H178742   1.363   6.121  10.591 -2.2057 -0.8226 -1.8660
19109TIP3    H278743   1.235   6.202  10.602 -0.8007  1.3402 -0.6563
19110TIP3   OH278744   5.829   3.175   1.027  0.3334  0.2680  0.5752
19110TIP3    H178745   5.772   3.099   1.015 -0.1981  1.0054 -2.8452
19110TIP3    H278746   5.776   3.248   0.995  2.4063  1.3256 -0.6082
19111TIP3   OH278747   0.926   0.488   0.138 -0.0992  0.5432 -0.6967
19111TIP3    H178748   0.855   0.458   0.080 -0.0194 -1.1755  0.0410
19111TIP3    H278749   0.963   0.407   0.174  0.9816  1.5064  0.4174
19112TIP3   OH278750   1.137   2.940  12.880  0.1100  0.3446 -0.0908
19112TIP3    H178751   1.171   2.855  12.906 -2.5560 -0.6879  0.4106
19112TIP3    H278752   1.141   2.993  12.960  0.9973  0.4519 -0.1933
19113TIP3   OH278753   2.322   1.567  11.624 -0.1746  0.2414  0.3653
19113TIP3    H178754   2.333   1.623  11.701 -0.6352  0.3591  0.3449
19113TIP3    H278755   2.242   1.598  11.582  0.1238  0.2409 -0.2173
19114TIP3   OH278756   3.341   6.627  15.280  0.0523  0.4994  0.1015
19114TIP3    H178757   3.417   6.661  15.231 -0.1874  0.2491 -0.4554
19114TIP3    H278758   3.372   6.621  15.370  1.0837 -0.6925 -0.3047
19115TIP3   OH278759   0.208   0.457   4.343  0.4218 -0.6496 -0.5678
19115TIP3    H178760   0.298   0.489   4.343  0.1019  0.3138  0.2442
19115TIP3    H278761   0.155   0.533   4.367 -0.4582 -1.5732  0.5961
19116TIP3   OH278762   0.161   3.954   1.926  0.3103  0.2157 -0.0612
19116TIP3    H178763   0.247   3.927   1.958 -0.4586 -0.6179  1.3920
19116TIP3    H278764   0.175   3.975   1.833  2.1254  0.3926  0.2287
19117TIP3   OH278765   3.922   5.147  12.643  0.1401  0.1942  0.1941
19117TIP3    H178766   3.917   5.232  12.686  1.1114  0.4685 -0.2181
19117TIP3    H278767   3.890   5.085  12.709  0.1778  0.7809  0.7696
19118TIP3   OH278768   2.324   0.440   5.917 -0.3812  0.5215 -0.1354
19118TIP3    H178769   2.267   0.479   5.983 -0.1592  1.2787 -0.3833
19118TIP3    H278770   2.393   0.505   5.902  0.9123 -0.6305  0.6040
19119TIP3   OH278771   2.978   6.089   2.580  0.2546  0.2899  0.1272
19119TIP3    H178772   2.977   6.184   2.590  0.7786  0.3416 -0.2837
19119TIP3    H278773   3.064   6.069   2.543 -0.0809 -0.2827 -0.3691
19120TIP3   OH278774   0.187   4.352  16.783  0.4027 -0.3338 -0.5634
19120TIP3    H178775   0.205   4.442  16.757 -0.4027 -0.5078 -1.8357
19120TIP3    H278776   0.155   4.310  16.703 -3.6016 -0.5608  0.9555
19121TIP3   OH278777   2.492   4.511  14.897  0.6797  0.0062  0.0100
19121TIP3    H178778   2.500   4.490  14.804  0.1914 -1.9493  0.3642
19121TIP3    H278779   2.533   4.597  14.906 -2.1563  1.8556 -2.5893
19122TIP3   OH278780   0.621   3.099   0.071  0.3513 -0.4618  0.5407
19122TIP3    H178781   0.659   3.186   0.082  1.7858 -0.9426 -0.1871
19122TIP3    H278782   0.689   3.050   0.024 -1.5204 -1.1598 -1.6251
19123TIP3   OH278783   2.612   5.965   1.979 -0.0780  0.8800  0.2371
19123TIP3    H178784   2.640   5.873   1.973  1.6753  1.3393  0.6907
19123TIP3    H278785   2.520   5.960   2.007  0.2555 -0.7384  1.2150
19124TIP3   OH278786   2.940   3.002   0.443 -0.6182 -0.0566  0.6314
19124TIP3    H178787   2.932   2.920   0.491 -0.1758 -0.7834 -0.5045
19124TIP3    H278788   2.853   3.041   0.449 -0.9323 -0.7716  0.8887
19125TIP3   OH278789   1.242   0.743   2.117 -0.9376  0.2399 -0.6948
19125TIP3    H178790   1.223   0.789   2.035 -0.7018 -0.0909 -0.9406
19125TIP3    H278791   1.332   0.711   2.105 -1.1108 -0.3058 -0.5383
19126TIP3   OH278792   4.231   4.234  16.232  0.0647  0.0680  0.4532
19126TIP3    H178793   4.302   4.177  16.262  1.1275  0.6990 -0.7538
19126TIP3    H278794   4.155   4.176  16.226  0.8206 -0.9551  0.3857
19127TIP3   OH278795   1.947   6.197   4.216 -0.2327 -0.4343  0.2351
19127TIP3    H178796   1.858   6.164   4.230 -0.0666 -0.4817  1.2328
19127TIP3    H278797   2.003   6.120   4.230  0.0135 -0.2414  0.3067
19128TIP3   OH278798   0.098   6.130   1.842  0.3874  0.1425  0.1446
19128TIP3    H178799   0.014   6.090   1.862 -0.2168  1.0598 -0.5067
19128TIP3    H278800   0.129   6.082   1.764  0.5464 -0.2792  0.4587
19129TIP3   OH278801   1.696   1.754   3.891 -0.4271 -0.1750  0.1114
19129TIP3    H178802   1.746   1.688   3.940  0.7872  0.1543 -0.6223
19129TIP3    H278803   1.610   1.756   3.932  0.4519 -0.1155  2.0378
19130TIP3   OH278804   5.497   4.043   2.844 -0.6431 -0.8052  0.3837
19130TIP3    H178805   5.480   3.985   2.770 -0.4543 -0.9811  0.4778
19130TIP3    H278806   5.552   4.113   2.808 -2.6560  0.5358 -0.2614
19131TIP3   OH278807   0.773   6.499  16.455 -0.4303 -0.0129  0.5703
19131TIP3    H178808   0.700   6.502  16.393 -0.6555  1.5769  0.8671
19131TIP3    H278809   0.840   6.555  16.416  0.5987 -1.3064  0.3896
19132TIP3   OH278810   0.452   0.328  14.436 -0.5739 -0.2776 -0.5742
19132TIP3    H178811   0.410   0.413  14.424 -0.6225 -0.3137 -0.6690
19132TIP3    H278812   0.477   0.325  14.528  0.5208  0.3344 -0.8314
19133TIP3   OH278813   4.957   1.307  16.541 -0.1525 -0.4794  0.1018
19133TIP3    H178814   4.951   1.212  16.545  0.7268 -0.6218 -1.2191
19133TIP3    H278815   4.951   1.327  16.448 -0.2880  0.7568  0.3632
19134TIP3   OH278816   1.494   2.972  12.015 -0.2551 -0.1602  0.4513
19134TIP3    H178817   1.491   2.975  11.919  1.3206  2.4859  0.3834
19134TIP3    H278818   1.436   3.044  12.043  2.0814  1.5292  1.2736
19135TIP3   OH278819   4.646   3.944  12.075 -0.4377  0.1495 -0.3093
19135TIP3    H178820   4.670   3.897  12.155  0.3292  0.6109 -0.2659
19135TIP3    H278821   4.670   3.884  12.004  0.2688  0.3534 -0.2441
19136TIP3   OH278822   5.370   0.220  13.971  0.5328 -0.4525  0.5576
19136TIP3    H178823   5.403   0.130  13.977 -1.8154 -1.3389  1.2627
19136TIP3    H278824   5.406   0.263  14.048  1.1577 -0.9616  0.5635
19137TIP3   OH278825   3.255   5.606   3.549  0.1336  0.2450  0.1574
19137TIP3    H178826   3.242   5.539   3.481 -0.1127  0.2053  0.2438
19137TIP3    H278827   3.299   5.678   3.503  0.6179 -0.0713  0.1171
19138TIP3   OH278828   4.299   6.604  16.406  0.0412 -0.1569 -0.4739
19138TIP3    H178829   4.356   6.636  16.337  0.5300  0.5156  0.2233
19138TIP3    H278830   4.339   6.636  16.487 -2.3453  2.0346 -0.0499
19139TIP3   OH278831   5.814   5.421   2.599  0.0509 -0.1219  0.0369
19139TIP3    H178832   5.741   5.366   2.626  0.2884 -0.8069 -0.6785
19139TIP3    H278833   5.892   5.376   2.633  0.1213  1.0244  1.5087
19140TIP3   OH278834   0.499   5.083   1.694 -0.3572  0.3948  0.1423
19140TIP3    H178835   0.469   5.155   1.750  0.5752  2.0813 -1.4040
19140TIP3    H278836   0.466   5.105   1.607  0.8159 -0.5087 -0.5746
19141TIP3   OH278837   5.101   5.429  16.325 -0.1626  0.1806  0.1375
19141TIP3    H178838   5.174   5.371  16.301 -0.2280  0.6355 -1.2983
19141TIP3    H278839   5.116   5.508  16.272 -0.7173  1.0167  1.1817
19142TIP3   OH278840   3.207   0.061  11.990 -0.2210 -0.6660 -0.5084
19142TIP3    H178841   3.272   0.086  11.924 -1.0340  0.0417 -1.0604
19142TIP3    H278842   3.256   0.005  12.051  1.1609  0.6648 -0.3381
19143TIP3   OH278843   1.651   1.381   1.738  0.1121  0.0992 -0.2257
19143TIP3    H178844   1.607   1.354   1.657 -0.7790  1.1759 -0.1244
19143TIP3    H278845   1.628   1.314   1.802 -2.2301  1.0867  0.0777
19144TIP3   OH278846   3.573   5.677  13.890  0.5174 -0.4979  0.5688
19144TIP3    H178847   3.668   5.682  13.897  0.5910 -1.4565  0.4620
19144TIP3    H278848   3.558   5.631  13.807 -0.0568  0.3398  0.2006
19145TIP3   OH278849   1.210   2.176  11.071  0.2339 -0.3849 -0.6045
19145TIP3    H178850   1.184   2.133  11.152  0.7282  0.7107  0.1651
19145TIP3    H278851   1.172   2.123  11.001 -1.4512 -0.5226  0.3819
19146TIP3   OH278852   5.890   2.519   3.455 -0.0291  0.1056 -0.0752
19146TIP3    H178853   5.870   2.469   3.534  0.6810 -0.3372 -0.1718
19146TIP3    H278854   5.804   2.545   3.421 -0.3293  1.4159  1.5273
19147TIP3   OH278855   5.625   0.683  13.203 -1.1740 -0.2395 -0.5498
19147TIP3    H178856   5.601   0.591  13.194 -1.0254 -0.3666  0.2443
19147TIP3    H278857   5.700   0.682  13.263 -0.9920  0.3798 -0.7603
19148TIP3   OH278858   4.436   0.785   4.319 -0.1352  0.2052 -0.3222
19148TIP3    H178859   4.367   0.784   4.254  0.2605 -0.5056 -0.7445
19148TIP3    H278860   4.390   0.784   4.403 -0.6455 -0.5098 -0.5998
19149TIP3   OH278861   1.663   6.570  11.417 -0.6029 -0.2459  0.4006
19149TIP3    H178862   1.627   6.607  11.336  1.6844 -0.3783 -0.7715
19149TIP3    H278863   1.664   6.643  11.479 -0.3883  0.4437 -0.3926
19150TIP3   OH278864   3.266   0.255   0.915  0.1113 -0.3507 -0.3051
19150TIP3    H178865   3.302   0.341   0.892 -0.2023 -0.3298 -0.7388
19150TIP3    H278866   3.342   0.201   0.935  0.2840  0.1950  0.5629
19151TIP3   OH278867   5.317   4.699  11.315  0.3118 -0.3490  0.4429
19151TIP3    H178868   5.364   4.640  11.256 -0.9230 -1.1702  0.2361
19151TIP3    H278869   5.384   4.733  11.373  0.9180 -2.9176  1.3872
19152TIP3   OH278870   0.479   5.327  14.533 -0.2103 -0.3436  0.2332
19152TIP3    H178871   0.431   5.256  14.577 -1.0169  0.2083  0.2729
19152TIP3    H278872   0.568   5.321  14.568 -0.5810 -0.5629  1.1841
19153TIP3   OH278873   4.715   4.015   5.542 -0.2116  0.6342  0.4273
19153TIP3    H178874   4.751   4.064   5.616 -2.7730  0.4833  1.9004
19153TIP3    H278875   4.771   3.937   5.536  1.3160  1.6480  0.8098
19154TIP3   OH278876   5.050   3.178  16.576 -0.2705  0.0436  0.1886
19154TIP3    H178877   5.140   3.147  16.570 -0.6532 -1.0430 -0.2117
19154TIP3    H278878   5.016   3.170  16.487 -0.5684  1.0741  0.2029
19155TIP3   OH278879   2.630   6.058  11.787 -0.3753  0.7702  0.5442
19155TIP3    H178880   2.557   6.029  11.731  0.1542  1.0979 -0.3457
19155TIP3    H278881   2.689   5.982  11.790  0.9253  1.5910 -1.6416
19156TIP3   OH278882   0.860   6.512   1.998  0.3011 -0.1804  0.2610
19156TIP3    H178883   0.813   6.556   1.927 -1.2506 -4.0380 -1.3276
19156TIP3    H278884   0.808   6.530   2.077  1.5925  3.4400  0.5019
19157TIP3   OH278885   6.659   0.231   1.134 -0.5627  0.0188 -0.2810
19157TIP3    H178886   6.611   0.148   1.143  0.1668 -0.3359  0.4963
19157TIP3    H278887   6.594   0.293   1.101 -1.4132 -0.5863  0.2171
19158TIP3   OH278888   3.447   3.843   4.470  0.3977 -0.0188 -0.4651
19158TIP3    H178889   3.395   3.918   4.440  1.3025  0.1914 -1.5676
19158TIP3    H278890   3.536   3.862   4.440  0.7425 -1.2806 -0.2896
19159TIP3   OH278891   0.919   0.361  12.157  0.5920  0.5791 -0.2836
19159TIP3    H178892   0.927   0.450  12.123  2.1990  0.7869  0.5363
19159TIP3    H278893   0.966   0.363  12.241 -1.3852 -0.4577  0.9356
19160TIP3   OH278894   0.967   1.841  11.688  0.0105 -0.5713 -0.4435
19160TIP3    H178895   1.038   1.882  11.738 -1.3741  1.3422  0.0667
19160TIP3    H278896   1.003   1.830  11.600  1.0231  0.1773 -0.1441
19161TIP3   OH278897   2.686   2.614  12.724  0.0070  0.0210 -0.2358
19161TIP3    H178898   2.741   2.589  12.649  0.6824  0.2706  0.1615
19161TIP3    H278899   2.703   2.545  12.789 -0.9958 -0.4920 -0.5056
19162TIP3   OH278900   6.461   0.586   0.775  0.6968 -0.4170  0.1057
19162TIP3    H178901   6.509   0.585   0.692  0.9305 -0.1175  0.2329
19162TIP3    H278902   6.370   0.569   0.751  0.5515  0.9287 -0.3701
19163TIP3   OH278903   1.395   5.421  11.932  0.1598 -0.5611 -0.3008
19163TIP3    H178904   1.442   5.414  12.015 -0.7879 -0.8347  0.2335
19163TIP3    H278905   1.429   5.349  11.879 -0.5199 -1.5341  0.5329
19164TIP3   OH278906   5.112   6.679   4.212  0.6412  0.0322  0.0608
19164TIP3    H178907   5.158   6.740   4.270 -1.2101  0.3130  1.3077
19164TIP3    H278908   5.078   6.734   4.142 -0.6519  0.4249  0.9529
19165TIP3   OH278909   5.164   1.860  14.583  0.0122 -0.4172  0.1942
19165TIP3    H178910   5.239   1.881  14.526 -1.2703 -0.1183 -1.4615
19165TIP3    H278911   5.124   1.945  14.601  0.0390 -0.5797  1.0594
19166TIP3   OH278912   0.515   5.101   5.339  0.4842 -0.4637 -0.1955
19166TIP3    H178913   0.570   5.047   5.283  0.6294  0.8190 -1.3584
19166TIP3    H278914   0.426   5.084   5.309  0.4743 -0.5486 -0.1178
19167TIP3   OH278915   1.697   3.369   5.438 -0.5001 -0.4019 -0.6708
19167TIP3    H178916   1.738   3.366   5.352  1.4599  1.0658  0.1387
19167TIP3    H278917   1.720   3.455   5.472 -0.6761 -1.1920  1.5923
19168TIP3   OH278918   0.655   2.414  11.416 -0.0297 -0.3189  0.3179
19168TIP3    H178919   0.623   2.503  11.431  2.1298  0.4942  0.4820
19168TIP3    H278920   0.716   2.398  11.487  0.4325 -1.5239 -0.3219
19169TIP3   OH278921   4.180   3.337  11.086 -0.2046  0.0051 -0.3076
19169TIP3    H178922   4.164   3.377  11.000 -2.3857  0.7006  0.3545
19169TIP3    H278923   4.115   3.267  11.092 -0.0377 -0.0685  0.7511
19170TIP3   OH278924   1.885   1.009   4.353 -0.0923 -0.2867  0.1556
19170TIP3    H178925   1.883   0.948   4.427  1.2580 -0.1575  0.3374
19170TIP3    H278926   1.975   1.043   4.354 -1.3931  3.7085  1.7327
19171TIP3   OH278927   6.274   2.129   4.811 -0.1960  0.7215  0.2514
19171TIP3    H178928   6.300   2.065   4.745  1.4747 -3.0709  4.0466
19171TIP3    H278929   6.347   2.192   4.814  0.9383 -0.5370  0.0950
19172TIP3   OH278930   6.253   0.617   3.641 -0.8315 -0.8284 -0.2075
19172TIP3    H178931   6.176   0.655   3.599  0.4468 -0.2592 -2.2194
19172TIP3    H278932   6.232   0.525   3.652 -0.8482 -1.3229 -3.3864
19173TIP3   OH278933   4.595   5.798  13.300  0.1606  0.3283 -0.5531
19173TIP3    H178934   4.691   5.800  13.299  0.2731 -1.3627  0.9323
19173TIP3    H278935   4.572   5.731  13.236  0.0621 -0.2383  0.0631
19174TIP3   OH278936   0.334   4.672  12.383  0.1338 -0.4091 -0.0458
19174TIP3    H178937   0.345   4.740  12.316  0.8892  0.7139  1.1444
19174TIP3    H278938   0.279   4.606  12.342  2.4615 -0.9290 -2.6017
19175TIP3   OH278939   4.222   5.439  16.718  0.0696  0.1980 -0.1004
19175TIP3    H178940   4.205   5.400  16.804  1.8755 -1.0653 -0.2442
19175TIP3    H278941   4.138   5.474  16.689 -0.2398  2.4755  3.0251
19176TIP3   OH278942   1.012   4.535   4.499  0.0247 -0.5262  1.0277
19176TIP3    H178943   0.992   4.624   4.526  2.1291  0.2134  0.3797
19176TIP3    H278944   1.039   4.491   4.580  0.5418 -0.0689  1.1161
19177TIP3   OH278945   1.967   3.008  15.779  0.4365  0.3662 -0.0074
19177TIP3    H178946   1.946   2.986  15.688  1.7607 -0.3810 -0.1535
19177TIP3    H278947   2.032   3.078  15.772  1.7525 -0.7975  0.3160
19178TIP3   OH278948   0.984   5.362   5.133  0.0271  0.2763 -0.0856
19178TIP3    H178949   0.974   5.367   5.038  0.1811  1.8377 -0.0320
19178TIP3    H278950   0.897   5.338   5.165  0.1362 -0.9759 -0.6336
19179TIP3   OH278951   2.615   6.552  16.504  0.2512  0.8454  0.5005
19179TIP3    H178952   2.575   6.596  16.429  0.4105  1.6750  0.8903
19179TIP3    H278953   2.561   6.577  16.578  0.5259  0.6304  0.7758
19180TIP3   OH278954   3.042   2.461  12.350 -0.0577 -0.4562 -0.7009
19180TIP3    H178955   2.999   2.379  12.376 -0.7077 -0.2046 -0.9575
19180TIP3    H278956   3.134   2.447  12.371 -0.3236 -0.8479  0.2595
19181TIP3   OH278957   3.125   1.668   6.325  0.0355 -0.0790  0.2486
19181TIP3    H178958   3.071   1.620   6.387 -2.7770  0.4010 -1.6708
19181TIP3    H278959   3.133   1.610   6.249 -0.7018  1.1743 -0.8346
19182TIP3   OH278960   0.562   0.216  13.471  0.1678  0.5153 -0.8376
19182TIP3    H178961   0.483   0.238  13.421 -1.1364  0.1108  0.9390
19182TIP3    H278962   0.597   0.139  13.428 -1.4908 -0.4273 -0.6114
19183TIP3   OH278963   6.092   6.212  17.034  0.1989 -0.1025  0.2018
19183TIP3    H178964   6.138   6.238  16.954 -3.5164 -1.0292 -2.4830
19183TIP3    H278965   6.077   6.294  17.081 -0.5441  1.0084 -1.8659
19184TIP3   OH278966   1.572   4.655   3.030 -0.5102 -0.1107 -0.0604
19184TIP3    H178967   1.524   4.579   2.998 -1.3421  1.1174 -1.8495
19184TIP3    H278968   1.505   4.720   3.048  0.1922  0.2427  1.4947
19185TIP3   OH278969   6.561   1.591  13.446  0.0070  0.0630 -0.2583
19185TIP3    H178970   6.521   1.617  13.363 -1.2634 -0.4720  0.1671
19185TIP3    H278971   6.500   1.619  13.513  0.3702 -0.7164  0.4209
19186TIP3   OH278972   3.489   5.611  13.625  0.5802 -0.6853  0.7851
19186TIP3    H178973   3.395   5.593  13.616  0.6550 -0.6295 -0.2458
19186TIP3    H278974   3.532   5.527  13.611  0.7646 -0.3721 -0.6449
19187TIP3   OH278975   5.408   0.840   0.101 -0.0201  0.2839 -0.9536
19187TIP3    H178976   5.367   0.799   0.177  1.5639 -1.3538 -0.9096
19187TIP3    H278977   5.344   0.832   0.031 -1.6388  2.1137  0.2299
19188TIP3   OH278978   3.523   3.508   5.492 -0.2963 -0.1921  0.3363
19188TIP3    H178979   3.493   3.439   5.433  0.1430  0.1813 -0.3459
19188TIP3    H278980   3.606   3.538   5.454 -0.8241  1.1946  0.2047
19189TIP3   OH278981   1.818   0.833   2.366  0.6085  0.0001 -0.6647
19189TIP3    H178982   1.792   0.845   2.457  0.9424  1.3677 -0.7254
19189TIP3    H278983   1.821   0.738   2.354  1.5778 -0.2382  1.0574
19190TIP3   OH278984   4.273   5.196  11.556 -0.3050 -0.4133  0.6910
19190TIP3    H178985   4.352   5.191  11.503  0.0410  1.0249  1.0292
19190TIP3    H278986   4.201   5.197  11.492  0.0116 -0.4623  0.3312
19191TIP3   OH278987   2.623   2.246  12.748 -0.8646  0.3385  0.2556
19191TIP3    H178988   2.626   2.218  12.657  0.9753 -0.9963  0.6610
19191TIP3    H278989   2.623   2.165  12.798 -2.1969  1.0413  1.4609
19192TIP3   OH278990   4.937   1.894  16.821 -0.2705  0.2629  0.1047
19192TIP3    H178991   4.931   1.943  16.903  2.4341 -0.9000  1.1181
19192TIP3    H278992   4.974   1.957  16.759  1.1627  0.1903  0.8287
19193TIP3   OH278993   1.598   4.716  15.812  0.2539 -0.1272  0.4437
19193TIP3    H178994   1.687   4.735  15.784  0.1857 -0.8323 -0.3031
19193TIP3    H278995   1.543   4.760  15.747  0.0948 -2.3202 -1.0410
19194TIP3   OH278996   0.138   4.857  15.303  0.5845  0.1821  0.1652
19194TIP3    H178997   0.116   4.950  15.311 -0.9494 -0.1128 -0.3004
19194TIP3    H278998   0.175   4.849  15.215  0.4930  0.3226  0.1114
19195TIP3   OH278999   0.052   6.020   1.508  0.4775  0.0085  0.4573
19195TIP3    H179000   0.060   6.001   1.415  1.9326  0.3358  0.4872
19195TIP3    H279001  -0.018   5.962   1.539  0.4136 -0.5554 -0.6996
19196TIP3   OH279002   3.364   6.813  12.668 -0.1744  0.0175  0.1595
19196TIP3    H179003   3.457   6.835  12.661 -0.2069  1.8092  3.2727
19196TIP3    H279004   3.322   6.870  12.603  0.7567  0.2780 -0.2439
19197TIP3   OH279005   2.561   5.211  14.484  0.2398 -0.0018 -0.1231
19197TIP3    H179006   2.503   5.281  14.514  0.1288 -0.4348  0.7296
19197TIP3    H279007   2.643   5.226  14.529  0.6973  0.4113 -1.0695
19198TIP3   OH279008   4.225   6.521   3.410 -0.1126 -0.1651 -0.1058
19198TIP3    H179009   4.254   6.444   3.459  1.1874 -0.0844 -0.7029
19198TIP3    H279010   4.300   6.544   3.355 -2.1456 -1.4865 -3.7326
19199TIP3   OH279011   2.247   2.131   2.656 -0.3688  0.4617  0.0272
19199TIP3    H179012   2.236   2.036   2.669 -3.3300  0.8191  1.0360
19199TIP3    H279013   2.318   2.155   2.715  2.8759 -1.5009 -2.7053
19200TIP3   OH279014   0.034   6.135   5.337  0.1430 -0.2104  0.0752
19200TIP3    H179015  -0.031   6.086   5.388 -0.4925  1.3274  0.8416
19200TIP3    H279016  -0.015   6.169   5.262  0.6049 -0.8350 -0.5181
19201TIP3   OH279017   3.693   5.715   0.868  0.1089  0.5771  0.1823
19201TIP3    H179018   3.734   5.701   0.954 -1.3580 -0.1695  0.7962
19201TIP3    H279019   3.609   5.671   0.875 -0.4514  1.3600 -1.3228
19202TIP3   OH279020   4.009   6.043   5.568  0.6634  0.2859  0.3040
19202TIP3    H179021   3.957   6.123   5.554  0.8602  0.4197  0.3288
19202TIP3    H279022   3.979   5.983   5.500 -0.5409 -0.1546  1.2036
19203TIP3   OH279023   0.908   5.624   4.482 -0.6238  0.3611 -0.0364
19203TIP3    H179024   0.843   5.662   4.541  0.0674 -0.8264  1.5849
19203TIP3    H279025   0.990   5.667   4.505 -0.6939  1.4427 -1.6758
19204TIP3   OH279026   1.753   5.121  11.661  0.1078  0.1713 -0.4390
19204TIP3    H179027   1.736   5.073  11.579  0.5504 -1.9352  0.6329
19204TIP3    H279028   1.847   5.136  11.660  0.5201 -1.9943  0.7206
19205TIP3   OH279029   6.485   2.048  15.182  0.1719  0.4709  0.0931
19205TIP3    H179030   6.429   2.053  15.259 -1.0475  1.9645 -0.8103
19205TIP3    H279031   6.517   1.958  15.180 -1.1444 -0.0615  1.3897
19206TIP3   OH279032   5.420   1.543  15.846 -0.8485  0.1357  0.1383
19206TIP3    H179033   5.403   1.471  15.785 -1.9907 -1.6330  2.3791
19206TIP3    H279034   5.510   1.527  15.876 -0.9368 -0.1128  0.2808
19207TIP3   OH279035   2.750   3.367  11.690 -0.0390 -0.0689 -0.5411
19207TIP3    H179036   2.841   3.355  11.717 -0.0464 -1.3119 -1.0193
19207TIP3    H279037   2.702   3.296  11.733 -0.5213 -0.3432 -1.5056
19208TIP3   OH279038   4.067   6.722  16.557 -0.7803  0.7280  0.4025
19208TIP3    H179039   4.106   6.783  16.495 -1.2701  0.1253 -0.5172
19208TIP3    H279040   4.068   6.769  16.641  1.4577  0.9301  0.3285
19209TIP3   OH279041   3.780   2.129   5.393  0.1179 -0.3098  0.4308
19209TIP3    H179042   3.725   2.073   5.339  0.5095  0.0948 -0.4091
19209TIP3    H279043   3.801   2.204   5.337  0.1031  0.3790  1.3260
19210TIP3   OH279044   6.680   6.428  16.765 -0.2864  0.0220 -0.4725
19210TIP3    H179045   6.621   6.362  16.728 -0.2189  0.4155 -1.2989
19210TIP3    H279046   6.703   6.394  16.851 -0.7138 -0.7527 -0.6589
19211TIP3   OH279047   1.691   3.100   5.415  0.3723  0.5354 -0.5343
19211TIP3    H179048   1.631   3.098   5.490 -1.0828 -3.4677 -1.5930
19211TIP3    H279049   1.684   3.190   5.382 -2.6437  1.1235  1.2807
19212TIP3   OH279050   4.157   4.247  14.521  0.3243  0.0599  0.0864
19212TIP3    H179051   4.218   4.208  14.459 -0.3633  0.5368 -0.9119
19212TIP3    H279052   4.098   4.301  14.467  0.9045  2.0511  1.3248
19213TIP3   OH279053   6.321   3.236  13.760 -0.0803 -0.3511 -0.1985
19213TIP3    H179054   6.378   3.198  13.694 -1.2169  0.1450 -1.5076
19213TIP3    H279055   6.360   3.321  13.780 -0.8869  0.4828 -1.9150
19214TIP3   OH279056   0.795   1.358   2.805 -0.3090  0.0364 -0.6719
19214TIP3    H179057   0.851   1.429   2.838 -0.5448  0.3363 -0.9125
19214TIP3    H279058   0.763   1.315   2.885  0.4473 -0.2900 -0.5338
19215TIP3   OH279059   4.965   2.300   5.434  0.2765  0.2033 -0.1062
19215TIP3    H179060   5.019   2.379   5.432  0.6593  0.0405  1.8470
19215TIP3    H279061   5.007   2.243   5.497 -0.9672 -0.8548 -0.1809
19216TIP3   OH279062   2.523   1.516   5.489 -0.2335 -0.7296  0.3973
19216TIP3    H179063   2.549   1.564   5.567 -1.5455 -1.7206  1.4838
19216TIP3    H279064   2.602   1.514   5.435  0.5505  0.4263  1.4458
19217TIP3   OH279065   6.180   4.047  14.595  0.3057 -0.2129  0.6250
19217TIP3    H179066   6.121   4.052  14.520 -1.0364 -1.0727  1.5760
19217TIP3    H279067   6.122   4.035  14.671  1.5004  2.0074  2.0003
19218TIP3   OH279068   1.422   6.117  15.152 -0.0876  0.0765 -0.8227
19218TIP3    H179069   1.510   6.082  15.162 -0.2124 -0.9901 -2.9172
19218TIP3    H279070   1.432   6.189  15.090 -0.3891  1.5344  0.7379
19219TIP3   OH279071   1.141   1.369   2.057 -0.8653  0.0075 -0.3880
19219TIP3    H179072   1.138   1.274   2.043 -0.0381 -0.2717  1.0795
19219TIP3    H279073   1.215   1.399   2.003  0.6034 -0.6324  1.1848
19220TIP3   OH279074   2.177   2.787  12.129 -0.7809 -0.0751  0.0539
19220TIP3    H179075   2.260   2.806  12.084  1.3466 -3.3281  2.1087
19220TIP3    H279076   2.122   2.748  12.062  0.2527  0.0613 -0.9061
19221TIP3   OH279077   3.626   5.722  13.229 -0.3621  0.2956 -0.9989
19221TIP3    H179078   3.593   5.799  13.184 -0.8781  0.2664 -0.6859
19221TIP3    H279079   3.625   5.747  13.322 -2.0737 -0.6195 -0.7278
19222TIP3   OH279080   3.821   6.075   6.629 -0.0910  0.7593 -0.0182
19222TIP3    H179081   3.849   6.079   6.538 -1.9264 -0.4653 -0.6872
19222TIP3    H279082   3.823   5.982   6.650 -1.5958  0.8272  0.5331
19223TIP3   OH279083   1.188   5.058   4.995  0.3390 -0.5280 -0.1585
19223TIP3    H179084   1.249   5.023   5.060 -0.3191  0.7280  1.1988
19223TIP3    H279085   1.122   5.104   5.047  0.0839  1.0019 -1.7419
19224TIP3   OH279086   4.331   3.937   3.286 -0.8110 -0.5859 -0.1816
19224TIP3    H179087   4.244   3.947   3.247 -1.4311 -0.3556  1.1988
19224TIP3    H279088   4.380   3.888   3.220 -1.4198  0.8112 -1.7623
19225TIP3   OH279089   4.027   3.579   5.258 -0.0249  0.1753 -0.1660
19225TIP3    H179090   4.104   3.579   5.314  0.5861  0.7211 -0.9859
19225TIP3    H279091   4.039   3.504   5.200 -2.1615 -2.3467  2.3653
19226TIP3   OH279092   3.963   2.860   3.919  0.2161 -0.0776 -0.0920
19226TIP3    H179093   3.991   2.949   3.896  1.7283 -0.6532 -0.5379
19226TIP3    H279094   4.026   2.831   3.985 -0.2832 -0.8226  0.0694
19227TIP3   OH279095   6.016   2.629   4.403 -0.6349  0.0228  0.1348
19227TIP3    H179096   6.052   2.663   4.485 -2.3038  1.0921  0.4683
19227TIP3    H279097   5.984   2.542   4.425  0.5042 -0.4079  0.1561
19228TIP3   OH279098   5.725   2.372  13.407 -0.2564 -0.1836  0.4936
19228TIP3    H179099   5.660   2.422  13.358  1.7095  2.1843  0.0998
19228TIP3    H279100   5.722   2.409  13.495 -3.1222 -3.7911  2.1753
19229TIP3   OH279101   0.399   4.061   2.679 -0.0739  0.3958 -0.3983
19229TIP3    H179102   0.377   4.124   2.748  0.8579  0.9320 -0.5696
19229TIP3    H279103   0.360   4.097   2.600  1.8847  1.7036 -0.8359
19230TIP3   OH279104   3.450   4.602   0.093 -0.3069 -0.0059 -0.5463
19230TIP3    H179105   3.494   4.524   0.127 -1.3016 -0.4515 -0.2581
19230TIP3    H279106   3.520   4.652   0.051  0.6889 -0.1316  0.8969
19231TIP3   OH279107   4.707   0.080  10.876 -0.0684  0.2366 -0.0100
19231TIP3    H179108   4.791   0.036  10.863  0.0108  0.0026  1.2118
19231TIP3    H279109   4.649   0.013  10.912 -0.4826  0.6548  0.1149
19232TIP3   OH279110   2.551   5.212  13.402  0.6574 -0.3956 -0.1579
19232TIP3    H179111   2.546   5.116  13.402 -0.8766 -0.3545  1.0228
19232TIP3    H279112   2.467   5.239  13.365  1.1456  0.5143 -0.6267
19233TIP3   OH279113   5.897   6.567  13.455 -0.2623 -0.5694  0.9743
19233TIP3    H179114   5.809   6.540  13.480 -0.7136 -1.1221 -1.0065
19233TIP3    H279115   5.949   6.486  13.456 -0.8753 -1.1332 -1.9699
19234TIP3   OH279116   6.093   3.481  15.601 -0.6676 -0.1620 -0.3152
19234TIP3    H179117   6.105   3.452  15.511 -2.5741  0.1234 -0.7039
19234TIP3    H279118   6.153   3.555  15.611 -0.7921  0.1190 -1.5045
19235TIP3   OH279119   1.138   6.159  13.549  0.0275 -0.7467  0.2777
19235TIP3    H179120   1.078   6.086  13.533 -1.5884  0.5528  0.0782
19235TIP3    H279121   1.161   6.190  13.461 -2.3968  1.3314  0.2630
19236TIP3   OH279122   0.917   4.572  16.058 -0.0068  0.7857 -0.2655
19236TIP3    H179123   0.854   4.603  15.992 -0.3366 -0.0736 -0.3745
19236TIP3    H279124   0.864   4.521  16.119  0.6384 -0.3432 -0.6188
19237TIP3   OH279125   2.372   0.478   4.862 -0.1073  0.1054  0.1961
19237TIP3    H179126   2.334   0.457   4.776 -0.2206  2.1050 -0.2859
19237TIP3    H279127   2.355   0.571   4.873  1.4545  0.2488  1.6297
19238TIP3   OH279128   2.418   3.723  13.754 -0.1317  0.0675  0.3342
19238TIP3    H179129   2.487   3.728  13.688  0.8360  1.5568  1.3919
19238TIP3    H279130   2.391   3.632  13.754  0.5294 -0.1612 -1.4225
19239TIP3   OH279131   0.367   1.877  11.772  0.1370  0.1946  0.6146
19239TIP3    H179132   0.397   1.911  11.687 -0.1026  0.0378  0.4671
19239TIP3    H279133   0.374   1.782  11.763 -1.9716  0.0466 -0.0240
19240TIP3   OH279134   6.191   2.815  11.265 -0.0736  0.1253  0.0253
19240TIP3    H179135   6.163   2.825  11.356 -0.2038  1.7258 -0.1603
19240TIP3    H279136   6.283   2.842  11.265  0.5775 -1.9492  0.0418
19241TIP3   OH279137   6.119   5.132  15.865 -0.4305 -0.7176  0.0853
19241TIP3    H179138   6.189   5.068  15.851  1.2371  0.9315  0.4825
19241TIP3    H279139   6.125   5.154  15.958  0.8605  1.9320 -0.5202
19242TIP3   OH279140   4.449   4.525  11.854  0.2583 -0.6150  0.1223
19242TIP3    H179141   4.370   4.523  11.800  0.7089 -1.1473 -0.5441
19242TIP3    H279142   4.433   4.594  11.918 -0.7433 -0.7232 -0.0015
19243TIP3   OH279143   0.320   4.950  14.300  0.4961  0.2047 -0.0651
19243TIP3    H179144   0.244   4.941  14.242  0.1317  0.9109  0.2967
19243TIP3    H279145   0.346   4.859  14.318 -0.2956 -0.0537 -0.1549
19244TIP3   OH279146   3.198   4.815   4.684  0.0394  0.0645  0.1934
19244TIP3    H179147   3.248   4.835   4.763 -0.2641 -1.8553  0.9245
19244TIP3    H279148   3.210   4.892   4.628  0.5627  1.3159  1.9408
19245TIP3   OH279149   2.601   1.481   4.188 -0.1028 -0.2012  0.3631
19245TIP3    H179150   2.532   1.430   4.231 -0.1093 -1.9432 -1.5392
19245TIP3    H279151   2.677   1.422   4.189 -0.0409 -0.2246 -1.7201
19246TIP3   OH279152   4.799   6.039  13.580  0.4808 -0.0473 -0.0269
19246TIP3    H179153   4.848   5.984  13.519 -1.6964 -2.4367  0.1828
19246TIP3    H279154   4.784   6.121  13.532  0.7804 -0.9875 -1.8386
19247TIP3   OH279155   2.925   3.967   2.574 -0.5069 -0.0879  0.6702
19247TIP3    H179156   2.942   3.880   2.537 -0.4344 -0.1035  0.7393
19247TIP3    H279157   2.869   4.010   2.509 -0.2027 -0.0365  0.4350
19248TIP3   OH279158   2.392   3.354  15.459 -0.2873  0.6070 -0.0723
19248TIP3    H179159   2.386   3.304  15.541 -2.1539  0.5514 -0.2057
19248TIP3    H279160   2.310   3.335  15.413  0.4745  1.0936 -1.7054
19249TIP3   OH279161   1.089   2.224  13.076 -0.2896  0.4199 -0.4052
19249TIP3    H179162   1.136   2.171  13.141  0.1246  0.0757 -0.9796
19249TIP3    H279163   1.037   2.162  13.026  0.1572  0.5468 -1.0450
19250TIP3   OH279164   3.728   2.560   5.849  0.2968  0.0144 -0.1154
19250TIP3    H179165   3.747   2.542   5.941  1.6815 -0.4124 -0.4629
19250TIP3    H279166   3.700   2.651   5.848  0.9540  0.2369  0.6532
19251TIP3   OH279167   0.469   2.332  12.096 -0.3783  0.3188  0.0722
19251TIP3    H179168   0.469   2.261  12.160 -0.0338 -1.6499 -1.9701
19251TIP3    H279169   0.548   2.317  12.044 -1.3825  0.9594 -1.7176
19252TIP3   OH279170   2.539   4.415  13.984  0.2603  0.7570  0.3029
19252TIP3    H179171   2.448   4.443  13.999  0.1051  0.2146  0.4068
19252TIP3    H279172   2.559   4.357  14.057  0.1985 -0.2627 -0.4620
19253TIP3   OH279173   3.424   0.558   1.079 -0.5164  0.2058 -0.4683
19253TIP3    H179174   3.454   0.633   1.132  0.0956  0.6051 -1.3542
19253TIP3    H279175   3.462   0.482   1.123 -1.4346  0.3620  0.6521
19254TIP3   OH279176   0.193   6.171   3.055 -0.2465  0.0195  0.1783
19254TIP3    H179177   0.107   6.198   3.086  1.1578  2.4646  2.2252
19254TIP3    H279178   0.221   6.103   3.116 -0.5777 -0.6303 -0.3683
19255TIP3   OH279179   1.116   1.621  11.921  0.0060 -0.4350 -0.2317
19255TIP3    H179180   1.192   1.645  11.973 -0.0627  1.2435 -0.8419
19255TIP3    H279181   1.147   1.620  11.831 -0.6985  0.4584 -0.5095
19256TIP3   OH279182   0.335   0.717  13.871 -0.4376 -0.1791  0.2037
19256TIP3    H179183   0.384   0.636  13.880  0.5927  0.3963 -0.1334
19256TIP3    H279184   0.338   0.757  13.958 -1.1244 -0.5876  0.4246
19257TIP3   OH279185   5.155   5.110   0.222  0.1216  0.0818 -0.0756
19257TIP3    H179186   5.187   5.037   0.275 -0.3242 -0.4065 -0.4496
19257TIP3    H279187   5.066   5.083   0.197 -0.1991  0.9464  0.1216
19258TIP3   OH279188   0.194   0.189   4.300 -0.1959  0.3281  0.6586
19258TIP3    H179189   0.168   0.281   4.306  0.8958  0.6945 -0.0235
19258TIP3    H279190   0.126   0.149   4.245 -0.5467  0.7795  0.7539
19259TIP3   OH279191   1.935   2.679  13.505  0.0732 -0.3649 -0.8433
19259TIP3    H179192   1.902   2.593  13.478 -3.7752  0.5557  0.3445
19259TIP3    H279193   1.948   2.671  13.599 -0.5426  0.3933 -0.6881
19260TIP3   OH279194   4.667   2.672   4.608  0.1743  0.1335 -0.1920
19260TIP3    H179195   4.608   2.723   4.552  0.8608  1.1631  0.0038
19260TIP3    H279196   4.754   2.708   4.591  0.3927  0.5661  1.6047
19261TIP3   OH279197   5.540   6.144  13.296  0.7467 -0.0556  0.2275
19261TIP3    H179198   5.446   6.129  13.305  0.0068  3.2413 -0.4987
19261TIP3    H279199   5.569   6.080  13.232 -1.0408 -0.9872  0.2948
19262TIP3   OH279200   0.016   4.606  14.536  0.3416  0.4316 -0.4908
19262TIP3    H179201   0.027   4.662  14.613  0.4242  0.3589 -0.4489
19262TIP3    H279202  -0.071   4.566  14.548  0.0195  1.0208 -0.8329
19263TIP3   OH279203   1.803   4.628  11.895  0.0569  0.0138  0.2704
19263TIP3    H179204   1.713   4.653  11.916 -0.1279  1.0531 -1.4957
19263TIP3    H279205   1.817   4.545  11.941 -1.9479 -0.3831  0.2473
19264TIP3   OH279206   0.087   0.814  16.031  0.4414  0.4164  0.7413
19264TIP3    H179207   0.150   0.751  16.068 -0.3607 -1.6736 -1.2482
19264TIP3    H279208   0.004   0.791  16.073  0.5498  1.7232  1.7194
19265TIP3   OH279209   0.774   6.084  13.158  0.4679  0.3213  0.0790
19265TIP3    H179210   0.838   6.155  13.163 -0.2756  0.9622  0.7020
19265TIP3    H279211   0.733   6.095  13.072  0.7658  0.2714 -0.0730
19266TIP3   OH279212   2.032   5.479   3.879  0.5044 -0.0838 -0.0342
19266TIP3    H179213   2.036   5.432   3.962 -0.3597  1.0572  0.6988
19266TIP3    H279214   2.039   5.412   3.812  0.8888 -1.0655  0.9699
19267TIP3   OH279215   1.925   1.979   2.621  0.1150  0.5424  0.1240
19267TIP3    H179216   2.017   1.952   2.619  0.6260  2.1678 -1.4103
19267TIP3    H279217   1.879   1.910   2.573  0.6944  0.1964  0.0486
19268TIP3   OH279218   3.504   2.822  11.338 -0.7082  0.5828 -0.0511
19268TIP3    H179219   3.578   2.880  11.360 -1.1618  1.1898 -0.1042
19268TIP3    H279220   3.519   2.799  11.246  0.5799 -1.0517  0.5151
19269TIP3   OH279221   2.376   6.447   3.957  0.3707 -0.0813 -0.0594
19269TIP3    H179222   2.299   6.442   4.014  0.0579 -2.9175 -0.6034
19269TIP3    H279223   2.446   6.478   4.014 -1.1691  3.0711  0.3388
19270TIP3   OH279224   6.003   3.818  14.192 -0.1427  0.0632 -0.3399
19270TIP3    H179225   6.028   3.756  14.123  1.4729 -1.0138  1.1328
19270TIP3    H279226   6.086   3.848  14.228 -0.7954 -1.6427  3.0432
19271TIP3   OH279227   5.102   2.029   0.385 -0.9549 -0.0426  0.2572
19271TIP3    H179228   5.073   2.113   0.420  3.3545  1.2507  1.2434
19271TIP3    H279229   5.110   2.043   0.291  0.2857  0.9186  0.4832
19272TIP3   OH279230   5.989   2.866  10.692  0.5742 -0.0770  0.2564
19272TIP3    H179231   6.021   2.810  10.621  0.7897 -0.3549  0.5692
19272TIP3    H279232   5.962   2.805  10.760  1.7550  0.1996  1.0122
19273TIP3   OH279233   0.960   5.329   6.151  0.2907  0.1433 -0.3962
19273TIP3    H179234   0.881   5.330   6.098 -1.3846  2.2908  1.8938
19273TIP3    H279235   1.015   5.398   6.114 -0.2008  0.5935 -0.3065
19274TIP3   OH279236   5.502   6.618   2.923 -0.1916  0.4387 -0.7747
19274TIP3    H179237   5.431   6.682   2.911  0.3877  1.3612  0.4493
19274TIP3    H279238   5.471   6.560   2.992 -0.2631  0.0811 -1.1075
19275TIP3   OH279239   2.282   0.327  14.579  1.0921  0.2573 -0.0320
19275TIP3    H179240   2.227   0.364  14.649  1.6594  0.7735  0.1510
19275TIP3    H279241   2.238   0.246  14.555  0.9982 -0.0416  1.0776
19276TIP3   OH279242   6.188   6.149   2.329 -0.0551  0.2356  0.3934
19276TIP3    H179243   6.143   6.230   2.307  0.1118  0.5775  1.3098
19276TIP3    H279244   6.209   6.156   2.422 -0.2782 -0.9668  0.5554
19277TIP3   OH279245   4.793   1.794   0.794  0.3381  0.1923  0.1607
19277TIP3    H179246   4.856   1.766   0.860 -0.1276  1.3228  1.1192
19277TIP3    H279247   4.817   1.884   0.773  0.9418 -0.3714 -1.8180
19278TIP3   OH279248   2.386   2.692  16.200  0.0008 -0.0005 -0.3159
19278TIP3    H179249   2.427   2.751  16.264 -0.3551 -0.1883  0.0885
19278TIP3    H279250   2.426   2.716  16.116  0.8149 -0.0601  0.0409
19279TIP3   OH279251   0.885   0.741   4.981  0.1400 -0.1119  0.0629
19279TIP3    H179252   0.797   0.725   4.946  0.4326 -1.0554 -0.2639
19279TIP3    H279253   0.926   0.655   4.983  1.4493  0.4682 -0.8302
19280TIP3   OH279254   4.363   2.998  13.166 -0.2567 -0.6982  0.1609
19280TIP3    H179255   4.397   3.076  13.122  0.3670 -0.2583  1.3734
19280TIP3    H279256   4.272   3.020  13.187 -0.4661 -0.7976 -0.6303
19281TIP3   OH279257   6.155   1.281   5.113  0.0428  0.1616 -0.2516
19281TIP3    H179258   6.061   1.278   5.134  0.1104  1.1407  0.2083
19281TIP3    H279259   6.199   1.282   5.198  0.3863  1.9765 -0.4219
19282TIP3   OH279260   1.436   3.518   4.002 -0.3640  0.0504  0.6120
19282TIP3    H179261   1.464   3.446   4.058  1.5559 -0.4837 -0.9231
19282TIP3    H279262   1.376   3.477   3.939 -1.1395  0.3074  1.1605
19283TIP3   OH279263   5.388   4.459  12.299 -0.4820 -0.3756  0.3757
19283TIP3    H179264   5.357   4.549  12.294  0.5254 -0.0199  0.4307
19283TIP3    H279265   5.322   4.414  12.352 -1.9107 -0.0881 -1.0954
19284TIP3   OH279266   5.022   2.945   0.048  0.7143 -0.4095  0.3693
19284TIP3    H179267   4.977   2.915  -0.031  1.8972  1.1073 -0.9339
19284TIP3    H279268   4.988   3.033   0.062 -0.5003 -1.1319  2.4040
19285TIP3   OH279269   5.465   6.224   1.292  0.1210 -0.0906 -0.2138
19285TIP3    H179270   5.516   6.195   1.216  4.4427 -0.4599  2.5189
19285TIP3    H279271   5.469   6.320   1.288  1.7282 -0.1049  0.2807
19286TIP3   OH279272   3.004   6.641   5.878 -0.6301 -0.6266  0.1150
19286TIP3    H179273   3.029   6.578   5.946  1.4415  0.9339  0.9117
19286TIP3    H279274   2.968   6.715   5.926  0.2346  0.2238 -0.5126
19287TIP3   OH279275   3.841   0.720  15.580 -0.2082  0.0128  0.1284
19287TIP3    H179276   3.814   0.679  15.497 -0.1788  0.9499 -0.3640
19287TIP3    H279277   3.759   0.753  15.618 -0.1857 -0.1696  0.3355
19288TIP3   OH279278   5.620   3.830  16.038 -0.1113 -0.2555  0.7721
19288TIP3    H179279   5.641   3.870  15.954 -1.2426 -0.6149  0.2980
19288TIP3    H279280   5.705   3.812  16.078  0.4411  1.7553  0.6092
19289TIP3   OH279281   6.645   2.826   5.975  0.4696  0.2339  0.1852
19289TIP3    H179282   6.684   2.744   6.005  1.5055  0.3615 -0.7277
19289TIP3    H279283   6.705   2.857   5.906 -0.3540  1.3212 -0.0699
19290TIP3   OH279284   2.974   0.117  14.360  0.7736  0.2183  0.3173
19290TIP3    H179285   3.031   0.085  14.430  0.8957 -1.6489 -0.5819
19290TIP3    H279286   2.904   0.164  14.406  1.4521  0.0226  1.6024
19291TIP3   OH279287   6.433   2.680  12.467  0.2648 -0.1521  0.2199
19291TIP3    H179288   6.490   2.648  12.397 -0.2219  0.7606 -0.6237
19291TIP3    H279289   6.354   2.626  12.461 -0.5410  1.1039 -1.1781
19292TIP3   OH279290   0.413   1.894   3.003 -0.8456  0.0178  1.0514
19292TIP3    H179291   0.458   1.861   2.925 -0.5609  2.1279  0.2559
19292TIP3    H279292   0.328   1.849   3.003 -1.0681  0.3583 -0.8118
19293TIP3   OH279293   1.769   6.600  15.941  0.2806  0.4245 -0.0847
19293TIP3    H179294   1.854   6.639  15.961  1.1857 -1.3303 -0.3843
19293TIP3    H279295   1.787   6.534  15.874 -1.6775  1.5780 -1.8875
19294TIP3   OH279296   2.685   3.507  15.931  0.2801  0.4447  0.0868
19294TIP3    H179297   2.625   3.549  15.869 -0.1277  0.8912  0.7630
19294TIP3    H279298   2.684   3.564  16.008 -1.9534 -1.7918  1.9103
19295TIP3   OH279299   2.243   6.621  15.462 -0.1985  0.5585  0.3650
19295TIP3    H179300   2.195   6.540  15.447 -1.6673  1.2151  1.3171
19295TIP3    H279301   2.271   6.617  15.553  0.6430  0.6669  0.1205
19296TIP3   OH279302   3.250   0.377   5.930  0.3062  0.0013  0.5155
19296TIP3    H179303   3.257   0.328   6.012  0.5034 -0.6347  0.1285
19296TIP3    H279304   3.218   0.463   5.956 -1.0683 -0.6576  1.1142
19297TIP3   OH279305   6.809   1.827  14.058  0.3371  0.1863 -0.2141
19297TIP3    H179306   6.820   1.909  14.009 -0.1691  0.6456  0.4154
19297TIP3    H279307   6.733   1.785  14.019  0.3543  0.2161 -0.2787
19298TIP3   OH279308   5.451   4.318  14.841  0.6528 -0.1158 -0.1239
19298TIP3    H179309   5.401   4.239  14.819 -0.8356  0.0151  2.3943
19298TIP3    H279310   5.443   4.374  14.763  1.5747 -2.3034 -1.8757
19299TIP3   OH279311   0.748   6.132  11.594 -0.1935 -0.1443  0.4584
19299TIP3    H179312   0.715   6.126  11.505 -1.1079  1.0067  0.6886
19299TIP3    H279313   0.805   6.210  11.593 -0.9256  0.4163  1.0679
19300TIP3   OH279314   1.826   6.483   5.156  0.3342 -0.3188  0.4494
19300TIP3    H179315   1.778   6.477   5.073 -0.4323 -1.0424  0.9152
19300TIP3    H279316   1.778   6.424   5.215  1.0392 -0.0476  1.3200
19301TIP3   OH279317   5.058   6.500   1.462  0.4642 -0.0683 -0.5813
19301TIP3    H179318   5.076   6.529   1.552 -1.6650  0.8222 -0.3885
19301TIP3    H279319   5.094   6.411   1.458 -0.2020 -0.4776  1.4490
19302TIP3   OH279320   4.603   3.680   3.612 -0.1516 -0.1875 -0.0042
19302TIP3    H179321   4.634   3.720   3.694  0.0828  0.6676 -0.4903
19302TIP3    H279322   4.567   3.754   3.562 -4.0252 -1.1837  0.9158
19303TIP3   OH279323   3.592   2.416  15.290 -0.2574  0.1178 -0.4589
19303TIP3    H179324   3.563   2.507  15.282  1.7809  0.8226 -0.4320
19303TIP3    H279325   3.620   2.408  15.381  1.5874  0.1491 -0.9855
19304TIP3   OH279326   5.432   1.352   2.186 -0.2110 -0.3402 -0.3383
19304TIP3    H179327   5.405   1.429   2.236  2.0160  0.4589 -0.2601
19304TIP3    H279328   5.458   1.386   2.101  0.6017 -1.0064 -0.3766
19305TIP3   OH279329   0.787   1.244  11.608  0.2835 -0.0831 -0.3008
19305TIP3    H179330   0.860   1.272  11.552 -0.2749 -0.0623 -1.0241
19305TIP3    H279331   0.796   1.149  11.611 -0.4522 -0.2090 -1.5171
19306TIP3   OH279332   5.842   2.371   4.940  0.2163 -0.4631  0.2380
19306TIP3    H179333   5.871   2.285   4.909 -0.8675 -0.4409 -0.8896
19306TIP3    H279334   5.827   2.358   5.034 -0.6131 -1.7149 -0.0418
19307TIP3   OH279335   3.351   2.696  16.951 -0.0518  0.2374 -0.4306
19307TIP3    H179336   3.320   2.764  16.891 -1.4364 -1.6049 -1.9252
19307TIP3    H279337   3.329   2.614  16.907  1.3005 -1.1993  1.4308
19308TIP3   OH279338   5.454   3.263  14.616 -0.2029 -0.0434 -0.0592
19308TIP3    H179339   5.366   3.227  14.604 -0.7661  1.1522  0.2732
19308TIP3    H279340   5.502   3.195  14.664 -0.0343 -1.9342 -2.7190
19309TIP3   OH279341   3.075   6.773  10.823  0.0419 -0.0239 -0.4263
19309TIP3    H179342   3.077   6.747  10.731  0.4556 -0.2697 -0.3488
19309TIP3    H279343   3.149   6.727  10.862  1.1144  1.6460 -0.3987
19310TIP3   OH279344   6.571   5.675  13.969 -0.7759  0.3529  0.2123
19310TIP3    H179345   6.660   5.680  14.004  1.4456 -3.1482 -3.9157
19310TIP3    H279346   6.522   5.626  14.035  1.2004 -0.2146  1.3567
19311TIP3   OH279347   6.250   2.617   1.998 -0.1623  0.1390  0.0025
19311TIP3    H179348   6.168   2.619   2.047  0.5254  1.9024  1.2045
19311TIP3    H279349   6.273   2.525   1.994 -0.1386 -0.1479  3.3695
19312TIP3   OH279350   5.096   4.359   3.220 -0.2508  0.1048 -0.0051
19312TIP3    H179351   5.098   4.403   3.135  2.1852  0.4819  0.1778
19312TIP3    H279352   5.097   4.266   3.200 -0.6004  0.1821 -0.3833
19313TIP3   OH279353   0.190   6.578   0.343  0.3079  0.1170 -0.1977
19313TIP3    H179354   0.149   6.661   0.369  0.6752 -0.2120  1.5800
19313TIP3    H279355   0.117   6.521   0.322  0.0405  0.7974 -1.1916
19314TIP3   OH279356   5.032   4.842  12.490 -0.4442  0.0885 -0.0085
19314TIP3    H179357   5.120   4.805  12.498 -0.4165  0.3616  1.1141
19314TIP3    H279358   4.976   4.767  12.470 -0.3768 -0.6068  2.1616
19315TIP3   OH279359   5.892   1.638   4.082  0.5249  0.0176  0.5812
19315TIP3    H179360   5.827   1.707   4.095  1.4343  1.6875 -2.5716
19315TIP3    H279361   5.853   1.560   4.120 -1.9301  1.6118  1.5340
19316TIP3   OH279362   3.170   4.913  16.610  0.1773  0.1022 -0.6723
19316TIP3    H179363   3.222   4.899  16.689  0.0859  1.6116 -0.3147
19316TIP3    H279364   3.182   4.833  16.559  1.1204 -0.4483  0.3705
19317TIP3   OH279365   6.283   2.453   0.542 -0.2639  0.4255 -0.2190
19317TIP3    H179366   6.266   2.361   0.522 -0.0959  0.4864 -0.6676
19317TIP3    H279367   6.359   2.451   0.600 -0.8808  0.2331  0.5903
19318TIP3   OH279368   3.395   6.014   3.193  0.3961 -0.3328 -0.4936
19318TIP3    H179369   3.338   6.053   3.259 -0.7937  1.6564 -2.5632
19318TIP3    H279370   3.337   5.959   3.140  1.2198 -1.4426 -0.2864
19319TIP3   OH279371   1.778   6.252   1.864  0.0518 -0.0714 -0.8310
19319TIP3    H179372   1.712   6.211   1.808  0.2212 -1.7211  0.0970
19319TIP3    H279373   1.742   6.244   1.952  0.3805  1.2895 -0.5515
19320TIP3   OH279374   0.383   4.538   4.631  0.4354 -0.0070  0.5702
19320TIP3    H179375   0.425   4.464   4.675 -0.6312 -0.6651  0.5235
19320TIP3    H279376   0.350   4.503   4.549  0.7736  0.7671  0.0894
19321TIP3   OH279377   4.157   6.460  12.744 -1.1459  0.2298 -0.0706
19321TIP3    H179378   4.222   6.515  12.788 -0.8584 -1.4705  1.7577
19321TIP3    H279379   4.174   6.473  12.650  0.4051  1.4398  0.3390
19322TIP3   OH279380   1.876   2.444   1.159  0.1428  0.0062  0.2834
19322TIP3    H179381   1.836   2.379   1.102  2.2375 -1.5730  0.4757
19322TIP3    H279382   1.893   2.520   1.103 -1.0707 -0.1294 -0.2859
19323TIP3   OH279383   3.297   5.473   0.452 -0.3479  0.2023  0.0272
19323TIP3    H179384   3.376   5.426   0.476  0.3761  0.2998 -1.9844
19323TIP3    H279385   3.328   5.550   0.404 -1.6316 -0.2739 -1.6758
19324TIP3   OH279386   5.855   3.987   2.255 -0.0667  0.2234 -0.4072
19324TIP3    H179387   5.812   4.051   2.198 -0.3814  0.6787  0.3221
19324TIP3    H279388   5.788   3.919   2.269 -0.8392  1.2783  1.2917
19325TIP3   OH279389   2.183   1.874   2.586  0.3375  0.3080 -0.3335
19325TIP3    H179390   2.215   1.846   2.500  0.3463 -1.2102  0.1307
19325TIP3    H279391   2.198   1.798   2.643  0.4605  1.3346  1.0496
19326TIP3   OH279392   2.032   4.129   5.732  0.3587  0.4163 -0.0326
19326TIP3    H179393   1.991   4.059   5.782 -0.9739  0.2381 -1.3015
19326TIP3    H279394   1.975   4.205   5.746  1.0474  0.8931  0.2565
19327TIP3   OH279395   2.594   3.207   2.890  0.1974 -0.1996 -0.0640
19327TIP3    H179396   2.558   3.189   2.803  1.1498  1.5438 -0.8734
19327TIP3    H279397   2.518   3.228   2.944 -0.3259 -0.4451 -0.6932
19328TIP3   OH279398   0.353   1.943   1.909  0.5240 -0.3195 -1.4988
19328TIP3    H179399   0.389   1.864   1.868 -0.1464 -0.7698 -1.2401
19328TIP3    H279400   0.377   1.935   2.001 -1.4232 -1.3520 -1.0337
19329TIP3   OH279401   2.853   1.751  10.627 -0.1871 -0.4596 -0.0898
19329TIP3    H179402   2.869   1.840  10.660  0.4666 -0.1331 -1.2079
19329TIP3    H279403   2.776   1.721  10.675 -1.2244  1.2186 -0.5954
19330TIP3   OH279404   4.691   4.253  16.492  0.7059  0.5330  0.0308
19330TIP3    H179405   4.707   4.197  16.568  0.9712  2.5872  1.5781
19330TIP3    H279406   4.694   4.342  16.527 -1.1315  1.4963 -2.0425
19331TIP3   OH279407   5.557   5.212  11.724  0.3246  0.4490  0.2484
19331TIP3    H179408   5.485   5.261  11.763  0.3709  0.5659  0.1909
19331TIP3    H279409   5.626   5.213  11.791  0.4149  0.6740  0.1567
19332TIP3   OH279410   2.214   5.662   3.723 -0.0624  0.3897 -0.4659
19332TIP3    H179411   2.278   5.702   3.783 -0.8878  2.7389 -1.0260
19332TIP3    H279412   2.159   5.608   3.779 -0.2796  1.8345  0.8146
19333TIP3   OH279413   3.857   3.878   4.664 -0.2356 -0.8734 -0.2117
19333TIP3    H179414   3.850   3.973   4.663  3.6989 -0.4009 -0.9976
19333TIP3    H279415   3.797   3.848   4.595 -1.7984  0.9566  0.2885
19334TIP3   OH279416   2.510   6.016  12.504 -0.3596  0.0235  0.8422
19334TIP3    H179417   2.594   6.049  12.473 -0.3537 -1.0196 -0.3461
19334TIP3    H279418   2.451   6.027  12.429 -0.7242 -1.2100  0.9239
19335TIP3   OH279419   2.159   1.184  14.956  0.1059 -0.4776  0.1878
19335TIP3    H179420   2.103   1.247  15.000  0.5919 -1.4008  2.2497
19335TIP3    H279421   2.145   1.201  14.862 -0.7207  1.7880  0.6545
19336TIP3   OH279422   5.064   1.704   6.567  0.1432  0.1325  0.0455
19336TIP3    H179423   5.158   1.686   6.562  0.3678  1.3415 -0.6004
19336TIP3    H279424   5.027   1.629   6.614  1.6903  0.6034  2.1511
19337TIP3   OH279425   0.903   2.495   0.653  0.1445  0.0866  0.3571
19337TIP3    H179426   0.977   2.480   0.594 -0.4942 -2.2319  0.0725
19337TIP3    H279427   0.911   2.587   0.678  3.0139 -0.0430  0.2118
19338TIP3   OH279428   5.894   4.289   2.285 -0.2580 -0.4050 -0.4251
19338TIP3    H179429   5.892   4.203   2.327 -1.0639 -0.2704 -0.1821
19338TIP3    H279430   5.986   4.316   2.291 -0.0739 -1.0696 -0.1488
19339TIP3   OH279431   0.608   4.903  14.786  0.5981  0.2881 -0.3411
19339TIP3    H179432   0.543   4.972  14.800  0.0307 -0.1381 -0.7915
19339TIP3    H279433   0.587   4.867  14.700  0.5729 -0.7525  0.0762
19340TIP3   OH279434   0.916   2.648  14.901  0.5421  0.1644 -0.3060
19340TIP3    H179435   0.826   2.627  14.879 -0.3250  0.3059  2.6663
19340TIP3    H279436   0.917   2.743  14.910  0.0842 -0.0158  2.6787
19341TIP3   OH279437   0.342   4.278   1.452 -0.1169 -0.3909 -0.4945
19341TIP3    H179438   0.416   4.338   1.437  1.2190 -1.7087  0.4869
19341TIP3    H279439   0.377   4.191   1.433 -1.4743 -1.0437 -0.1447
19342TIP3   OH279440   2.800   6.040  14.073  0.4809  0.2063 -0.0879
19342TIP3    H179441   2.810   5.975  14.142 -1.1073  0.1605  0.1356
19342TIP3    H279442   2.726   6.094  14.100 -0.4917 -0.0918 -1.9155
19343TIP3   OH279443   3.445   4.465   4.790 -0.5560 -0.0166  0.5020
19343TIP3    H179444   3.418   4.404   4.722 -0.6276 -0.4531  0.9124
19343TIP3    H279445   3.380   4.453   4.860  0.6120 -1.0279  1.4698
19344TIP3   OH279446   3.032   6.228   6.279 -0.7516 -0.1494 -0.6787
19344TIP3    H179447   2.970   6.167   6.239 -0.2430 -1.2900  0.1950
19344TIP3    H279448   3.032   6.204   6.372 -2.9350  3.2536  0.4076
19345TIP3   OH279449   3.840   1.716   5.667  0.0414  0.1228 -0.4412
19345TIP3    H179450   3.822   1.761   5.750  0.3500 -0.1736 -0.2071
19345TIP3    H279451   3.912   1.655   5.688 -0.2706 -0.3743 -0.7850
19346TIP3   OH279452   2.546   6.210   4.880  0.0362  0.0267 -0.4864
19346TIP3    H179453   2.606   6.278   4.849 -0.2843  0.3162 -0.4823
19346TIP3    H279454   2.466   6.258   4.904 -0.0626 -0.3081 -0.1346
19347TIP3   OH279455   0.233   6.764   1.404 -0.2291 -0.2765 -0.2016
19347TIP3    H179456   0.296   6.833   1.424 -1.1890  0.3390  0.8218
19347TIP3    H279457   0.285   6.683   1.402  0.6292  0.2465  0.3433
19348TIP3   OH279458   2.426   6.544   2.848 -0.3791  0.1603 -0.3723
19348TIP3    H179459   2.367   6.602   2.799 -0.4521 -0.7198 -1.3637
19348TIP3    H279460   2.409   6.457   2.812  0.5564 -0.3106  0.2891
19349TIP3   OH279461   4.303   1.634   1.713  0.1208 -0.1063 -0.0443
19349TIP3    H179462   4.252   1.692   1.769  0.9455 -0.1972  0.8091
19349TIP3    H279463   4.388   1.626   1.756  1.0215  0.3551 -1.6351
19350TIP3   OH279464   0.551   1.635  12.064 -0.2514  0.2475  0.2412
19350TIP3    H179465   0.530   1.663  11.974  1.7147 -1.9327 -1.0128
19350TIP3    H279466   0.644   1.656  12.074  0.5074 -2.7627  0.3547
19351TIP3   OH279467   1.876   2.016  11.783 -0.0074 -0.3973 -0.2950
19351TIP3    H179468   1.970   2.028  11.775  0.0157 -0.4859 -0.1674
19351TIP3    H279469   1.841   2.105  11.789  0.2886 -0.3656  1.9596
19352TIP3   OH279470   2.452   4.355   0.399  0.5990 -0.2512 -0.5061
19352TIP3    H179471   2.383   4.317   0.345 -1.1293 -0.1680  1.5011
19352TIP3    H279472   2.515   4.284   0.412  0.0090 -0.8594 -0.9560
19353TIP3   OH279473   2.502   2.423   0.412  0.6359 -0.3181  0.0387
19353TIP3    H179474   2.451   2.472   0.347  1.0678  1.4940  0.9752
19353TIP3    H279475   2.592   2.455   0.401  0.7580 -0.1751  1.3166
19354TIP3   OH279476   4.558   3.759   4.696 -0.6527 -0.2693  0.2235
19354TIP3    H179477   4.632   3.759   4.756  0.2454 -3.6264 -0.6820
19354TIP3    H279478   4.484   3.731   4.750 -0.6473  0.2428  0.5046
19355TIP3   OH279479   3.874   0.708   3.477  0.5196 -0.0454 -0.9601
19355TIP3    H179480   3.848   0.770   3.409  0.2340  0.1498 -0.6806
19355TIP3    H279481   3.850   0.752   3.559 -2.1305 -1.5637 -0.7994
19356TIP3   OH279482   0.943   0.393   3.956 -0.7043 -0.0847  0.0320
19356TIP3    H179483   0.849   0.395   3.968 -0.7434 -0.1399 -0.2599
19356TIP3    H279484   0.973   0.479   3.986 -0.9452  0.2535 -0.6648
19357TIP3   OH279485   3.965   2.924  13.556  0.3478  0.0187  0.3139
19357TIP3    H179486   3.891   2.875  13.520  1.3740 -1.2799 -0.1219
19357TIP3    H279487   3.943   2.937  13.649  0.1673 -1.5522  0.5104
19358TIP3   OH279488   3.903   2.400  16.641 -0.0498  0.5434  0.1402
19358TIP3    H179489   3.929   2.458  16.569 -1.0000 -2.3284 -2.7426
19358TIP3    H279490   3.807   2.400  16.639 -0.0910 -1.5584 -0.4295
19359TIP3   OH279491   5.820   5.468  13.930  0.5692  0.2450 -0.3487
19359TIP3    H179492   5.783   5.538  13.876 -1.3422 -0.5906 -0.2111
19359TIP3    H279493   5.911   5.495  13.945  0.6470  1.3589 -2.4821
19360TIP3   OH279494   4.472   3.496  16.349  0.7214  0.1170 -0.9867
19360TIP3    H179495   4.438   3.570  16.299 -0.5262  0.4474  0.2858
19360TIP3    H279496   4.458   3.420  16.294  1.9683  0.7777 -2.2950
19361TIP3   OH279497   1.170   0.208  11.702  0.0560  0.3074 -0.0519
19361TIP3    H179498   1.079   0.189  11.680  0.5435 -0.9821 -1.1441
19361TIP3    H279499   1.216   0.202  11.618  1.4328 -0.9974  0.7527
19362TIP3   OH279500   1.147   0.101  12.383 -0.2951 -0.5071  0.3724
19362TIP3    H179501   1.139   0.016  12.426  0.9458  0.4241  2.6235
19362TIP3    H279502   1.207   0.086  12.310 -0.5594 -1.6780  0.3839
19363TIP3   OH279503   3.777   1.590  11.493  0.0882 -0.7457  0.4191
19363TIP3    H179504   3.784   1.499  11.465 -1.4428 -0.7091 -0.1617
19363TIP3    H279505   3.816   1.591  11.581  0.7489 -1.8042  0.1510
19364TIP3   OH279506   6.355   3.928  11.342 -0.4142  0.4399 -0.1052
19364TIP3    H179507   6.260   3.934  11.334 -0.3541 -0.2782 -1.7189
19364TIP3    H279508   6.371   3.932  11.437 -1.8010  3.4984  0.1041
19365TIP3   OH279509   5.664   0.656   5.472 -0.2108 -0.1450  0.5789
19365TIP3    H179510   5.710   0.729   5.430  0.9987 -0.6051  1.0583
19365TIP3    H279511   5.725   0.625   5.539  0.6371 -3.4598 -1.5005
19366TIP3   OH279512   3.271   6.265   4.542 -0.2113 -0.0258 -0.0225
19366TIP3    H179513   3.262   6.179   4.501 -0.2873  0.2281 -0.5613
19366TIP3    H279514   3.333   6.311   4.486 -0.1857  0.2756  0.2513
19367TIP3   OH279515   3.795   6.482  13.609 -0.2110 -0.4303  0.1234
19367TIP3    H179516   3.707   6.496  13.575 -0.1423  2.3799  0.8791
19367TIP3    H279517   3.854   6.503  13.536 -0.1600 -0.1649  0.2371
19368TIP3   OH279518   1.992   5.655   2.913  0.6076 -0.6757  0.3385
19368TIP3    H179519   1.981   5.588   2.845  1.0307 -0.1220 -0.2846
19368TIP3    H279520   2.053   5.616   2.975  1.7334 -0.4605 -0.5946
19369TIP3   OH279521   0.489   0.349   1.059  0.3387  0.7281 -0.6713
19369TIP3    H179522   0.472   0.257   1.038 -0.7098  0.2372  1.9783
19369TIP3    H279523   0.559   0.346   1.124  0.6086  1.8538 -0.8936
19370TIP3   OH279524   6.446   6.400   0.763 -0.2982  0.2648  0.1537
19370TIP3    H179525   6.351   6.407   0.750 -0.0514  1.2256 -1.4545
19370TIP3    H279526   6.467   6.474   0.821 -0.4999  0.1696  0.3510
19371TIP3   OH279527   2.043   3.779   5.118 -0.0550 -0.0631  0.0193
19371TIP3    H179528   2.078   3.690   5.126 -1.7568 -0.7866 -0.0893
19371TIP3    H279529   1.995   3.793   5.199  1.8904  1.5921  0.9473
19372TIP3   OH279530   4.965   1.511   3.380 -0.1145  0.3604 -0.2324
19372TIP3    H179531   4.906   1.563   3.434 -1.1699  0.4826 -1.4617
19372TIP3    H279532   4.992   1.570   3.310  1.6226  0.3523  0.3847
19373TIP3   OH279533   6.561   1.727  13.995 -0.0278 -0.1301  0.1988
19373TIP3    H179534   6.576   1.655  14.056 -0.5048 -0.7182 -0.3627
19373TIP3    H279535   6.476   1.707  13.955 -0.9550  1.6037  1.2113
19374TIP3   OH279536   5.416   0.432  15.500 -0.3312  0.5171 -0.4911
19374TIP3    H179537   5.469   0.353  15.492 -1.7502 -0.4153 -1.0458
19374TIP3    H279538   5.326   0.402  15.491 -0.9644  2.0913  0.1533
19375TIP3   OH279539   0.483   1.970  13.615 -0.1209  0.0679 -0.2927
19375TIP3    H179540   0.476   1.920  13.696  1.7120  1.0797  0.5480
19375TIP3    H279541   0.481   2.062  13.643  0.3173  0.4355 -1.4072
19376TIP3   OH279542   4.986   6.572  13.015  0.0962 -0.4077 -0.5999
19376TIP3    H179543   5.037   6.497  13.046  0.0019 -1.0445 -1.8883
19376TIP3    H279544   4.896   6.551  13.038  0.1913 -0.2096 -0.0528
19377TIP3   OH279545   1.031   4.736  16.706 -0.1176  0.4469 -0.1928
19377TIP3    H179546   1.080   4.660  16.675 -0.2031  0.4544 -0.3500
19377TIP3    H279547   0.989   4.707  16.786  1.1009  0.7965  0.6032
19378TIP3   OH279548   1.464   4.731   4.025 -0.5177 -0.1044  0.7598
19378TIP3    H179549   1.534   4.784   4.063 -0.5003 -0.0577  0.6632
19378TIP3    H279550   1.385   4.759   4.070 -0.5196  0.0571  0.6551
19379TIP3   OH279551   6.054   3.191  15.216 -0.3065  0.4252 -0.1997
19379TIP3    H179552   6.077   3.162  15.128  2.2943  2.2101 -0.2057
19379TIP3    H279553   6.109   3.137  15.273 -1.0729  0.1384  0.2851
19380TIP3   OH279554   6.258   4.080   4.908 -0.1322 -0.3708 -0.0709
19380TIP3    H179555   6.291   4.016   4.844  1.3928  0.6618 -0.3665
19380TIP3    H279556   6.201   4.137   4.858  1.6224  0.8801 -0.7616
19381TIP3   OH279557   4.396   1.797   5.427 -0.5022 -0.9653 -0.0570
19381TIP3    H179558   4.383   1.793   5.333  2.1406 -0.8299 -0.4861
19381TIP3    H279559   4.368   1.711   5.459  1.8082 -2.3429 -1.4836
19382TIP3   OH279560   2.511   2.611   5.065 -0.1228 -0.0109  0.4047
19382TIP3    H179561   2.462   2.614   4.982  1.1028  1.0856 -0.3237
19382TIP3    H279562   2.509   2.701   5.097  0.4540 -0.1815  0.9414
19383TIP3   OH279563   2.544   0.985  13.026 -0.2887 -0.0526 -0.4308
19383TIP3    H179564   2.620   1.041  13.041  0.1022 -0.0597 -2.1543
19383TIP3    H279565   2.479   1.044  12.987 -1.3502  0.0365  1.3375
19384TIP3   OH279566   6.101   3.838  16.427 -0.0988  0.5640 -0.2280
19384TIP3    H179567   6.120   3.843  16.333  2.0194 -1.8726 -0.0420
19384TIP3    H279568   6.041   3.911  16.443 -1.3501  0.4735 -3.6261
19385TIP3   OH279569   4.279   0.828   0.505 -0.2299  0.0092  0.3463
19385TIP3    H179570   4.186   0.804   0.507 -0.2438 -0.0464 -0.5069
19385TIP3    H279571   4.320   0.758   0.454 -0.1246  1.2716 -1.4065
19386TIP3   OH279572   3.488   5.616   1.482 -0.2855  0.1461  0.1522
19386TIP3    H179573   3.446   5.692   1.521  0.5667  0.7826 -0.1311
19386TIP3    H279574   3.484   5.631   1.388 -2.8568 -1.6629 -0.1413
19387TIP3   OH279575   1.857   6.355  11.558  0.3517  0.2195 -0.1436
19387TIP3    H179576   1.771   6.346  11.598  0.4089 -0.2765 -0.1297
19387TIP3    H279577   1.839   6.372  11.466  0.2346  0.5709 -0.0604
19388TIP3   OH279578   1.937   1.698  13.900  0.3463  0.6208  0.1588
19388TIP3    H179579   1.857   1.746  13.878  0.6232  0.2250 -1.8214
19388TIP3    H279580   1.910   1.607  13.906  0.0394  0.7847  2.8788
19389TIP3   OH279581   3.584   2.487   4.465  0.1650 -0.3088 -0.4457
19389TIP3    H179582   3.513   2.543   4.435 -2.4579 -1.4791  2.9379
19389TIP3    H279583   3.544   2.430   4.531  3.6678 -3.0144 -0.3180
19390TIP3   OH279584   6.081   3.265  14.665  0.4563  0.2170  0.0064
19390TIP3    H179585   6.048   3.355  14.667  1.9322  0.7696  0.5717
19390TIP3    H279586   6.007   3.214  14.632  0.2537  1.9076 -2.4443
19391TIP3   OH279587   2.442   3.346   3.894 -0.0509 -0.0952  0.1028
19391TIP3    H179588   2.533   3.354   3.922 -0.4830  1.5400  1.1454
19391TIP3    H279589   2.446   3.354   3.798  0.7529  1.8690  0.2486
19392TIP3   OH279590   4.244   3.973  12.997 -0.0558 -0.1033  0.5231
19392TIP3    H179591   4.318   3.997  13.052 -1.5463  1.1802  2.1083
19392TIP3    H279592   4.278   3.973  12.908  1.4187  2.4878  0.9852
19393TIP3   OH279593   0.536   6.334   0.092  0.4607 -0.1737 -0.2778
19393TIP3    H179594   0.466   6.374   0.040  1.4848  0.8460 -0.9220
19393TIP3    H279595   0.497   6.320   0.178 -0.4805  0.5858 -0.5593
19394TIP3   OH279596   5.928   6.415  16.778  0.3964 -0.1199  0.9524
19394TIP3    H179597   5.977   6.496  16.766  1.3110 -0.6030  1.3383
19394TIP3    H279598   5.894   6.419  16.867 -1.3411  0.7631  0.3009
19395TIP3   OH279599   1.521   6.789  13.557 -0.0058  0.0608  0.4678
19395TIP3    H179600   1.573   6.814  13.481 -0.8186  1.0570  0.2228
19395TIP3    H279601   1.502   6.696  13.543  2.4745 -0.6205  1.0452
19396TIP3   OH279602   3.505   2.696   0.521  0.3670 -0.2696  0.7535
19396TIP3    H179603   3.537   2.629   0.460  1.1484 -0.9715  1.9046
19396TIP3    H279604   3.552   2.679   0.602 -0.0406  1.1771  1.3164
19397TIP3   OH279605   4.561   3.889  16.879 -0.5106 -0.3340  0.1848
19397TIP3    H179606   4.589   3.980  16.893 -1.0901 -0.3500  1.6773
19397TIP3    H279607   4.590   3.868  16.791 -2.4976  2.0854 -1.1684
19398TIP3   OH279608   0.773   6.679  14.590 -0.0889 -0.3557 -0.0348
19398TIP3    H179609   0.865   6.655  14.587  0.0254 -0.0027  0.4003
19398TIP3    H279610   0.753   6.682  14.684 -0.2615  0.5906 -0.0954
19399TIP3   OH279611   1.673   1.827  10.631  0.2745 -0.1182 -0.3280
19399TIP3    H179612   1.644   1.739  10.658  0.9123 -0.4958 -0.8539
19399TIP3    H279613   1.612   1.852  10.562 -0.8148  0.4821  0.7934
19400TIP3   OH279614   2.123   5.158   2.010  0.2909  0.1528 -0.3571
19400TIP3    H179615   2.115   5.246   2.046  1.9182  0.2648 -0.1893
19400TIP3    H279616   2.033   5.128   1.998 -0.3075  1.0027  1.6217
19401TIP3   OH279617   4.389   6.253  15.136  0.2261  0.6456 -0.3344
19401TIP3    H179618   4.436   6.248  15.219  0.3506 -1.4684 -0.4704
19401TIP3    H279619   4.429   6.184  15.082 -3.1616 -1.5896 -0.3010
19402TIP3   OH279620   1.907   3.009  15.499 -0.1073  0.3558 -0.1003
19402TIP3    H179621   2.000   2.989  15.500 -0.1520  0.1736  1.2093
19402TIP3    H279622   1.897   3.072  15.427  1.0539  0.5398 -0.1136
19403TIP3   OH279623   1.257   5.375  15.615 -0.7326 -0.3699  0.4337
19403TIP3    H179624   1.277   5.465  15.641 -3.6390  0.1063  1.3966
19403TIP3    H279625   1.286   5.321  15.688  0.9043 -0.2586 -0.0947
19404TIP3   OH279626   2.596   1.588   4.570 -0.0368 -0.0949  0.2899
19404TIP3    H179627   2.633   1.500   4.560 -1.4763 -0.6581 -0.4652
19404TIP3    H279628   2.601   1.626   4.483  0.0350  0.3464  0.4853
19405TIP3   OH279629   4.672   2.664  13.225 -0.1723 -0.1668 -0.1661
19405TIP3    H179630   4.722   2.635  13.148 -0.0927 -0.3863 -0.0322
19405TIP3    H279631   4.735   2.660  13.297  0.3224  1.9004 -0.4124
19406TIP3   OH279632   1.273   1.115   0.253 -0.2550 -0.7518 -0.1270
19406TIP3    H179633   1.360   1.132   0.288 -0.9590 -0.3858  1.5499
19406TIP3    H279634   1.265   1.174   0.179  0.2167  0.6559  0.9035
19407TIP3   OH279635   0.453   0.482  16.080  0.4104  0.4102 -0.1723
19407TIP3    H179636   0.465   0.457  15.988 -1.1427  1.3996 -0.6911
19407TIP3    H279637   0.537   0.461  16.122  1.6550  1.2240 -2.1112
19408TIP3   OH279638   0.531   6.679   3.546 -0.3744  0.1278 -0.0400
19408TIP3    H179639   0.621   6.645   3.548 -0.2914  0.3738  0.9902
19408TIP3    H279640   0.476   6.601   3.551 -0.2412 -0.0517 -1.0512
19409TIP3   OH279641   6.551   6.295  12.632 -0.1156  0.5614  0.2478
19409TIP3    H179642   6.581   6.306  12.723  0.1367  0.2235  0.2091
19409TIP3    H279643   6.484   6.226  12.637  2.2680 -1.9897 -0.2518
19410TIP3   OH279644   0.804   6.129   6.205  0.5906  0.7035  0.2623
19410TIP3    H179645   0.856   6.052   6.178  0.5762  1.0305 -0.7070
19410TIP3    H279646   0.733   6.133   6.142  0.0218  0.9430  0.9115
19411TIP3   OH279647   3.245   4.693  16.458 -0.4136 -0.0438  0.4499
19411TIP3    H179648   3.222   4.752  16.387 -1.1259  0.7317  1.2962
19411TIP3    H279649   3.275   4.613  16.415  3.3556  1.8379 -0.8315
19412TIP3   OH279650   0.466   5.387   4.699  0.2380  0.0153  0.1637
19412TIP3    H179651   0.418   5.348   4.626  0.5967  1.8837 -1.1643
19412TIP3    H279652   0.400   5.433   4.751 -0.2877 -2.7104  2.1074
19413TIP3   OH279653   0.740   6.745   3.333 -0.1535  0.3766  0.2689
19413TIP3    H179654   0.772   6.812   3.393  2.3479  0.1072 -0.6415
19413TIP3    H279655   0.790   6.760   3.253 -2.0837 -0.4151 -1.1627
19414TIP3   OH279656   5.839   2.856   1.054 -1.0499  0.2188  0.2410
19414TIP3    H179657   5.918   2.906   1.034 -1.6661  1.6075  1.1053
19414TIP3    H279658   5.773   2.892   0.996 -0.8346 -1.7499 -1.3307
19415TIP3   OH279659   2.478   1.764  12.186  0.2973 -0.0969  0.0773
19415TIP3    H179660   2.412   1.812  12.237  0.3724 -0.3837  0.4501
19415TIP3    H279661   2.554   1.821  12.186 -0.8008  1.5664 -2.7619
19416TIP3   OH279662   0.622   6.266   1.358 -0.0553 -0.1046 -0.2946
19416TIP3    H179663   0.608   6.239   1.449 -1.5484 -0.6390 -0.6641
19416TIP3    H279664   0.690   6.208   1.326  0.3691 -0.0214  0.4293
19417TIP3   OH279665   3.082   5.586   4.701 -0.3278 -0.0136 -0.4853
19417TIP3    H179666   3.073   5.681   4.690 -0.8700 -0.1540 -1.4354
19417TIP3    H279667   3.099   5.554   4.612 -1.1216 -0.9001 -0.3321
19418TIP3   OH279668   5.451   5.917  14.320  0.2651 -0.3000 -0.7273
19418TIP3    H179669   5.371   5.894  14.273 -0.7873  0.7652  0.4793
19418TIP3    H279670   5.462   6.011  14.304 -0.4927  0.2557  1.5765
19419TIP3   OH279671   6.076   4.253  11.620 -0.5992 -0.3179  0.0707
19419TIP3    H179672   6.070   4.327  11.559 -2.7817  0.1295  0.7369
19419TIP3    H279673   5.997   4.260  11.674  0.7030 -1.3292  2.2432
19420TIP3   OH279674   4.439   4.739   0.505 -0.1733 -0.1890 -0.0328
19420TIP3    H179675   4.528   4.771   0.513 -0.4149  0.4740  0.0401
19420TIP3    H279676   4.390   4.812   0.467 -0.9949 -0.0025  1.3382
19421TIP3   OH279677   0.911   2.772   4.865  0.3428 -0.4636  0.3575
19421TIP3    H179678   0.879   2.774   4.775 -0.9612  1.5224  0.7911
19421TIP3    H279679   0.998   2.811   4.861  0.5633 -0.9798 -0.0977
19422TIP3   OH279680   1.719   3.350   0.059  0.2682  0.0228  0.4264
19422TIP3    H179681   1.773   3.290   0.111  0.6037 -0.2660 -0.2299
19422TIP3    H279682   1.771   3.430   0.053  0.9817 -0.4909 -0.7926
19423TIP3   OH279683   5.362   0.085   0.104  0.3372 -0.2712 -0.0253
19423TIP3    H179684   5.458   0.092   0.103  0.3232  1.1321  2.3997
19423TIP3    H279685   5.340   0.057   0.015  3.0592 -1.8237 -0.3427
19424TIP3   OH279686   5.168   2.125  11.890 -0.1302 -0.0011  0.2840
19424TIP3    H179687   5.118   2.129  11.809 -1.1229 -0.7632  0.8369
19424TIP3    H279688   5.102   2.110  11.958  0.8029 -0.5882  1.0885
19425TIP3   OH279689   5.958   0.966   4.350  0.8596 -0.1222 -0.4490
19425TIP3    H179690   6.001   0.881   4.361 -0.8961 -0.9337  0.7163
19425TIP3    H279691   5.908   0.957   4.269  1.6554  0.2813 -0.9992
19426TIP3   OH279692   1.788   1.966  17.079 -0.4356 -0.1894 -0.1190
19426TIP3    H179693   1.729   1.892  17.090  0.0520 -0.5171  0.2857
19426TIP3    H279694   1.792   1.979  16.984 -0.4511 -0.7398 -0.1962
19427TIP3   OH279695   4.189   3.507   5.466  0.1164 -0.0909 -0.2218
19427TIP3    H179696   4.127   3.510   5.538 -0.0782  0.9314 -0.4181
19427TIP3    H279697   4.264   3.558   5.496  0.6364 -0.8559 -0.1978
19428TIP3   OH279698   5.574   0.163  10.714  0.3605  0.7608 -0.1290
19428TIP3    H179699   5.511   0.196  10.778 -0.7381  2.1177 -1.8385
19428TIP3    H279700   5.627   0.239  10.690  1.0004  0.1927 -0.5724
19429TIP3   OH279701   2.356   0.473   3.888 -0.2359  0.0450 -0.8682
19429TIP3    H179702   2.442   0.500   3.919  0.2619 -1.7042 -0.6387
19429TIP3    H279703   2.335   0.536   3.819  0.8263  1.0198 -0.3364
19430TIP3   OH279704   1.036   4.909  15.841  0.1639  0.0018  0.3661
19430TIP3    H179705   1.104   4.907  15.774 -0.2151  0.5860 -0.0509
19430TIP3    H279706   0.960   4.947  15.797 -0.2380 -0.0489  0.9982
19431TIP3   OH279707   4.891   0.486   5.469  0.4370 -0.1066 -0.1554
19431TIP3    H179708   4.796   0.480   5.481  0.4918  1.5974  1.6634
19431TIP3    H279709   4.927   0.442   5.547  1.3100 -3.4321 -2.2166
19432TIP3   OH279710   3.025   6.100  16.109  0.4069 -0.2937 -0.0956
19432TIP3    H179711   3.105   6.148  16.088  0.4465  0.5666  1.7667
19432TIP3    H279712   2.965   6.121  16.037  1.0793  1.0183 -0.3149
19433TIP3   OH279713   2.503   4.387  12.369  0.0948 -0.3635 -0.2668
19433TIP3    H179714   2.517   4.383  12.274 -1.0312  1.4080 -0.5620
19433TIP3    H279715   2.577   4.439  12.402  2.1675 -3.4106  0.3426
19434TIP3   OH279716   0.524   6.738   4.761 -0.3729  0.1944  0.2479
19434TIP3    H179717   0.540   6.801   4.691 -0.1924  0.8433  0.8713
19434TIP3    H279718   0.531   6.653   4.717  1.0379  0.5485 -0.2716
19435TIP3   OH279719   5.011   2.918  12.945  0.3959 -0.0169  0.3644
19435TIP3    H179720   4.981   2.828  12.935 -0.4013  0.1229  1.3467
19435TIP3    H279721   5.102   2.916  12.914 -0.0104 -0.8624 -0.8522
19436TIP3   OH279722   2.567   4.388   4.660  0.0229  0.5367  0.1131
19436TIP3    H179723   2.620   4.350   4.589  0.5666  1.0794  0.2198
19436TIP3    H279724   2.611   4.360   4.740 -0.2950  0.3534  0.2228
19437TIP3   OH279725   3.293   3.040  12.257  0.3405  0.0478  0.3897
19437TIP3    H179726   3.316   3.014  12.168  0.5854  0.5849  0.2943
19437TIP3    H279727   3.374   3.074  12.294  0.0538  0.5535  0.5559
19438TIP3   OH279728   5.470   1.234   5.741  0.0026 -0.5938 -0.5504
19438TIP3    H179729   5.504   1.224   5.830 -0.8185 -1.8081 -0.3483
19438TIP3    H279730   5.459   1.329   5.730 -0.2915 -0.4553  0.8057
19439TIP3   OH279731   4.355   2.154  12.676  0.1054  0.1459 -0.6954
19439TIP3    H179732   4.396   2.202  12.604 -1.1896  0.2143 -1.4164
19439TIP3    H279733   4.379   2.204  12.754  1.4692  0.1093 -1.0518
19440TIP3   OH279734   5.615   2.373   0.629  0.5555  0.0152 -0.5252
19440TIP3    H179735   5.647   2.309   0.564  1.5282 -0.1470  0.0933
19440TIP3    H279736   5.558   2.431   0.579  0.5196 -0.6904 -1.3311
19441TIP3   OH279737   5.110   0.195   1.041 -0.2070 -0.0811 -0.1582
19441TIP3    H179738   5.057   0.249   1.100 -2.4060 -0.5000 -1.5882
19441TIP3    H279739   5.056   0.188   0.962  2.0624 -0.5465 -1.7580
19442TIP3   OH279740   5.267   0.498   2.783 -0.6639 -0.4428  0.5258
19442TIP3    H179741   5.294   0.490   2.874 -2.8757 -2.2693  1.1265
19442TIP3    H279742   5.173   0.479   2.784 -0.5834 -1.5223 -2.2430
19443TIP3   OH279743   5.831   0.671  12.934 -0.3735 -0.0751 -0.0025
19443TIP3    H179744   5.738   0.689  12.944 -0.5545 -0.6188 -0.6729
19443TIP3    H279745   5.858   0.722  12.858  0.4769  2.1426  1.6577
19444TIP3   OH279746   4.028   1.113  16.513  0.0334  0.1122  0.4052
19444TIP3    H179747   4.059   1.097  16.424 -0.2882  0.0982  0.2948
19444TIP3    H279748   4.107   1.134  16.563  0.0860  1.2175 -0.1245
19445TIP3   OH279749   1.949   3.632  16.706 -0.4129 -0.2119 -0.2941
19445TIP3    H179750   1.906   3.572  16.644  0.6505 -1.0899 -0.2100
19445TIP3    H279751   1.882   3.697  16.727 -1.4880 -1.1768 -0.6544
19446TIP3   OH279752   5.909   5.398  15.367  0.0567  0.5699  0.0563
19446TIP3    H179753   5.840   5.365  15.309  0.8288 -0.5124 -0.2638
19446TIP3    H279754   5.861   5.435  15.441 -0.8549 -1.4382  0.5177
19447TIP3   OH279755   4.414   4.032   2.119 -0.6629 -0.4390  0.2426
19447TIP3    H179756   4.456   4.068   2.041 -0.3914 -1.5624 -0.1496
19447TIP3    H279757   4.327   4.073   2.120  0.6307  2.5356  1.5104
19448TIP3   OH279758   2.395   6.503  15.670 -0.1477  0.3642  0.1577
19448TIP3    H179759   2.457   6.561  15.714 -0.9559 -0.4865  2.5837
19448TIP3    H279760   2.339   6.470  15.740 -1.3915 -1.2963 -1.5122
19449TIP3   OH279761   1.307   3.397  11.019 -0.3151 -0.0170 -0.0037
19449TIP3    H179762   1.347   3.349  10.946 -0.0923  1.0728 -0.6228
19449TIP3    H279763   1.219   3.417  10.988  0.3671  2.0387 -0.7683
19450TIP3   OH279764   2.713   3.638  11.842 -0.1387 -0.1393  0.4188
19450TIP3    H179765   2.645   3.629  11.908  0.0377 -0.8820  0.5123
19450TIP3    H279766   2.742   3.548  11.825  1.8195  0.2391  1.4182
19451TIP3   OH279767   3.606   6.303   0.879 -0.0994 -0.0946  0.1211
19451TIP3    H179768   3.598   6.361   0.803 -1.6917 -1.3193 -0.6897
19451TIP3    H279769   3.585   6.216   0.845 -0.3466 -0.7415  1.8573
19452TIP3   OH279770   0.529   3.896   0.749  0.0171 -0.5216 -0.0562
19452TIP3    H179771   0.558   3.967   0.691 -1.3570  0.0604 -0.0594
19452TIP3    H279772   0.595   3.893   0.818 -0.8467  2.0451  0.9941
19453TIP3   OH279773   5.595   6.391  13.197  0.0095  0.0153 -0.2029
19453TIP3    H179774   5.584   6.300  13.225  0.0334  0.1301  0.1841
19453TIP3    H279775   5.589   6.387  13.102 -1.3581 -0.2094 -0.1260
19454TIP3   OH279776   2.241   0.094  15.435 -0.2176 -0.0605  0.4697
19454TIP3    H179777   2.216   0.002  15.443  1.2550 -0.7258 -1.7259
19454TIP3    H279778   2.312   0.105  15.499 -1.6211  0.1118  2.0700
19455TIP3   OH279779   0.812   4.995   5.393 -0.3224 -0.6070  0.0582
19455TIP3    H179780   0.761   4.919   5.419 -0.4836 -0.2386  0.8450
19455TIP3    H279781   0.860   5.021   5.472  0.0047 -0.1064 -0.2948
19456TIP3   OH279782   3.483   6.646  13.842 -0.4768  0.0670 -0.3375
19456TIP3    H179783   3.437   6.637  13.926  0.3222  2.2554  0.4193
19456TIP3    H279784   3.536   6.566  13.835 -1.3702 -0.6475  0.7185
19457TIP3   OH279785   1.048   4.934   3.653 -0.0956 -0.4806 -0.2610
19457TIP3    H179786   1.009   4.944   3.740 -1.5314 -4.7252 -0.1494
19457TIP3    H279787   0.985   4.976   3.594  0.3045  1.3986  0.5636
19458TIP3   OH279788   0.716   6.455   1.180 -0.0473  0.5162  0.0267
19458TIP3    H179789   0.671   6.455   1.096  0.0381  0.1216 -0.0216
19458TIP3    H279790   0.670   6.389   1.232  1.5369 -1.2081 -0.6216
19459TIP3   OH279791   5.877   6.473  11.319  0.1428 -0.5214  0.2220
19459TIP3    H179792   5.805   6.505  11.374  0.5456 -1.1632  1.1661
19459TIP3    H279793   5.835   6.428  11.247 -0.4026  0.1233  0.1296
19460TIP3   OH279794   1.944   1.245  14.427  0.1202 -0.0837  0.4776
19460TIP3    H179795   1.977   1.159  14.401  0.0784  0.0014  0.1342
19460TIP3    H279796   1.857   1.250  14.389  0.0507  0.0374  0.6525
19461TIP3   OH279797   5.247   1.234  12.613 -0.4244  0.4649 -0.1386
19461TIP3    H179798   5.303   1.160  12.637 -0.2031  0.6587 -0.0634
19461TIP3    H279799   5.181   1.196  12.556 -0.2317  0.2330 -0.2077
19462TIP3   OH279800   5.302   4.664   4.746  0.3070 -0.3730  0.1066
19462TIP3    H179801   5.270   4.581   4.782 -0.5920  0.4653  1.3104
19462TIP3    H279802   5.252   4.731   4.792  0.6382  0.8411 -1.2174
19463TIP3   OH279803   3.806   3.629  13.373  0.2982 -0.4316  0.4728
19463TIP3    H179804   3.814   3.535  13.391 -1.5667 -0.7252 -0.0099
19463TIP3    H279805   3.824   3.637  13.279  2.6240  0.0542  0.8914
19464TIP3   OH279806   1.264   1.853   4.905 -0.0803  0.4305  0.1668
19464TIP3    H179807   1.317   1.895   4.837  1.5082  0.9644  1.6745
19464TIP3    H279808   1.238   1.924   4.963 -5.3177  0.8077 -2.1314
19465TIP3   OH279809   2.426   4.312  11.672  0.4681  0.1188  0.2022
19465TIP3    H179810   2.455   4.252  11.740  1.1714 -0.3021 -0.4534
19465TIP3    H279811   2.346   4.271  11.637  1.5939 -1.1214 -1.0685
19466TIP3   OH279812   6.156   3.659  10.544 -0.1589 -0.3136  0.0975
19466TIP3    H179813   6.136   3.753  10.544 -2.4205 -0.7188  0.1077
19466TIP3    H279814   6.209   3.646  10.465  1.5167  1.1744  0.9166
19467TIP3   OH279815   1.263   0.712   3.163  0.1747 -0.2845  0.1554
19467TIP3    H179816   1.306   0.739   3.245  0.9584  1.5561 -0.8184
19467TIP3    H279817   1.178   0.755   3.165  0.6155  0.6475 -0.4583
19468TIP3   OH279818   6.397   5.737   2.399 -0.2412 -0.3447 -0.1803
19468TIP3    H179819   6.334   5.735   2.471 -0.5220  1.1882 -0.3441
19468TIP3    H279820   6.451   5.659   2.412  0.0155  0.1452  1.9511
19469TIP3   OH279821   6.120   0.919   5.302 -0.1182  0.3939  0.2929
19469TIP3    H179822   6.148   0.907   5.212 -0.2325 -0.3860  0.3507
19469TIP3    H279823   6.069   1.000   5.302 -2.3682 -0.9036 -0.9071
19470TIP3   OH279824   5.926   1.278  16.034 -0.0650  0.3718 -0.1919
19470TIP3    H179825   5.944   1.184  16.037  0.0112  0.3375 -1.4973
19470TIP3    H279826   5.906   1.296  15.943 -0.4565  1.5671  0.1134
19471TIP3   OH279827   2.745   4.931   2.316  0.0027  0.6502 -0.0383
19471TIP3    H179828   2.758   4.936   2.411 -2.2070  1.7511  0.2788
19471TIP3    H279829   2.738   4.837   2.298  1.9719  0.3429  0.6017
19472TIP3   OH279830   0.701   0.067  11.309  0.3602 -0.0361  0.1002
19472TIP3    H179831   0.766   0.134  11.285 -0.5425  0.6164 -0.5805
19472TIP3    H279832   0.617   0.111  11.302 -0.3362 -1.4990 -1.3050
19473TIP3   OH279833   1.082   3.291   1.362  0.1111  0.1776  0.0909
19473TIP3    H179834   1.043   3.263   1.279  2.0836 -0.3932 -0.6828
19473TIP3    H279835   1.123   3.212   1.397 -0.6438  0.4218  1.6312
19474TIP3   OH279836   1.914   6.795   0.616 -0.2833 -0.3542 -0.3770
19474TIP3    H179837   1.892   6.805   0.523 -1.5212 -0.7704 -0.1378
19474TIP3    H279838   1.833   6.813   0.663  0.0888 -1.0737  0.5832
19475TIP3   OH279839   2.532   1.944  16.146 -0.0698 -0.3321  0.2029
19475TIP3    H179840   2.567   1.985  16.066 -1.9846 -2.5267 -1.8959
19475TIP3    H279841   2.496   2.017  16.196  0.7355  1.0523 -1.1409
19476TIP3   OH279842   5.424   1.831  16.385  0.0458 -0.0384 -0.5820
19476TIP3    H179843   5.515   1.860  16.380 -0.1837  0.5138 -2.0011
19476TIP3    H279844   5.421   1.749  16.337 -0.0246 -0.5611  0.3002
19477TIP3   OH279845   5.450   2.356   1.648 -0.5082  0.1350 -0.0967
19477TIP3    H179846   5.388   2.406   1.595 -0.9438 -1.7775 -1.4819
19477TIP3    H279847   5.425   2.375   1.738 -1.0283  1.8951 -0.5745
19478TIP3   OH279848   1.989   1.930   6.306 -0.3492  0.1275  0.1340
19478TIP3    H179849   2.083   1.927   6.323 -0.9631 -1.4439  4.5426
19478TIP3    H279850   1.969   2.024   6.300  1.4472  0.4847 -1.0725
19479TIP3   OH279851   4.929   0.926   4.022  0.4547 -0.3402  0.2221
19479TIP3    H179852   4.900   0.835   4.034 -1.3989  0.2342  0.2700
19479TIP3    H279853   4.948   0.956   4.111 -1.8697  0.2236  0.5872
19480TIP3   OH279854   2.805   5.661   3.683 -0.1097 -0.6010 -0.1917
19480TIP3    H179855   2.794   5.715   3.762 -1.3536 -1.9280  0.5873
19480TIP3    H279856   2.897   5.633   3.686  0.3693  0.8648 -0.2467
19481TIP3   OH279857   6.149   2.336  16.400 -0.0754 -0.1892  0.5690
19481TIP3    H179858   6.192   2.391  16.335 -1.1772 -0.8328 -0.7712
19481TIP3    H279859   6.058   2.330  16.370 -0.2948 -1.6184  1.4131
19482TIP3   OH279860   2.430   2.322  16.561  0.5435  0.4485 -0.2253
19482TIP3    H179861   2.444   2.384  16.489  2.0448  0.5075  0.1003
19482TIP3    H279862   2.404   2.241  16.518  1.4916  0.4643 -0.8419
19483TIP3   OH279863   6.172   0.900   5.576  0.0017 -0.0131 -0.0809
19483TIP3    H179864   6.262   0.872   5.597  0.2334  1.3812  0.9146
19483TIP3    H279865   6.164   0.886   5.482  0.9626 -0.9673 -0.0443
19484TIP3   OH279866   4.536   6.002   2.992  0.5280 -0.1743  0.0263
19484TIP3    H179867   4.580   5.919   3.010 -0.9818 -0.8874  0.5385
19484TIP3    H279868   4.523   6.001   2.897  0.3698 -0.5934  0.0493
19485TIP3   OH279869   2.623   0.561   0.443 -0.2787 -0.3047  0.7512
19485TIP3    H179870   2.650   0.486   0.495 -0.1500  0.8689  2.4580
19485TIP3    H279871   2.690   0.627   0.458  0.0675 -0.0928 -1.4046
19486TIP3   OH279872   5.200   2.833   3.350  0.1843  0.8659 -0.0734
19486TIP3    H179873   5.215   2.863   3.440  1.2273 -0.4028  0.1953
19486TIP3    H279874   5.126   2.886   3.320 -2.4496 -0.9292  2.6580
19487TIP3   OH279875   6.240   5.072  15.571  0.2949  0.2930  0.9128
19487TIP3    H179876   6.208   5.153  15.531  0.4901  0.8198  1.7950
19487TIP3    H279877   6.307   5.041  15.511 -0.0382  0.5835  0.3757
19488TIP3   OH279878   4.882   5.895  13.907 -0.1578 -0.0432  0.1085
19488TIP3    H179879   4.874   5.991  13.906  2.8442  0.3062 -0.6234
19488TIP3    H279880   4.795   5.863  13.882 -1.6583  2.4039  1.7703
19489TIP3   OH279881   4.277   1.205  12.830  0.4666 -0.4242  0.4142
19489TIP3    H179882   4.258   1.298  12.840  0.6187 -0.1285 -1.6472
19489TIP3    H279883   4.331   1.200  12.751  2.3319 -2.0522  1.7234
19490TIP3   OH279884   2.947   1.934   3.195  0.0852 -0.0853 -0.3793
19490TIP3    H179885   2.965   1.946   3.101 -0.9911 -0.5028 -0.6521
19490TIP3    H279886   2.906   2.017   3.221 -0.9688 -0.5038 -0.6406
19491TIP3   OH279887   4.744   1.308   3.761 -0.3689  0.1788  0.3234
19491TIP3    H179888   4.771   1.397   3.784  1.7063 -0.7813  1.8932
19491TIP3    H279889   4.657   1.298   3.801 -1.3009  1.8908 -1.0850
19492TIP3   OH279890   5.132   4.906   4.632  0.3427 -0.6888 -0.0883
19492TIP3    H179891   5.163   4.870   4.716 -0.7769 -0.6598  0.3542
19492TIP3    H279892   5.123   5.000   4.649  1.0983 -0.5164 -0.5698
19493TIP3   OH279893   6.553   3.405  13.327  0.0511 -0.7188 -0.9536
19493TIP3    H179894   6.640   3.441  13.310  0.3103 -1.5150 -1.3810
19493TIP3    H279895   6.514   3.465  13.390  1.3602 -1.0057  0.1606
19494TIP3   OH279896   3.743   4.968   1.814 -0.3265 -0.3717  0.2345
19494TIP3    H179897   3.747   4.875   1.792  2.6971 -0.3033  0.0440
19494TIP3    H279898   3.749   4.971   1.909 -1.2624 -0.3832  0.2964
19495TIP3   OH279899   2.897   3.130  11.303 -0.4875  0.7503 -0.3216
19495TIP3    H179900   2.904   3.035  11.307  0.9696  0.8513  0.3640
19495TIP3    H279901   2.826   3.147  11.241 -0.8445 -0.7700 -0.3654
19496TIP3   OH279902   0.484   2.868   2.539  0.3004 -0.5859  0.2768
19496TIP3    H179903   0.423   2.806   2.499 -1.4148  0.9651  0.3220
19496TIP3    H279904   0.473   2.948   2.487  0.9732  0.2718  1.4164
19497TIP3   OH279905   5.108   1.269  13.774  0.1419  0.4315  0.0027
19497TIP3    H179906   5.018   1.246  13.795  0.1692 -0.2684 -0.6098
19497TIP3    H279907   5.106   1.293  13.682  0.4959  0.9107  0.1128
19498TIP3   OH279908   2.451   4.610   0.134 -0.3413 -0.3217 -0.5494
19498TIP3    H179909   2.544   4.632   0.144 -0.1490 -1.5270  0.6806
19498TIP3    H279910   2.452   4.523   0.093 -0.9323 -0.3023 -0.6039
19499TIP3   OH279911   4.947   6.307   5.883 -0.7336 -0.0685 -0.4693
19499TIP3    H179912   4.864   6.339   5.919 -0.1794 -0.8413  1.6461
19499TIP3    H279913   4.952   6.346   5.796 -1.9835  2.2783  0.4278
19500TIP3   OH279914   5.402   1.691   3.875  0.5353 -0.0020 -0.3445
19500TIP3    H179915   5.433   1.603   3.893 -0.2882 -0.1960  0.2241
19500TIP3    H279916   5.444   1.716   3.793 -0.8391 -1.7563 -1.6538
19501TIP3   OH279917   0.032   2.447  15.583 -1.1752 -0.4506  0.5934
19501TIP3    H179918   0.069   2.371  15.628 -0.2457  0.1924  0.9516
19501TIP3    H279919   0.049   2.432  15.490  0.7921  0.2199  0.8081
19502TIP3   OH279920   4.876   5.870   5.825 -0.4014 -0.2794 -0.5466
19502TIP3    H179921   4.953   5.847   5.877  0.1352 -2.0509 -2.0141
19502TIP3    H279922   4.905   5.943   5.770  0.7940 -1.8191 -2.1075
19503TIP3   OH279923   4.519   4.769  16.695 -0.0162 -0.9228 -0.3534
19503TIP3    H179924   4.578   4.761  16.770  0.4484 -0.1538 -0.6236
19503TIP3    H279925   4.446   4.822  16.727  0.9928  0.8774 -0.8697
19504TIP3   OH279926   4.858   2.497   0.936 -0.2827 -0.2441  0.5807
19504TIP3    H179927   4.828   2.584   0.909  1.9248 -0.0972 -1.8400
19504TIP3    H279928   4.880   2.507   1.029  1.3747  2.3009  0.0134
19505TIP3   OH279929   3.205   6.562   4.889 -0.0283 -0.1757 -0.0014
19505TIP3    H179930   3.159   6.605   4.961 -2.0707 -0.1957 -1.1877
19505TIP3    H279931   3.232   6.478   4.925  1.2911  0.8164  1.4512
19506TIP3   OH279932   0.486   1.741   2.535  0.3271 -0.0681 -0.6079
19506TIP3    H179933   0.440   1.670   2.581  0.1436  1.3245  1.4963
19506TIP3    H279934   0.419   1.808   2.525  1.2610  1.0375  0.3185
19507TIP3   OH279935   1.595   1.470  14.166  0.0200 -0.7166  0.1169
19507TIP3    H179936   1.516   1.524  14.163  1.4465  1.4918 -1.7689
19507TIP3    H279937   1.603   1.436  14.077  1.1491 -0.9175  0.2836
19508TIP3   OH279938   2.104   0.064   3.868  0.0317 -0.1593 -0.5911
19508TIP3    H179939   2.175   0.057   3.804 -0.1266 -2.2026 -0.5983
19508TIP3    H279940   2.029   0.023   3.826  0.0094 -1.8695  0.9590
19509TIP3   OH279941   2.244   0.788   1.800 -0.6979 -0.8606  0.0562
19509TIP3    H179942   2.286   0.826   1.877  0.3660 -0.7667 -0.5558
19509TIP3    H279943   2.279   0.699   1.796  1.5533  0.0212 -1.9360
19510TIP3   OH279944   6.768   4.887   5.120 -0.3964 -0.6258 -0.1380
19510TIP3    H179945   6.737   4.978   5.117 -2.1431 -1.1487  0.7503
19510TIP3    H279946   6.861   4.895   5.142 -0.6519  0.9430  0.5539
19511TIP3   OH279947   6.366   1.982  13.984  0.1332  0.3619  0.4637
19511TIP3    H179948   6.433   1.949  14.044  1.3208  0.1869 -0.9046
19511TIP3    H279949   6.283   1.950  14.020  0.9026 -0.5911  1.4379
19512TIP3   OH279950   1.479   5.639  15.942 -0.4268 -0.2259 -0.5584
19512TIP3    H179951   1.560   5.642  15.892 -0.2271 -1.4036 -0.3373
19512TIP3    H279952   1.498   5.582  16.016 -1.5868 -0.9251 -0.7672
19513TIP3   OH279953   1.624   6.113  10.263 -0.3701  0.0632  0.0665
19513TIP3    H179954   1.692   6.081  10.322  0.0421 -0.8596 -0.8766
19513TIP3    H279955   1.600   6.199  10.298  3.3248  1.8365 -1.1181
19514TIP3   OH279956   5.327   1.831  16.677 -0.0156  0.4424 -0.7601
19514TIP3    H179957   5.342   1.864  16.588  1.3057 -0.5168 -0.9220
19514TIP3    H279958   5.357   1.902  16.734  0.7603  0.4089 -1.1057
19515TIP3   OH279959   5.447   0.617   4.694 -0.0360  0.4662  0.5624
19515TIP3    H179960   5.506   0.627   4.619 -1.2610 -1.2550 -0.7321
19515TIP3    H279961   5.367   0.661   4.667  0.6322  3.0457  2.4218
19516TIP3   OH279962   4.689   3.201  17.014  0.1068  0.1204  0.2757
19516TIP3    H179963   4.740   3.171  16.939 -1.2310  0.5683 -0.8490
19516TIP3    H279964   4.638   3.125  17.041  0.7797 -0.1174  0.9414
19517TIP3   OH279965   1.021   0.336   5.395  0.4042  0.1960 -1.0825
19517TIP3    H179966   1.032   0.241   5.385 -0.2237  0.0566 -0.5407
19517TIP3    H279967   1.082   0.359   5.466  0.5560  0.1976 -1.2132
19518TIP3   OH279968   5.887   0.746   0.814  0.1613  0.2197  0.1449
19518TIP3    H179969   5.929   0.667   0.780  0.1392  0.4132 -0.3416
19518TIP3    H279970   5.958   0.810   0.822  0.2034  0.1115  0.6691
19519TIP3   OH279971   4.043   5.368   3.245 -0.1168 -0.0542  0.2161
19519TIP3    H179972   3.987   5.411   3.181 -1.4825 -1.0042  0.7466
19519TIP3    H279973   4.073   5.440   3.302  0.9064  0.7555 -1.2792
19520TIP3   OH279974   3.734   3.890   0.090  0.0458 -0.0830  0.1219
19520TIP3    H179975   3.829   3.899   0.099 -0.1175  0.1403  1.9199
19520TIP3    H279976   3.716   3.799   0.113 -0.3423  0.3371  1.5494
19521TIP3   OH279977   3.240   1.576   4.731 -0.0076  0.1057 -0.0263
19521TIP3    H179978   3.334   1.587   4.747  0.1420  0.8645 -1.3295
19521TIP3    H279979   3.199   1.598   4.815  0.9363  0.3548  0.3832
19522TIP3   OH279980   3.932   0.516   4.628  0.1398  0.1197 -0.0965
19522TIP3    H179981   3.890   0.462   4.561 -0.8043  1.4126 -0.5960
19522TIP3    H279982   4.026   0.507   4.611  0.1119 -2.3251  0.6405
19523TIP3   OH279983   0.269   5.260   6.319  0.1035  0.2299  0.2256
19523TIP3    H179984   0.283   5.309   6.400 -1.3342  3.1113 -1.1236
19523TIP3    H279985   0.317   5.309   6.252  0.5079 -1.5561 -0.8903
19524TIP3   OH279986   5.634   2.725  13.219  0.2740  0.6951  0.0721
19524TIP3    H179987   5.593   2.779  13.151  0.5461 -1.1388 -1.6498
19524TIP3    H279988   5.604   2.764  13.302 -2.0011  1.6069 -1.0763
19525TIP3   OH279989   5.877   4.731   1.511  0.4103  0.1199 -0.0049
19525TIP3    H179990   5.870   4.815   1.557  0.8288  0.8817 -1.2884
19525TIP3    H279991   5.823   4.742   1.433 -0.0632 -1.0588  0.1378
19526TIP3   OH279992   5.379   4.708  16.617  0.1142 -0.4874  0.2368
19526TIP3    H179993   5.402   4.634  16.673  1.7288  0.5887  1.0815
19526TIP3    H279994   5.463   4.746  16.592 -0.6359  0.1763 -1.4259
19527TIP3   OH279995   0.814   1.733   2.620  0.0681  0.2586 -0.2497
19527TIP3    H179996   0.824   1.641   2.598  1.0616  0.6497 -1.5338
19527TIP3    H279997   0.897   1.773   2.596 -0.7869  1.7135 -0.9480
19528TIP3   OH279998   4.040   6.135   2.680  0.9643 -0.3082 -0.2354
19528TIP3    H179999   4.031   6.143   2.585  0.1944 -0.3896 -0.1821
19528TIP3    H280000   4.134   6.125   2.695  1.0598 -0.6590 -1.0185
19529TIP3   OH280001   6.043   0.116  14.725 -0.5036  0.5208 -0.1155
19529TIP3    H180002   6.133   0.084  14.738  0.1843  0.3876 -4.0126
19529TIP3    H280003   5.989   0.057  14.778  1.4320 -1.6698 -0.4067
19530TIP3   OH280004   5.031   1.975  15.801  0.2678  0.2382  0.4246
19530TIP3    H180005   5.095   1.926  15.853  0.9061  1.6199  1.0021
19530TIP3    H280006   4.987   1.909  15.748  2.8948 -0.6660 -0.7917
19531TIP3   OH280007   1.149   1.820  10.485 -0.3058 -0.2028  0.5036
19531TIP3    H180008   1.101   1.757  10.431 -0.3145  1.5634 -1.7046
19531TIP3    H280009   1.100   1.901  10.476  1.2596  0.8355  0.9025
19532TIP3   OH280010   1.017   3.515  15.386  0.0699  0.7336  0.2863
19532TIP3    H180011   0.995   3.606  15.365  0.5126  0.6592 -0.5711
19532TIP3    H280012   0.933   3.471  15.396 -0.1841  0.9031 -0.8998
19533TIP3   OH280013   4.059   0.241   5.542 -0.0422  0.1055 -0.9079
19533TIP3    H180014   3.968   0.262   5.564 -0.0205 -1.0068  0.3837
19533TIP3    H280015   4.095   0.323   5.510 -0.9645  1.0879  0.4493
19534TIP3   OH280016   0.019   5.172   2.329 -0.7181  0.2977  0.0918
19534TIP3    H180017  -0.010   5.111   2.261 -1.1068  0.2275  0.3218
19534TIP3    H280018  -0.061   5.200   2.373 -0.4174 -0.2301  1.0139
19535TIP3   OH280019   0.512   3.601   0.361 -0.1604  0.0395  0.3755
19535TIP3    H180020   0.593   3.638   0.325  1.1464 -1.7347  1.3315
19535TIP3    H280021   0.494   3.655   0.438  1.4380 -0.8572  1.4568
19536TIP3   OH280022   0.656   6.679   5.026 -0.0837  0.1212 -0.2337
19536TIP3    H180023   0.644   6.589   4.996  0.0046 -0.0357  0.1958
19536TIP3    H280024   0.586   6.729   4.983  0.5264  0.0557 -1.3524
19537TIP3   OH280025   4.580   3.037  15.185  0.7543  0.5879 -0.4246
19537TIP3    H180026   4.577   3.132  15.192  0.8869  0.4641  2.5855
19537TIP3    H280027   4.504   3.014  15.132 -1.3518  2.2124  1.6990
19538TIP3   OH280028   6.248   1.986   3.994 -0.0097 -0.4428  0.4645
19538TIP3    H180029   6.200   2.010   3.914  0.3199 -0.5433  0.2338
19538TIP3    H280030   6.179   1.964   4.057 -0.2724 -0.4672  0.1753
19539TIP3   OH280031   4.058   4.084  13.917 -0.6468 -0.1998 -1.0178
19539TIP3    H180032   4.014   4.148  13.861 -0.8270  0.2528 -0.3695
19539TIP3    H280033   4.085   4.134  13.994 -1.4769 -1.0532 -0.1482
19540TIP3   OH280034   2.585   2.032  13.377 -0.0621 -0.2608 -1.0030
19540TIP3    H180035   2.664   1.985  13.403 -0.9194 -2.0967 -1.5339
19540TIP3    H280036   2.531   1.965  13.334 -2.0461  0.8521 -0.3623
19541TIP3   OH280037   2.578   5.361   5.700  0.2768 -0.3453  0.2431
19541TIP3    H180038   2.548   5.437   5.749 -2.5378 -0.7097 -0.7339
19541TIP3    H280039   2.568   5.287   5.761  1.5805 -0.1888  0.6903
19542TIP3   OH280040   3.101   6.469   5.587  0.0937 -0.1254  0.3408
19542TIP3    H180041   3.165   6.531   5.622  1.1522 -2.1268  2.2819
19542TIP3    H280042   3.155   6.399   5.548 -1.0350 -0.1491 -1.2666
19543TIP3   OH280043   1.857   6.058   2.149  0.2429 -0.1714  0.2945
19543TIP3    H180044   1.774   6.103   2.168  0.3669 -0.1143  0.6954
19543TIP3    H280045   1.834   5.965   2.151 -0.1493 -0.1386 -1.1421
19544TIP3   OH280046   3.279   2.066  13.235  0.6564 -0.7263 -0.1080
19544TIP3    H180047   3.333   2.139  13.264 -1.3649  1.1087 -0.7314
19544TIP3    H280048   3.199   2.073  13.287 -0.6974 -0.8010 -2.0818
19545TIP3   OH280049   1.045   4.058  11.095  0.2651  0.7474 -0.3557
19545TIP3    H180050   0.996   4.134  11.126  1.3973  0.7707  1.4955
19545TIP3    H280051   1.092   4.026  11.172 -0.0605 -1.7580 -1.1118
19546TIP3   OH280052   0.150   1.332   4.108 -0.3120 -0.5339 -0.2933
19546TIP3    H180053   0.095   1.380   4.046  0.2927  0.7569  0.1449
19546TIP3    H280054   0.240   1.358   4.086 -0.0931  0.0860  1.2162
19547TIP3   OH280055   6.016   3.410   2.009  0.0322  0.6983 -0.2677
19547TIP3    H180056   6.046   3.476   1.946 -0.5808  1.0025 -0.2430
19547TIP3    H280057   5.924   3.395   1.987  0.6296 -1.6489 -1.5898
19548TIP3   OH280058   0.621   2.587  12.723 -0.0723 -1.0691  0.8560
19548TIP3    H180059   0.583   2.588  12.635  1.9821  0.9721 -0.0920
19548TIP3    H280060   0.588   2.666  12.765  2.6361  0.5396  0.1507
19549TIP3   OH280061   6.220   3.302  13.428  0.6368 -0.1216  0.8471
19549TIP3    H180062   6.141   3.266  13.387  0.7835 -0.2012  0.6368
19549TIP3    H280063   6.190   3.382  13.470  0.2001 -0.7224  1.7254
19550TIP3   OH280064   5.631   2.031   4.890 -0.3731 -0.3541  0.1099
19550TIP3    H180065   5.573   2.058   4.962 -0.6366  1.0931 -0.6169
19550TIP3    H280066   5.681   1.958   4.927 -2.1311 -1.1942  0.9936
19551TIP3   OH280067   3.040   3.638   6.373  0.0930 -0.1668 -0.0492
19551TIP3    H180068   2.964   3.612   6.426  0.1762  0.2961  0.3023
19551TIP3    H280069   3.097   3.684   6.435 -0.0426  0.8331 -0.6575
19552TIP3   OH280070   0.750   0.078   4.941 -0.3333 -0.9926  0.1376
19552TIP3    H180071   0.693   0.144   4.981  0.7667  0.1156 -0.0441
19552TIP3    H280072   0.721  -0.005   4.979 -1.4837 -0.3660  0.6934
19553TIP3   OH280073   5.011   5.016  14.424 -0.1607 -0.7079 -0.0481
19553TIP3    H180074   4.986   5.018  14.516  0.1771  0.7753  0.0325
19553TIP3    H280075   4.954   4.949  14.385 -2.8345  1.0438  0.5356
19554TIP3   OH280076   2.600   6.623  14.423  0.0407  0.5366 -0.1882
19554TIP3    H180077   2.687   6.636  14.384 -0.0467  0.5977 -0.3643
19554TIP3    H280078   2.613   6.553  14.487  0.5254  1.5140  0.8116
19555TIP3   OH280079   4.514   6.118   6.267  0.5014  0.3065  0.2202
19555TIP3    H180080   4.568   6.198   6.268 -1.7432  1.9190  1.0574
19555TIP3    H280081   4.505   6.093   6.359 -1.0529  0.7576  0.2253
19556TIP3   OH280082   2.310   0.293   2.574  0.1419 -0.0257  0.3218
19556TIP3    H180083   2.242   0.226   2.567 -0.2308  0.4340 -0.7130
19556TIP3    H280084   2.374   0.270   2.506 -0.0431  0.7206 -0.1179
19557TIP3   OH280085   2.581   5.526   5.942 -0.7151  0.0471 -0.2319
19557TIP3    H180086   2.536   5.593   5.889  0.8309  0.9962 -0.3949
19557TIP3    H280087   2.582   5.563   6.030 -1.3070 -0.5178  0.0141
19558TIP3   OH280088   0.368   2.136   4.040 -0.1969 -0.3965  0.1623
19558TIP3    H180089   0.283   2.104   4.071  1.0146 -2.3622  1.7144
19558TIP3    H280090   0.429   2.114   4.110  1.4389  2.0571 -0.3752
19559TIP3   OH280091   1.010   0.915   3.199 -0.5630  0.2425 -0.0233
19559TIP3    H180092   0.999   0.907   3.104 -1.6295  0.9348  0.0205
19559TIP3    H280093   0.930   0.877   3.236 -0.2974  0.2677  0.5885
19560TIP3   OH280094   5.958   5.196   3.202  0.0206 -0.2569  0.3720
19560TIP3    H180095   5.932   5.266   3.143 -0.5202 -1.2334 -0.5666
19560TIP3    H280096   6.043   5.166   3.169 -0.1088 -0.5538  0.3006
19561TIP3   OH280097   3.912   4.033   3.710  0.5158  0.6263 -0.6440
19561TIP3    H180098   3.923   4.050   3.616 -2.0232  1.8453 -0.7983
19561TIP3    H280099   3.830   4.077   3.733  0.5937 -0.4246  1.9657
19562TIP3   OH280100   0.803   3.717  13.555  0.5155  0.4525 -0.1630
19562TIP3    H180101   0.842   3.742  13.639  2.7868  0.0327 -1.0100
19562TIP3    H280102   0.774   3.627  13.567  1.5257  0.1390 -0.0359
19563TIP3   OH280103   5.416   4.479  13.075  0.6090  0.0278  0.1919
19563TIP3    H180104   5.396   4.421  13.148  1.4620  0.6858  0.9682
19563TIP3    H280105   5.452   4.421  13.007 -1.4986 -0.7992 -0.2884
19564TIP3   OH280106   0.625   4.955   4.452 -0.1350  0.2999  0.1958
19564TIP3    H180107   0.633   5.048   4.430  2.6541  0.0731 -0.1575
19564TIP3    H280108   0.616   4.953   4.547 -0.6130  0.9386  0.1681
19565TIP3   OH280109   6.428   5.859  14.251  0.2640 -0.4336  0.4369
19565TIP3    H180110   6.411   5.846  14.344  2.1925 -4.0402  0.4890
19565TIP3    H280111   6.511   5.907  14.249  0.3637 -0.5953  0.5992
19566TIP3   OH280112   0.695   0.197   4.306  0.4262  0.2553 -0.0662
19566TIP3    H180113   0.646   0.202   4.224  2.6077  2.2362 -1.3745
19566TIP3    H280114   0.787   0.187   4.279  1.0061 -1.5138  2.2175
19567TIP3   OH280115   6.783   5.569  14.761  0.2289  0.1801  0.0560
19567TIP3    H180116   6.804   5.476  14.768 -2.0380 -0.2255  4.3658
19567TIP3    H280117   6.865   5.613  14.783  0.4819 -0.9277  1.4897
19568TIP3   OH280118   2.646   3.117  14.292  0.2920 -0.1437  0.2891
19568TIP3    H180119   2.594   3.153  14.221  0.6746  0.7053  0.4361
19568TIP3    H280120   2.642   3.183  14.361  1.7508  0.0470  0.2138
19569TIP3   OH280121   5.794   3.738  10.780 -0.2756 -0.0295  0.4247
19569TIP3    H180122   5.875   3.783  10.805  0.3274  0.4309 -2.1033
19569TIP3    H280123   5.742   3.806  10.736 -0.8197 -1.0003 -0.4608
19570TIP3   OH280124   4.143   2.631  12.221 -0.3093 -0.1197 -0.1666
19570TIP3    H180125   4.135   2.726  12.224 -0.2491 -0.1227  0.1279
19570TIP3    H280126   4.155   2.611  12.129 -0.4304  0.1498 -0.2431
19571TIP3   OH280127   0.172   5.015   3.295 -0.5995  0.2028  0.0510
19571TIP3    H180128   0.252   4.963   3.294 -0.3666  0.5181  0.9557
19571TIP3    H280129   0.110   4.961   3.345 -0.3707  0.7570  0.9523
19572TIP3   OH280130   3.404   2.263   3.518  0.1223 -0.0247 -0.7031
19572TIP3    H180131   3.473   2.272   3.584 -0.1859  1.0421 -0.4994
19572TIP3    H280132   3.325   2.297   3.561 -0.9076 -2.5991 -0.4177
19573TIP3   OH280133   1.976   4.173  11.329  0.4123 -0.0169 -0.2595
19573TIP3    H180134   1.892   4.188  11.371  0.4867 -2.1102  0.7710
19573TIP3    H280135   2.019   4.106  11.383  2.8543  1.1510 -0.6126
19574TIP3   OH280136   5.430   1.355   0.572 -0.0130 -0.4199  0.0055
19574TIP3    H180137   5.474   1.439   0.558 -0.7802  0.0801  0.5116
19574TIP3    H280138   5.475   1.318   0.648 -1.1671  0.6159  1.2412
19575TIP3   OH280139   0.038   1.904  16.083 -0.4837  0.1638  0.1737
19575TIP3    H180140  -0.010   1.845  16.140  0.9762 -0.8767  0.3606
19575TIP3    H280141  -0.014   1.907  16.002 -0.9182 -0.8528  0.4055
19576TIP3   OH280142   1.106   2.433  12.475 -0.6607  0.0082  0.5005
19576TIP3    H180143   1.179   2.452  12.416 -1.0546 -1.3020 -0.4698
19576TIP3    H280144   1.122   2.343  12.504 -0.9610  0.3173  1.6985
19577TIP3   OH280145   2.764   6.508   3.967  0.1943  0.1220  0.2920
19577TIP3    H180146   2.706   6.568   4.015 -1.0008 -1.0029  0.3229
19577TIP3    H280147   2.850   6.550   3.971  0.3777 -0.2089  4.1136
19578TIP3   OH280148   1.295   5.134   0.217  0.4377  0.1221 -0.4675
19578TIP3    H180149   1.355   5.105   0.286  1.1750  1.8088 -0.3558
19578TIP3    H280150   1.329   5.219   0.190 -0.0695 -0.3131 -2.6516
19579TIP3   OH280151   4.524   4.847  11.699  0.6192 -0.0222 -0.3464
19579TIP3    H180152   4.548   4.919  11.640  1.8637 -0.8876 -0.9486
19579TIP3    H280153   4.523   4.770  11.642 -2.9162 -0.2402 -0.2110
19580TIP3   OH280154   6.277   6.444  16.298 -0.1768  0.1647  0.2434
19580TIP3    H180155   6.280   6.363  16.248 -0.6116  1.1174 -1.4176
19580TIP3    H280156   6.186   6.451  16.327  0.0096 -0.2429  0.9602
19581TIP3   OH280157   2.737   2.728  14.551 -0.4102  0.1688  0.1543
19581TIP3    H180158   2.673   2.700  14.616 -1.8160  0.3973 -1.0645
19581TIP3    H280159   2.698   2.805  14.510 -0.1123 -0.6034 -1.7074
19582TIP3   OH280160   1.975   2.004   4.675 -0.0079  0.0351  0.3970
19582TIP3    H180161   1.929   1.998   4.759  0.0267  0.9122  0.4939
19582TIP3    H280162   2.043   2.070   4.690 -0.6442  0.9538 -0.6027
19583TIP3   OH280163   3.291   2.055   2.058  0.2037 -0.1584  0.0672
19583TIP3    H180164   3.254   2.142   2.044 -1.7698 -0.6843  1.5991
19583TIP3    H280165   3.374   2.072   2.104  1.5807  0.9959 -2.5933
19584TIP3   OH280166   2.036   6.219  14.872 -0.2690 -0.6342 -0.2086
19584TIP3    H180167   1.995   6.222  14.958 -2.2296  1.5590 -1.1017
19584TIP3    H280168   2.114   6.274  14.880 -0.6157 -0.1839  0.0830
19585TIP3   OH280169   1.931   1.240  15.844  0.3680 -0.2839 -0.2096
19585TIP3    H180170   1.897   1.285  15.767  0.1568 -0.2952 -0.1244
19585TIP3    H280171   2.023   1.221  15.823  0.8949  1.4628  0.3015
19586TIP3   OH280172   2.902   2.673  14.058 -0.3559  0.3450  0.0665
19586TIP3    H180173   2.889   2.740  14.125 -1.0020  1.5355 -1.1766
19586TIP3    H280174   2.895   2.590  14.104  0.2641  1.1224  1.6327
19587TIP3   OH280175   6.083   3.920  11.391  0.2087 -0.6009  0.2962
19587TIP3    H180176   6.047   3.916  11.479  0.3417 -0.6384  0.3492
19587TIP3    H280177   6.033   3.855  11.342 -0.7669  0.3209  0.0153
19588TIP3   OH280178   2.954   0.118  15.268 -0.2781 -0.3607  0.3946
19588TIP3    H180179   2.920   0.062  15.337  1.6193 -1.5318  0.4586
19588TIP3    H280180   3.038   0.150  15.302 -0.0667  0.3284 -0.7242
19589TIP3   OH280181   4.787   3.187  10.456 -0.1009 -0.2041 -0.1570
19589TIP3    H180182   4.710   3.237  10.484  0.0946  0.1874 -0.3113
19589TIP3    H280183   4.774   3.174  10.362 -1.0049 -1.9462  0.1639
19590TIP3   OH280184   5.672   1.955  11.549  0.6831 -0.3425 -0.2586
19590TIP3    H180185   5.662   1.872  11.502 -0.3509 -0.5626  0.3249
19590TIP3    H280186   5.620   1.944  11.629 -0.1823  1.1788 -0.5790
19591TIP3   OH280187   3.098   0.478  15.845 -0.0597  0.0414  0.2257
19591TIP3    H180188   3.089   0.548  15.909  1.8998  1.8767 -1.3819
19591TIP3    H280189   3.019   0.485  15.791 -1.0225 -0.5938  1.4954
19592TIP3   OH280190   5.186   2.569  12.972  0.0318 -0.6493 -0.1150
19592TIP3    H180191   5.212   2.616  13.051 -0.1991 -0.3430 -0.2199
19592TIP3    H280192   5.217   2.624  12.900 -0.0345 -0.7734 -0.2403
19593TIP3   OH280193   5.888   3.846  14.462 -0.5130  0.0300  0.5098
19593TIP3    H180194   5.947   3.875  14.392 -0.2905 -1.4748  0.0276
19593TIP3    H280195   5.925   3.763  14.491 -2.0696 -0.6721  0.5842
19594TIP3   OH280196   2.187   0.131  11.417 -0.6101  0.9454 -0.3407
19594TIP3    H180197   2.097   0.097  11.423  0.0636 -0.7943  0.4977
19594TIP3    H280198   2.232   0.092  11.491  1.0363  1.2150 -1.1628
19595TIP3   OH280199   0.902   6.639   4.782 -0.2101 -0.5763  0.8277
19595TIP3    H180200   0.812   6.673   4.781 -0.1147 -0.2957 -0.4175
19595TIP3    H280201   0.892   6.544   4.777 -0.4449 -0.5494  0.7892
19596TIP3   OH280202   0.812   3.435  16.439  0.0315  0.2649  0.0438
19596TIP3    H180203   0.815   3.432  16.343  0.6115 -0.8253  0.0855
19596TIP3    H280204   0.841   3.349  16.467  1.2458  1.0143  1.2389
19597TIP3   OH280205   1.374   4.950  17.026 -0.5185 -0.2355  0.3197
19597TIP3    H180206   1.396   4.914  16.940 -1.2099 -1.1595  0.5181
19597TIP3    H280207   1.459   4.963  17.069 -0.2293 -1.0177 -0.0019
19598TIP3   OH280208   6.626   6.755  14.940  0.1576 -0.0591 -0.3314
19598TIP3    H180209   6.590   6.840  14.913  1.3482  1.1123  1.5610
19598TIP3    H280210   6.700   6.741  14.881  0.9876  1.0608  0.4166
19599TIP3   OH280211   6.619   4.940  11.793 -0.1499  0.1142  0.1478
19599TIP3    H180212   6.693   4.883  11.772  1.3719  2.2248 -0.5684
19599TIP3    H280213   6.630   4.961  11.886  1.4077  1.9608 -0.3684
19600TIP3   OH280214   4.545   6.111   2.083 -0.4383  0.2036  0.1017
19600TIP3    H180215   4.559   6.028   2.037  0.5841 -0.3040  1.2781
19600TIP3    H280216   4.621   6.164   2.059 -0.0757  0.0606  0.8850
19601TIP3   OH280217   6.558   6.627   3.183 -0.4903  0.0682  0.2029
19601TIP3    H180218   6.517   6.548   3.148 -0.7433  0.3667 -0.1824
19601TIP3    H280219   6.639   6.637   3.132 -0.3059 -0.1059  0.4566
19602TIP3   OH280220   2.618   5.030   3.878  0.4512 -0.5929  0.0775
19602TIP3    H180221   2.584   4.945   3.904  0.4466 -0.4244  0.6265
19602TIP3    H280222   2.558   5.094   3.917 -0.0494 -0.3523 -1.0525
19603TIP3   OH280223   0.286   2.565   4.331  0.2734 -0.1683 -0.5501
19603TIP3    H180224   0.288   2.497   4.264 -2.2768 -0.1929 -0.6979
19603TIP3    H280225   0.244   2.524   4.406 -0.4111  0.9328 -0.3057
19604TIP3   OH280226   0.828   2.729  11.868 -0.3095 -0.4596 -0.4836
19604TIP3    H180227   0.906   2.784  11.857 -0.9489  0.4480 -0.5652
19604TIP3    H280228   0.855   2.661  11.930  0.5556 -0.1770 -0.5390
19605TIP3   OH280229   0.415   3.067   3.939  0.1621 -0.1094  0.9292
19605TIP3    H180230   0.428   2.976   3.913  0.5030  0.5881 -1.6763
19605TIP3    H280231   0.322   3.074   3.957 -0.0168 -0.8021  0.3121
19606TIP3   OH280232   2.124   3.114   4.430 -0.1156  0.3444 -0.0224
19606TIP3    H180233   2.043   3.141   4.473  0.2357 -0.6652  1.3243
19606TIP3    H280234   2.096   3.059   4.357 -0.6656  0.7460 -0.1219
19607TIP3   OH280235   1.484   0.497   1.211  0.1850  0.0818 -0.6350
19607TIP3    H180236   1.523   0.489   1.124 -0.2946 -0.1340 -0.8389
19607TIP3    H280237   1.547   0.456   1.270 -0.1092 -1.0178 -1.0643
19608TIP3   OH280238   0.835   3.676  13.043 -0.0164  0.3019 -0.4861
19608TIP3    H180239   0.799   3.591  13.068 -2.3875  1.2307 -0.4452
19608TIP3    H280240   0.764   3.719  12.996  2.5595  0.5972 -4.5684
19609TIP3   OH280241   4.187   4.317  12.076  0.0557  0.0825 -0.5346
19609TIP3    H180242   4.218   4.332  11.987  2.5246 -3.4249 -0.4237
19609TIP3    H280243   4.146   4.231  12.073 -0.4945  0.2159  1.6025
19610TIP3   OH280244   5.445   1.872  13.864  0.1002 -0.7941 -0.0222
19610TIP3    H180245   5.416   1.867  13.955 -1.4162 -3.8770 -0.5292
19610TIP3    H280246   5.404   1.797  13.822  0.0576  0.9445 -3.4866
19611TIP3   OH280247   3.652   1.854   1.246 -0.3243 -0.0999  1.2599
19611TIP3    H180248   3.605   1.936   1.231  0.8916  0.5572  0.9148
19611TIP3    H280249   3.676   1.858   1.339  0.0171  0.0875  1.1635
19612TIP3   OH280250   4.108   1.751  14.125  0.1628  0.1626 -0.1432
19612TIP3    H180251   4.165   1.721  14.196  0.3015 -2.4257 -1.2421
19612TIP3    H280252   4.152   1.829  14.091  1.6352 -0.2318  0.7525
19613TIP3   OH280253   2.796   0.683   3.015 -0.0280 -0.3956  0.0279
19613TIP3    H180254   2.777   0.593   2.987  0.2742 -0.2630 -0.6346
19613TIP3    H280255   2.815   0.730   2.933 -3.0156  1.0077 -0.0041
19614TIP3   OH280256   3.014   4.138   1.577  0.8457 -1.0888  0.1466
19614TIP3    H180257   2.950   4.076   1.542  1.5582 -0.3528 -2.6776
19614TIP3    H280258   3.022   4.114   1.670 -1.5411 -2.8614 -0.0098
19615TIP3   OH280259   4.399   1.032  13.365  0.1724 -0.1081  1.1997
19615TIP3    H180260   4.316   1.028  13.318  1.3381  1.1829 -1.1632
19615TIP3    H280261   4.407   0.946  13.407 -2.1392 -0.4035  1.1707
19616TIP3   OH280262   4.800   0.369  10.766 -0.2284  0.0333 -0.1902
19616TIP3    H180263   4.784   0.328  10.851 -0.7881 -1.8310 -1.1640
19616TIP3    H280264   4.874   0.428  10.782 -1.3950  1.0083  1.9595
19617TIP3   OH280265   1.681   1.277  12.330  0.1156 -0.5895  0.2778
19617TIP3    H180266   1.713   1.341  12.267  0.6405 -0.5772  0.5497
19617TIP3    H280267   1.592   1.255  12.300  0.0113  0.1035  0.0659
19618TIP3   OH280268   3.812   0.841  14.555 -0.1486  0.8061 -0.0977
19618TIP3    H180269   3.722   0.872  14.547 -0.0957  1.2353  0.8317
19618TIP3    H280270   3.824   0.825  14.648  0.7340  0.7502 -0.2110
19619TIP3   OH280271   0.072   0.372  13.567  0.3506  0.7981 -0.1583
19619TIP3    H180272  -0.014   0.411  13.551  0.2663  1.1196  0.9759
19619TIP3    H280273   0.078   0.367  13.663  2.2032  2.1804 -0.1701
19620TIP3   OH280274   1.757   5.637   5.772 -0.3202 -0.3954 -0.0078
19620TIP3    H180275   1.762   5.726   5.736  2.6246 -1.4978 -2.7828
19620TIP3    H280276   1.829   5.633   5.835 -1.5750 -0.3842  1.5025
19621TIP3   OH280277   6.529   5.654   5.046  0.2521 -0.1111 -0.1724
19621TIP3    H180278   6.512   5.720   5.113  0.1888 -0.1898 -0.1103
19621TIP3    H280279   6.450   5.599   5.046  0.1750 -0.0014 -0.4375
19622TIP3   OH280280   5.936   0.116  15.069  0.1234 -0.0872  0.3051
19622TIP3    H180281   5.954   0.056  14.996  0.0729  0.2734 -0.0067
19622TIP3    H280282   6.014   0.171  15.075 -0.9255  1.6962 -1.2675
19623TIP3   OH280283   1.886   6.782   3.719 -0.4345 -0.1984 -0.1434
19623TIP3    H180284   1.825   6.804   3.649  0.3584  0.4796 -0.6529
19623TIP3    H280285   1.833   6.780   3.798 -0.7952  2.7065 -0.1954
19624TIP3   OH280286   0.151   2.365  13.462 -0.7579 -0.1462 -0.4390
19624TIP3    H180287   0.105   2.449  13.464  0.5061  0.5702  0.5001
19624TIP3    H280288   0.095   2.305  13.511 -1.5298  0.2233 -0.8581
19625TIP3   OH280289   4.702   0.102   6.644 -0.8092 -0.2339  0.1227
19625TIP3    H180290   4.782   0.074   6.689 -0.8769  0.1865  0.5078
19625TIP3    H280291   4.732   0.128   6.556 -0.8087 -1.9125 -0.4048
19626TIP3   OH280292   3.124   6.043  15.422  0.1205 -0.4051 -0.5774
19626TIP3    H180293   3.124   6.013  15.331 -0.4045  0.6443 -0.9434
19626TIP3    H280294   3.186   5.985  15.466  1.6873  0.1348 -1.9544
19627TIP3   OH280295   6.329   5.030  13.522 -0.1928  0.2186 -0.1447
19627TIP3    H180296   6.412   4.988  13.498  0.0197  0.7485 -0.3599
19627TIP3    H280297   6.270   5.011  13.449  0.5404  2.0769 -1.2735
19628TIP3   OH280298   5.217   4.983  15.838 -0.4355  0.2239 -0.1861
19628TIP3    H180299   5.305   4.949  15.824 -0.6429 -0.2294 -0.4130
19628TIP3    H280300   5.230   5.070  15.877  0.1137  0.5489 -1.0732
19629TIP3   OH280301   5.334   4.977   1.218 -0.0789  0.2604  0.1552
19629TIP3    H180302   5.378   4.892   1.212 -0.2730  0.2021 -0.5380
19629TIP3    H280303   5.392   5.031   1.272 -0.1532 -0.4338  0.9528
19630TIP3   OH280304   1.489   0.519   0.674  0.0471  0.0060 -0.9105
19630TIP3    H180305   1.504   0.588   0.610  0.8471 -1.8995 -2.9349
19630TIP3    H280306   1.455   0.445   0.623 -2.0173 -0.7484  1.3320
19631TIP3   OH280307   4.822   5.424  15.560  0.5190 -0.2914  0.3074
19631TIP3    H180308   4.747   5.367  15.538 -0.2314  0.8359 -0.1551
19631TIP3    H280309   4.853   5.455  15.475  1.7565 -1.0095  0.4729
19632TIP3   OH280310   1.523   5.192   2.010  0.3329  0.1945 -0.7562
19632TIP3    H180311   1.500   5.182   1.917 -0.2545 -0.0234 -0.5910
19632TIP3    H280312   1.552   5.104   2.036 -1.3217 -0.2402 -0.2524
19633TIP3   OH280313   0.245   5.023  16.997  0.2876  0.1957 -0.0255
19633TIP3    H180314   0.166   5.074  17.013  0.5144  1.0193 -1.3804
19633TIP3    H280315   0.301   5.039  17.074  0.7068  2.6983 -0.7853
19634TIP3   OH280316   0.488   1.715  15.395  0.3242 -0.0038  0.2728
19634TIP3    H180317   0.520   1.788  15.449  1.9102 -0.0863 -0.5048
19634TIP3    H280318   0.559   1.698  15.333 -0.2069 -1.9255  0.1341
19635TIP3   OH280319   6.525   2.183  13.493 -0.0215 -0.0331  0.7777
19635TIP3    H180320   6.536   2.179  13.588 -1.6632 -1.5569  0.9582
19635TIP3    H280321   6.542   2.093  13.463 -1.2180  0.0315 -0.1467
19636TIP3   OH280322   2.510   0.674   5.204  0.2361 -0.1994 -0.6501
19636TIP3    H180323   2.561   0.687   5.284  0.3281 -1.7851 -0.4247
19636TIP3    H280324   2.576   0.654   5.137  0.1022  0.3733 -0.9555
19637TIP3   OH280325   3.310   5.179  10.985  0.2593  0.1499 -0.4514
19637TIP3    H180326   3.225   5.212  11.014  0.3322  0.5081 -0.6342
19637TIP3    H280327   3.332   5.233  10.909  0.0484 -0.8132 -1.2147
19638TIP3   OH280328   2.608   1.904   0.419  0.1238  0.7434  0.2332
19638TIP3    H180329   2.698   1.915   0.451 -0.3369  0.6543  1.6302
19638TIP3    H280330   2.567   1.989   0.436  0.3820  1.3807 -2.0159
19639TIP3   OH280331   2.850   1.334  12.870 -0.2616 -0.4067 -0.3259
19639TIP3    H180332   2.932   1.307  12.829  0.1161 -2.2368  1.4653
19639TIP3    H280333   2.781   1.301  12.812  0.2634 -1.5726 -0.3021
19640TIP3   OH280334   4.745   2.773   0.105  0.5019 -0.2325  1.0375
19640TIP3    H180335   4.710   2.714   0.039 -1.7690 -0.2012  2.1255
19640TIP3    H280336   4.690   2.850   0.100  2.6111  1.3412  0.5358
19641TIP3   OH280337   1.185   5.397   2.892  0.3814 -0.0996 -0.5055
19641TIP3    H180338   1.197   5.438   2.978  1.2928  1.8861 -1.5033
19641TIP3    H280339   1.269   5.409   2.848 -0.1721 -0.7629 -1.7994
19642TIP3   OH280340   2.932   0.822  12.803 -0.5582 -0.0566  0.3957
19642TIP3    H180341   2.917   0.729  12.821 -0.8622 -0.4827 -1.8410
19642TIP3    H280342   2.844   0.860  12.794 -0.4203  0.3039  0.5300
19643TIP3   OH280343   6.797   0.881   3.213  0.0226  0.3686 -0.1518
19643TIP3    H180344   6.799   0.801   3.266  2.7635  0.8609  0.6760
19643TIP3    H280345   6.866   0.868   3.147  0.8067  2.1507  0.2453
19644TIP3   OH280346   0.144   5.883  11.400 -0.0736  0.5628  0.4452
19644TIP3    H180347   0.202   5.868  11.475  0.1426  1.4294  0.4549
19644TIP3    H280348   0.087   5.954  11.427 -1.1439 -0.2578  0.4236
19645TIP3   OH280349   0.027   0.082   3.988 -0.8637  0.2332 -0.5920
19645TIP3    H180350  -0.007   0.044   3.907 -0.2884 -0.5902 -0.4615
19645TIP3    H280351   0.059   0.168   3.963  0.3834 -0.4549 -1.5090
19646TIP3   OH280352   1.988   3.761   1.576  0.0843 -0.4081 -0.3315
19646TIP3    H180353   1.943   3.809   1.507  0.1995 -0.9653 -0.7977
19646TIP3    H280354   2.079   3.760   1.549  0.0418 -1.1292 -0.4714
19647TIP3   OH280355   0.698   6.788  13.347  0.4910  0.6149  0.4865
19647TIP3    H180356   0.613   6.743  13.350  1.1433 -0.7617 -0.5332
19647TIP3    H280357   0.734   6.777  13.435 -0.0152  0.4599  0.6786
19648TIP3   OH280358   3.218   6.385  16.777  0.3075  0.3118 -0.3045
19648TIP3    H180359   3.186   6.405  16.866 -0.1827  2.6068 -0.9362
19648TIP3    H280360   3.145   6.410  16.720  0.6664 -1.0254 -1.3914
19649TIP3   OH280361   4.899   0.459  12.991 -0.0024 -0.3512 -0.1820
19649TIP3    H180362   4.891   0.521  13.064 -3.9412 -0.9761  0.0939
19649TIP3    H280363   4.906   0.514  12.913  0.2906  0.3492  0.3270
19650TIP3   OH280364   2.894   6.004  12.586  0.4832  0.5146 -0.5188
19650TIP3    H180365   2.891   5.933  12.650  0.6500  0.5470 -0.4736
19650TIP3    H280366   2.944   5.968  12.513  2.3390  1.2181  0.3106
19651TIP3   OH280367   1.445   6.716  12.838  0.3383 -0.0592  0.0311
19651TIP3    H180368   1.486   6.754  12.917 -0.1643 -0.4950  0.5038
19651TIP3    H280369   1.364   6.765  12.828  0.8287  0.6214 -0.7572
19652TIP3   OH280370   2.003   0.710   1.695 -0.0566  0.0951 -0.2561
19652TIP3    H180371   2.051   0.776   1.746  2.4379 -0.4294 -1.7320
19652TIP3    H280372   2.050   0.628   1.712  0.2559 -0.2673 -2.5205
19653TIP3   OH280373   2.912   0.127  13.235 -0.5986 -0.5780  0.2199
19653TIP3    H180374   2.934   0.067  13.163  1.4470 -1.3461  1.4035
19653TIP3    H280375   2.820   0.110  13.253 -0.4198 -2.4040 -0.3789
19654TIP3   OH280376   0.189   5.236  14.371 -0.1434 -0.6639  0.4556
19654TIP3    H180377   0.153   5.325  14.380  1.4665  0.1452 -0.6646
19654TIP3    H280378   0.122   5.188  14.324 -1.2485 -0.1964  1.4988
19655TIP3   OH280379   1.389   3.536  14.533 -0.2545  0.0958 -0.1109
19655TIP3    H180380   1.464   3.532  14.474  1.3929 -0.5224  1.9174
19655TIP3    H280381   1.341   3.615  14.506  1.7452  1.1479 -0.7505
19656TIP3   OH280382   4.362   2.495   3.949 -0.1458 -0.2673  0.1047
19656TIP3    H180383   4.296   2.484   3.881  0.8266 -1.0962 -0.7284
19656TIP3    H280384   4.360   2.589   3.970 -0.9658 -0.1375 -0.5340
19657TIP3   OH280385   0.889   6.642   6.233  0.4533  0.3094  0.2850
19657TIP3    H180386   0.915   6.601   6.150 -0.2952  1.6841 -0.6707
19657TIP3    H280387   0.796   6.621   6.241  0.9001 -1.3519  1.7449
19658TIP3   OH280388   2.963   6.361   5.836  0.5835 -0.0387  0.0334
19658TIP3    H180389   2.891   6.420   5.859  0.3424  0.0563 -0.9164
19658TIP3    H280390   3.016   6.411   5.774  1.5627 -0.0550  0.8276
19659TIP3   OH280391   1.379   6.252   1.433  0.2812 -0.0808  0.6465
19659TIP3    H180392   1.299   6.290   1.396 -1.4181 -2.4292  1.6557
19659TIP3    H280393   1.410   6.192   1.366  0.3341 -0.2919  0.8598
19660TIP3   OH280394   6.689   5.468   4.096 -0.2168 -0.0103 -0.1932
19660TIP3    H180395   6.707   5.541   4.037  0.9979 -0.0359  0.1000
19660TIP3    H280396   6.742   5.395   4.062  0.3806 -0.0697  0.7953
19661TIP3   OH280397   6.224   5.266  12.746 -0.0251  0.3262  0.0435
19661TIP3    H180398   6.215   5.355  12.779  1.1917  0.7373 -0.6627
19661TIP3    H280399   6.199   5.271  12.654 -2.0710 -0.5350  0.4920
19662TIP3   OH280400   4.264   3.483  15.450  0.8333 -0.7491  0.2941
19662TIP3    H180401   4.210   3.406  15.432  1.2800 -1.2121  0.8872
19662TIP3    H280402   4.310   3.462  15.531  1.9127 -0.3830 -0.1925
19663TIP3   OH280403   0.086   1.282  11.621  0.5472  0.1462 -0.2970
19663TIP3    H180404   0.122   1.334  11.693  1.5052 -0.4724 -0.3156
19663TIP3    H280405   0.075   1.345  11.549  1.1282  0.4401 -0.1308
19664TIP3   OH280406   0.450   1.219  11.563 -0.2789  0.0423 -0.2510
19664TIP3    H180407   0.507   1.180  11.630  1.0726  0.4554 -1.1149
19664TIP3    H280408   0.369   1.169  11.569  0.9226 -2.0496 -0.4266
19665TIP3   OH280409   3.626   4.229  10.473  0.4319 -0.3358  0.2370
19665TIP3    H180410   3.595   4.147  10.511  0.5537 -1.3620 -1.7742
19665TIP3    H280411   3.545   4.275  10.449  0.3807 -0.3631  0.3533
19666TIP3   OH280412   1.812   2.900  16.355 -0.4185  0.0720  0.0753
19666TIP3    H180413   1.781   2.826  16.302 -0.0747 -1.7226  2.2261
19666TIP3    H280414   1.907   2.889  16.359 -0.3787  0.5277  0.5413
19667TIP3   OH280415   4.841   3.561   4.785 -0.3645 -0.1464  0.0052
19667TIP3    H180416   4.925   3.598   4.812 -1.1949  1.5384  0.3456
19667TIP3    H280417   4.793   3.548   4.866 -0.5038 -0.9935 -0.1988
19668TIP3   OH280418   2.890   1.418  14.010 -0.0676 -0.4898  0.4723
19668TIP3    H180419   2.972   1.432  14.059  0.0322 -0.0691  0.1856
19668TIP3    H280420   2.865   1.505  13.979  0.1049 -0.8141 -0.5994
19669TIP3   OH280421   3.995   1.174   0.016 -0.5186  0.3319  0.2037
19669TIP3    H180422   4.018   1.248   0.072  1.3802  0.3703 -0.5408
19669TIP3    H280423   3.935   1.211  -0.049 -1.4794  0.6400  1.2382
19670TIP3   OH280424   5.154   1.055   3.369  0.5745 -0.0565  0.1821
19670TIP3    H180425   5.171   1.149   3.383 -0.4036  0.6310 -2.6284
19670TIP3    H280426   5.116   1.050   3.282  1.7295 -3.2433 -0.2807
19671TIP3   OH280427   4.262   2.637   5.851  0.3105 -0.3096  0.2645
19671TIP3    H180428   4.215   2.673   5.926 -3.1364 -2.4830 -0.6295
19671TIP3    H280429   4.304   2.558   5.886 -0.3707 -0.7278  0.1379
19672TIP3   OH280430   3.661   1.089   0.460  0.1743 -0.0207 -0.0742
19672TIP3    H180431   3.566   1.098   0.452 -0.3433 -1.2731  3.1002
19672TIP3    H280432   3.679   1.000   0.431  0.1265 -0.3018  0.7376
19673TIP3   OH280433   6.296   5.835  16.608  0.2680  0.2733 -0.0160
19673TIP3    H180434   6.379   5.790  16.593  0.4403  0.9355 -1.1447
19673TIP3    H280435   6.283   5.831  16.703  1.6032  0.1786  0.1753
19674TIP3   OH280436   6.213   0.354   6.210  0.1153 -0.0131 -0.0873
19674TIP3    H180437   6.252   0.403   6.283 -0.5155  1.4593 -0.6965
19674TIP3    H280438   6.257   0.388   6.132  1.8760 -2.6413 -0.3627
19675TIP3   OH280439   1.352   2.664   4.936  0.5572  0.0227  0.4557
19675TIP3    H180440   1.348   2.610   4.858 -1.1945  0.2952  0.3161
19675TIP3    H280441   1.354   2.602   5.009 -0.1590 -0.2494  0.2516
19676TIP3   OH280442   5.774   3.372   3.214 -0.4373  0.7759  0.2079
19676TIP3    H180443   5.712   3.410   3.152 -2.2647 -3.6593 -1.1061
19676TIP3    H280444   5.785   3.281   3.184  2.0502 -0.3904  3.9315
19677TIP3   OH280445   2.542   1.659  14.634  0.0255  0.0059  0.2540
19677TIP3    H180446   2.499   1.726  14.580 -1.0957 -0.9747 -0.1258
19677TIP3    H280447   2.623   1.638  14.586  1.3557  2.3579  1.3252
19678TIP3   OH280448   4.444   3.245   2.945 -0.0350 -0.2644 -0.2495
19678TIP3    H180449   4.479   3.201   3.023  0.9644 -0.5413 -0.8422
19678TIP3    H280450   4.401   3.323   2.979 -1.1531 -1.2756  0.7501
19679TIP3   OH280451   3.139   3.913  11.109  0.2629 -0.2210  0.4724
19679TIP3    H180452   3.196   3.837  11.100  1.5437  0.5057  1.9676
19679TIP3    H280453   3.088   3.895  11.188  0.5490  0.4287  0.8137
19680TIP3   OH280454   4.445   1.735  13.809  0.2914 -0.5050 -0.2233
19680TIP3    H180455   4.395   1.727  13.890  1.5088  0.7205  0.6991
19680TIP3    H280456   4.535   1.715  13.834  0.4977 -1.3899 -1.5716
19681TIP3   OH280457   5.153   2.383  11.198 -0.5877  0.1200  0.7374
19681TIP3    H180458   5.196   2.463  11.229 -2.3449  1.9070 -1.1192
19681TIP3    H280459   5.071   2.413  11.159 -1.1252 -2.5594 -0.4639
19682TIP3   OH280460   4.445   0.058   2.651  0.7375 -0.0625  0.4353
19682TIP3    H180461   4.493   0.016   2.723 -1.3026 -1.5751  0.9899
19682TIP3    H280462   4.355   0.029   2.662  0.5467 -1.6550 -3.6135
19683TIP3   OH280463   1.044   2.028  14.811  0.6557  0.2228 -0.6260
19683TIP3    H180464   0.957   2.064  14.829  0.5512 -0.1394 -0.3771
19683TIP3    H280465   1.104   2.101  14.821  0.5522  0.1326  0.8119
19684TIP3   OH280466   0.204   4.964  10.916 -0.5221 -0.2791 -0.0700
19684TIP3    H180467   0.132   4.921  10.963 -1.1811  0.4714 -0.3632
19684TIP3    H280468   0.169   5.050  10.893  0.4113  0.0222 -0.3939
19685TIP3   OH280469   1.676   0.217  11.547  0.2151 -0.1005  0.2680
19685TIP3    H180470   1.733   0.227  11.471 -2.8903 -1.4232 -2.4507
19685TIP3    H280471   1.660   0.307  11.576  1.3473  0.4476 -0.7206
19686TIP3   OH280472   5.488   0.672  14.127 -0.4493  0.2449  0.3238
19686TIP3    H180473   5.521   0.628  14.048 -1.9414 -0.8537  0.2552
19686TIP3    H280474   5.463   0.759  14.096 -1.5814 -0.3700 -0.6040
19687TIP3   OH280475   4.171   0.628   1.356  0.0432 -0.1670  0.0126
19687TIP3    H180476   4.178   0.653   1.264  1.1001 -1.7284 -0.3727
19687TIP3    H280477   4.232   0.554   1.365  0.3579  0.3064  2.0931
19688TIP3   OH280478   6.241   5.044   2.437 -0.0006  0.0695  0.0058
19688TIP3    H180479   6.225   4.962   2.484  2.3144 -0.7580 -0.5011
19688TIP3    H280480   6.223   5.022   2.345  1.4649 -0.1786 -0.2474
19689TIP3   OH280481   5.628   6.359  16.796  0.1879  0.5571 -0.3509
19689TIP3    H180482   5.671   6.389  16.877  2.2630 -0.0979 -1.1474
19689TIP3    H280483   5.699   6.323  16.743 -1.5866 -2.0331 -1.1397
19690TIP3   OH280484   5.702   1.395  11.883  0.1335 -0.4524 -0.6091
19690TIP3    H180485   5.610   1.401  11.907  0.8096  2.2143  1.8517
19690TIP3    H280486   5.721   1.301  11.880 -2.7299 -1.0731 -1.7781
19691TIP3   OH280487   1.828   5.245  14.347  0.4252  0.5869  0.6232
19691TIP3    H180488   1.761   5.231  14.414 -0.0601 -0.0761  0.0095
19691TIP3    H280489   1.898   5.184  14.370  0.6133  0.9269  0.9754
19692TIP3   OH280490   3.880   3.301  16.179 -0.6455 -0.5971 -0.3308
19692TIP3    H180491   3.968   3.287  16.143 -0.6062 -1.2285  0.0142
19692TIP3    H280492   3.822   3.252  16.121 -0.8150  0.0760 -0.7456
19693TIP3   OH280493   2.693   2.874  15.323  0.0927 -0.0336 -0.2145
19693TIP3    H180494   2.753   2.847  15.253  0.8821 -1.8621  1.0672
19693TIP3    H280495   2.649   2.793  15.349 -1.9058  1.0116 -0.1189
19694TIP3   OH280496   0.407   1.088   0.543  0.3939 -0.0689 -0.0811
19694TIP3    H180497   0.418   1.080   0.638  0.8104  1.0252 -0.0338
19694TIP3    H280498   0.349   1.015   0.520 -0.9631  0.5414  1.2411
19695TIP3   OH280499   0.182   0.456   2.575 -0.2692 -0.5666  0.1400
19695TIP3    H180500   0.090   0.484   2.584 -0.6351 -1.6649 -0.0464
19695TIP3    H280501   0.207   0.484   2.487 -0.8758 -1.5090 -0.3405
19696TIP3   OH280502   4.280   0.755  17.025  0.3167 -0.4384  0.0804
19696TIP3    H180503   4.246   0.835  17.065 -0.9344 -1.0762  0.3397
19696TIP3    H280504   4.375   0.770  17.020  0.1386  0.9701  0.2953
19697TIP3   OH280505   6.466   0.257  15.398 -0.0808 -0.2538  0.8687
19697TIP3    H180506   6.505   0.281  15.314  0.3244 -1.4557  0.6983
19697TIP3    H280507   6.372   0.266  15.384 -0.0091 -0.3377  0.3253
19698TIP3   OH280508   2.674   1.755   5.464  0.2096  0.4071 -0.8802
19698TIP3    H180509   2.738   1.685   5.479 -1.4977 -1.0765 -0.1604
19698TIP3    H280510   2.708   1.829   5.513  0.7676 -0.7300  0.5240
19699TIP3   OH280511   0.303   1.507   3.094  0.1653 -0.2058  0.2715
19699TIP3    H180512   0.257   1.589   3.076  0.2812  0.3812  2.3480
19699TIP3    H280513   0.347   1.485   3.012 -3.6712 -0.7828 -1.9124
19700TIP3   OH280514   2.450   0.625   3.028  0.0769  0.1240 -0.0503
19700TIP3    H180515   2.520   0.566   2.999 -0.2976 -0.5173  0.3259
19700TIP3    H280516   2.372   0.569   3.031 -0.2559  0.6151  0.4322
19701TIP3   OH280517   2.553   1.738  13.531  0.2805 -0.3234  0.7438
19701TIP3    H180518   2.598   1.654  13.535 -0.2237 -0.5869  1.0522
19701TIP3    H280519   2.553   1.761  13.438  0.7416 -0.4829  0.7029
19702TIP3   OH280520   3.747   1.774   0.842  0.5588  0.2556  0.5479
19702TIP3    H180521   3.818   1.809   0.787 -0.0546 -0.1047 -0.5014
19702TIP3    H280522   3.792   1.735   0.917  1.3901  1.2078  0.5690
19703TIP3   OH280523   2.273   4.320   4.941  0.5327 -0.3536  0.0577
19703TIP3    H180524   2.215   4.292   5.012  0.9636 -0.6136  0.3127
19703TIP3    H280525   2.306   4.405   4.970 -0.9145  0.5407 -0.7988
19704TIP3   OH280526   3.418   0.834  11.133 -0.5980 -0.5162  0.0906
19704TIP3    H180527   3.341   0.888  11.112 -1.0527 -0.3253  2.0356
19704TIP3    H280528   3.490   0.897  11.138 -0.3533 -0.6454 -1.3717
19705TIP3   OH280529   4.216   0.628  16.244 -0.9362  0.4695 -0.3106
19705TIP3    H180530   4.173   0.546  16.221  0.5536 -0.0213 -1.5037
19705TIP3    H280531   4.299   0.602  16.283 -0.7235  1.4148 -0.0902
19706TIP3   OH280532   2.835   4.318  16.519 -0.7955 -0.1192  0.4382
19706TIP3    H180533   2.836   4.365  16.602 -1.6094  1.3567 -0.3380
19706TIP3    H280534   2.889   4.371  16.461  1.3929 -2.1482  0.4902
19707TIP3   OH280535   5.740   3.485   1.989 -0.7692  0.2009  0.1097
19707TIP3    H180536   5.671   3.527   2.041 -0.7741  0.0581  0.2182
19707TIP3    H280537   5.695   3.452   1.911 -0.3676  2.7278 -1.3320
19708TIP3   OH280538   1.445   2.374  15.694 -0.5062  0.5757 -0.0659
19708TIP3    H180539   1.532   2.395  15.660  0.5492  1.7602  3.0249
19708TIP3    H280540   1.414   2.457  15.731 -1.2014 -0.6961  2.3963
19709TIP3   OH280541   2.033   5.591  12.456 -0.9132 -0.1448  0.3277
19709TIP3    H180542   2.017   5.532  12.529  0.0097  1.0297  1.5421
19709TIP3    H280543   1.989   5.550  12.381 -0.2998 -2.3197  1.1000
19710TIP3   OH280544   6.413   3.169  14.233 -0.9885 -0.8292 -0.5716
19710TIP3    H180545   6.349   3.222  14.185 -0.7063  1.0600  1.0132
19710TIP3    H280546   6.459   3.120  14.165 -2.2557 -0.1229 -1.9953
19711TIP3   OH280547   6.136   4.831   1.753 -0.0781  0.1849 -0.3588
19711TIP3    H180548   6.169   4.921   1.750  0.5452 -0.0597 -1.2784
19711TIP3    H280549   6.148   4.799   1.664  0.0011 -0.9184  0.0403
19712TIP3   OH280550   1.101   2.726  14.039 -0.5457  0.3962 -0.2004
19712TIP3    H180551   1.125   2.799  13.982 -0.4331 -0.2632 -1.0146
19712TIP3    H280552   1.130   2.754  14.126 -0.9185  1.5076 -0.4170
19713TIP3   OH280553   6.462   4.749  16.873 -0.0937  0.3768 -0.2679
19713TIP3    H180554   6.392   4.741  16.808  0.6101  0.7623 -1.0872
19713TIP3    H280555   6.543   4.741  16.823  0.4666 -0.9288  0.7897
19714TIP3   OH280556   5.701   4.384   3.807  0.3877  0.0760  0.3835
19714TIP3    H180557   5.723   4.460   3.860  0.2446  0.4511 -0.0904
19714TIP3    H280558   5.634   4.415   3.746  0.6901 -0.2919 -0.1511
19715TIP3   OH280559   6.089   2.472  12.161 -0.0476 -0.3255 -0.0651
19715TIP3    H180560   6.143   2.482  12.239 -1.3136  2.4918  0.5709
19715TIP3    H280561   6.126   2.395  12.116  2.2980 -0.5304  1.9831
19716TIP3   OH280562   6.366   3.966  10.627  0.3542  0.1780 -0.0583
19716TIP3    H180563   6.270   3.961  10.622  0.1959 -0.5996  2.4786
19716TIP3    H280564   6.395   3.876  10.616  0.7032  0.2250  0.4662
19717TIP3   OH280565   4.215   0.173   1.967 -0.5300  0.0675  0.0582
19717TIP3    H180566   4.187   0.263   1.983 -0.8344  0.0637 -0.4268
19717TIP3    H280567   4.180   0.152   1.880 -0.9735 -0.7121  0.4087
19718TIP3   OH280568   1.892   5.907   5.155 -0.0773  0.5062 -0.0759
19718TIP3    H180569   1.900   5.842   5.225 -1.9208  0.1853 -0.1026
19718TIP3    H280570   1.981   5.917   5.121  0.4591 -1.0815  0.7483
19719TIP3   OH280571   0.681   0.714   4.021 -0.1838 -0.7171 -0.2773
19719TIP3    H180572   0.678   0.646   4.088 -2.8990  1.4849  2.1021
19719TIP3    H280573   0.745   0.777   4.053 -0.7047 -0.1790 -0.2691
19720TIP3   OH280574   0.003   2.968   4.472 -0.0685  0.3868  0.1866
19720TIP3    H180575   0.074   2.905   4.478 -0.3227  0.1839  1.1833
19720TIP3    H280576  -0.067   2.921   4.426 -0.5549 -0.3527  1.6420
19721TIP3   OH280577   2.723   5.399  11.081  0.4511  0.5299 -0.4420
19721TIP3    H180578   2.700   5.371  10.992 -1.3993 -1.0513  0.4459
19721TIP3    H280579   2.723   5.318  11.132  2.1004  1.3264  0.9089
19722TIP3   OH280580   6.332   2.167  12.296  0.7656 -0.2331  0.3132
19722TIP3    H180581   6.396   2.098  12.281 -0.3535 -1.1874 -0.1511
19722TIP3    H280582   6.291   2.145  12.379  0.8496  0.2351  0.4832
19723TIP3   OH280583   5.534   2.783   2.060 -0.7002  0.2927 -0.2536
19723TIP3    H180584   5.441   2.758   2.054 -0.2153 -1.8457  0.2531
19723TIP3    H280585   5.553   2.782   2.154 -0.0377  0.1196 -0.3817
19724TIP3   OH280586   3.130   3.497   1.183 -0.0605  0.3176  0.2287
19724TIP3    H180587   3.049   3.449   1.199  1.2008 -1.3577  2.0332
19724TIP3    H280588   3.192   3.430   1.154  0.9167  1.4373 -0.3414
19725TIP3   OH280589   6.483   2.653   5.164 -0.2135 -0.0635  0.5304
19725TIP3    H180590   6.479   2.693   5.077  0.0549 -2.3299 -0.6117
19725TIP3    H280591   6.393   2.658   5.196 -0.1090  1.7658  0.6307
19726TIP3   OH280592   6.440   3.310  15.440 -0.3691 -0.3753  0.1081
19726TIP3    H180593   6.394   3.267  15.369 -1.8298 -0.5018  1.0848
19726TIP3    H280594   6.501   3.244  15.473 -0.5273 -0.7126 -0.2729
19727TIP3   OH280595   1.696   0.227   3.872  0.1530 -0.1806  0.4654
19727TIP3    H180596   1.756   0.286   3.917  0.7572 -0.8139  0.5124
19727TIP3    H280597   1.681   0.267   3.787  0.1496  0.2977  0.6921
19728TIP3   OH280598   4.815   3.869   0.042 -0.2988 -0.6458  0.4423
19728TIP3    H180599   4.746   3.908   0.096 -0.5588  0.7736 -0.8517
19728TIP3    H280600   4.785   3.881  -0.048  1.3067 -0.6343 -0.1289
19729TIP3   OH280601   0.711   4.726  16.276 -0.1137  0.0317 -0.1944
19729TIP3    H180602   0.681   4.792  16.213  0.3545  2.4193  1.9305
19729TIP3    H280603   0.805   4.743  16.285 -0.6678  2.0654  3.5014
19730TIP3   OH280604   1.923   2.187   3.186  0.2256  0.0917  0.3738
19730TIP3    H180605   1.872   2.106   3.184  0.4726 -0.1154  1.5526
19730TIP3    H280606   2.007   2.162   3.225  0.3504  0.8861  0.6429
19731TIP3   OH280607   6.408   1.916  14.825 -0.1287  0.1101 -0.2542
19731TIP3    H180608   6.450   1.997  14.796  0.9981 -0.3246  0.1212
19731TIP3    H280609   6.472   1.848  14.806 -1.4841 -0.8687 -1.5772
19732TIP3   OH280610   3.742   0.760  15.297  0.0305 -0.2086  0.2008
19732TIP3    H180611   3.683   0.834  15.309  0.6928  0.9784 -2.9249
19732TIP3    H280612   3.683   0.684  15.287 -1.1624  0.9729 -3.0974
19733TIP3   OH280613   4.303   1.815  13.194 -0.0961 -0.1764 -0.2366
19733TIP3    H180614   4.349   1.733  13.177  0.8798  0.1910  0.5281
19733TIP3    H280615   4.228   1.813  13.134  1.7713 -0.0658 -2.7487
19734TIP3   OH280616   2.917   3.505   2.707  0.5419 -0.0369 -0.7560
19734TIP3    H180617   2.856   3.509   2.633  0.5837  2.2868 -0.7313
19734TIP3    H280618   2.863   3.521   2.784  0.6375 -1.6098 -0.3274
19735TIP3   OH280619   5.309   0.050   1.335 -0.9348  0.4890  0.0561
19735TIP3    H180620   5.269   0.127   1.374 -1.1232  0.1384  0.5647
19735TIP3    H280621   5.296  -0.020   1.399 -0.6251  0.0696 -0.3241
19736TIP3   OH280622   6.603   6.676  16.722  0.1714  0.2722 -0.2350
19736TIP3    H180623   6.640   6.690  16.809 -1.7237  0.5348  0.5783
19736TIP3    H280624   6.637   6.590  16.695  1.5793  0.6285  0.2986
19737TIP3   OH280625   2.682   3.385  15.474  0.9234 -0.1459 -0.1186
19737TIP3    H180626   2.590   3.376  15.449 -0.1332  1.1879  2.8035
19737TIP3    H280627   2.715   3.295  15.479 -0.0409 -0.6148 -1.6859
19738TIP3   OH280628   0.732   4.666  12.831  0.1607  1.1285  0.1582
19738TIP3    H180629   0.636   4.668  12.837  0.1870  2.3166  0.3849
19738TIP3    H280630   0.750   4.651  12.738 -0.2181 -1.9610  0.4735
19739TIP3   OH280631   4.366   2.773  14.032 -0.5147 -0.5379  0.4909
19739TIP3    H180632   4.327   2.830  14.098  1.0635 -0.5864  1.5096
19739TIP3    H280633   4.351   2.819  13.949 -1.5742  0.0526  0.9891
19740TIP3   OH280634   6.328   5.037  12.153  0.2079 -0.6038 -0.3495
19740TIP3    H180635   6.252   5.057  12.207  2.1040 -0.7034  2.5819
19740TIP3    H280636   6.324   5.100  12.081 -1.1520  1.2734  1.2797
19741TIP3   OH280637   6.055   5.514   4.129 -0.1482 -0.5148 -0.9184
19741TIP3    H180638   6.133   5.549   4.171 -0.9860 -0.5650  0.7629
19741TIP3    H280639   6.086   5.437   4.081  0.4599 -2.4721  2.2834
19742TIP3   OH280640   2.138   1.664  11.337  0.4539 -0.5042 -0.2763
19742TIP3    H180641   2.119   1.571  11.353 -0.0504 -0.4171 -0.3492
19742TIP3    H280642   2.104   1.680  11.249 -0.6118  0.0558  0.2145
19743TIP3   OH280643   4.567   2.240   6.303 -0.4138 -0.0728  0.2405
19743TIP3    H180644   4.662   2.232   6.313 -0.1149  1.7700 -0.8541
19743TIP3    H280645   4.550   2.224   6.210 -1.2606 -0.9000  0.5156
19744TIP3   OH280646   0.930   2.528   3.022  0.7705  0.5983  0.0943
19744TIP3    H180647   0.971   2.472   2.957 -0.2949 -0.1027  0.0058
19744TIP3    H280648   0.988   2.604   3.028  0.6488  0.9214 -2.0444
19745TIP3   OH280649   2.205   0.533   2.981 -0.3911  0.2554 -0.5999
19745TIP3    H180650   2.128   0.574   3.020  1.2058  3.4457 -0.4348
19745TIP3    H280651   2.175   0.501   2.896 -2.4358 -1.0149  0.5095
19746TIP3   OH280652   1.275   6.349   3.713  0.2206 -0.2973 -0.0370
19746TIP3    H180653   1.257   6.430   3.665 -0.6301 -0.7587 -0.5153
19746TIP3    H280654   1.345   6.306   3.663 -0.5623 -0.7065 -0.8085
19747TIP3   OH280655   1.447   6.536  13.497  0.2982 -0.2306 -0.2128
19747TIP3    H180656   1.352   6.542  13.499  0.0966 -2.5017 -1.0009
19747TIP3    H280657   1.470   6.532  13.404  1.0141 -1.2081 -0.0178
19748TIP3   OH280658   0.320   2.733   1.260 -0.4123 -0.7210 -0.0231
19748TIP3    H180659   0.363   2.689   1.333 -0.5153  0.2642  0.6461
19748TIP3    H280660   0.250   2.785   1.300  0.7634  1.4076 -0.5595
19749TIP3   OH280661   2.243   1.574   1.480  0.2450  0.0578  0.3189
19749TIP3    H180662   2.186   1.592   1.406 -0.0360 -1.1731  0.2261
19749TIP3    H280663   2.306   1.647   1.480  1.7125 -1.0811 -2.5608
19750TIP3   OH280664   1.233   4.511  13.319 -0.2152  0.2396  1.2576
19750TIP3    H180665   1.180   4.431  13.326 -0.7404  0.5336  0.7743
19750TIP3    H280666   1.322   4.483  13.336  0.2076 -1.1696 -2.3751
19751TIP3   OH280667   4.075   2.073  15.449  0.0912  0.3775 -0.4159
19751TIP3    H180668   4.032   2.108  15.371 -0.3224  0.7158 -0.0446
19751TIP3    H280669   4.004   2.060  15.511 -0.0217 -2.6018 -1.0403
19752TIP3   OH280670   3.390   4.140   2.332  0.1593 -0.3467  0.2782
19752TIP3    H180671   3.374   4.051   2.301 -0.6445  0.0452 -0.4334
19752TIP3    H280672   3.394   4.194   2.253 -0.3120  0.4095  0.7579
19753TIP3   OH280673   2.163   5.818  12.151 -0.5213  0.7651 -0.3373
19753TIP3    H180674   2.174   5.829  12.246  0.3544  1.2790 -0.4843
19753TIP3    H280675   2.070   5.831  12.136 -0.8870 -0.5788  0.6131
19754TIP3   OH280676   6.317   0.651   2.640  0.8992  0.1384 -0.4517
19754TIP3    H180677   6.341   0.610   2.723  0.2548  0.7895  0.0707
19754TIP3    H280678   6.224   0.630   2.629  1.2866 -1.1212 -1.7189
19755TIP3   OH280679   6.751   2.457  11.150 -0.1681  0.2725 -0.6539
19755TIP3    H180680   6.836   2.420  11.172 -0.5550 -0.2239  0.0713
19755TIP3    H280681   6.693   2.426  11.220 -0.8858  0.8099 -0.9978
19756TIP3   OH280682   2.487   3.076   2.659 -0.0084  0.6511  0.3855
19756TIP3    H180683   2.520   2.986   2.667  2.2835  1.5193  2.0084
19756TIP3    H280684   2.526   3.108   2.578  0.2436  0.5601  0.4678
19757TIP3   OH280685   2.798   6.488  15.424 -0.4415 -0.2441  0.0819
19757TIP3    H180686   2.712   6.467  15.461 -0.4512 -2.6503 -1.0928
19757TIP3    H280687   2.779   6.546  15.350 -1.2895 -2.0376 -1.1743
19758TIP3   OH280688   0.142   2.865   3.134  0.6818 -0.7225 -0.7919
19758TIP3    H180689   0.132   2.770   3.137  2.4143 -0.9229  0.6081
19758TIP3    H280690   0.104   2.896   3.217  1.3279 -0.3398 -0.6338
19759TIP3   OH280691   4.724   2.011   2.225  0.2524 -0.1434 -0.3133
19759TIP3    H180692   4.753   1.989   2.314 -0.0267  0.0194 -0.1819
19759TIP3    H280693   4.629   2.003   2.229  0.2339 -0.0397 -0.5749
19760TIP3   OH280694   5.429   1.161   5.277  0.0635  0.3701 -0.0755
19760TIP3    H180695   5.357   1.127   5.330  0.0197 -1.2279 -1.0524
19760TIP3    H280696   5.478   1.082   5.251  0.3928  1.1162 -1.9015
19761TIP3   OH280697   2.004   5.334  13.579  0.1043  0.8320 -0.3302
19761TIP3    H180698   2.096   5.313  13.571  0.0459 -0.3893  1.6892
19761TIP3    H280699   2.002   5.412  13.635 -0.1507 -1.3062  2.8480
19762TIP3   OH280700   5.186   1.522  15.124  0.5114  0.0207 -0.0203
19762TIP3    H180701   5.148   1.599  15.166  0.2749  0.0853 -0.3530
19762TIP3    H280702   5.257   1.496  15.183  1.6918  1.4944 -0.7161
19763TIP3   OH280703   0.912   3.261   3.048  0.0493  0.0897 -1.1057
19763TIP3    H180704   0.977   3.260   2.978  0.4845  1.4506 -0.7578
19763TIP3    H280705   0.830   3.285   3.005  0.1608  0.1943 -1.2583
19764TIP3   OH280706   2.172   3.017  15.499 -0.2581 -0.0862 -0.1248
19764TIP3    H180707   2.246   3.048  15.552 -1.2262  2.0381  0.0771
19764TIP3    H280708   2.181   3.063  15.416 -2.1702  1.4448  0.4541
19765TIP3   OH280709   2.551   0.813  15.156  0.3039 -0.2981 -0.7375
19765TIP3    H180710   2.483   0.790  15.219 -0.8023  0.3249 -1.6656
19765TIP3    H280711   2.567   0.907  15.171 -0.5832  0.0643 -1.9135
19766TIP3   OH280712   5.589   5.495  13.574  0.6853 -0.0280 -0.2383
19766TIP3    H180713   5.638   5.415  13.556  1.0418  0.4961 -1.7597
19766TIP3    H280714   5.635   5.537  13.647  1.8847 -0.0632 -0.9647
19767TIP3   OH280715   0.630   6.538   0.778  0.1564 -0.0041 -0.3390
19767TIP3    H180716   0.701   6.571   0.834  1.1478  0.4005 -1.7848
19767TIP3    H280717   0.639   6.587   0.697 -1.5897 -0.2018 -0.6904
19768TIP3   OH280718   6.106   6.489  12.808  0.7757  0.1234 -0.8876
19768TIP3    H180719   6.091   6.529  12.722  0.8128  2.2914  0.0336
19768TIP3    H280720   6.024   6.504  12.855  1.6479  1.4504  0.3068
19769TIP3   OH280721   2.091   6.755   5.622  0.5546 -0.1790 -0.1961
19769TIP3    H180722   2.090   6.831   5.679  0.9975 -0.1697 -0.1954
19769TIP3    H280723   2.184   6.740   5.603  0.4352 -0.3870 -0.6363
19770TIP3   OH280724   3.566   0.164   0.634  0.6031 -0.8770 -0.0982
19770TIP3    H180725   3.658   0.185   0.647  1.3046 -2.1688 -2.4316
19770TIP3    H280726   3.531   0.240   0.587  1.3619 -1.7468 -2.1732
19771TIP3   OH280727   4.971   1.724  16.503  0.6491 -0.3120 -0.2652
19771TIP3    H180728   5.010   1.695  16.585  0.5280  1.0585  0.3018
19771TIP3    H280729   5.032   1.694  16.436  1.6212 -0.0027  0.4545
19772TIP3   OH280730   5.251   1.475  12.110  0.0610  0.4266  0.1149
19772TIP3    H180731   5.177   1.507  12.058  0.2824  0.4952 -0.1555
19772TIP3    H280732   5.221   1.482  12.201  0.0277  1.1940  0.0486
19773TIP3   OH280733   6.248   5.260   0.216  0.8218  0.0310 -0.4086
19773TIP3    H180734   6.202   5.207   0.281  1.2598 -0.2692 -0.3408
19773TIP3    H280735   6.340   5.239   0.228  1.0904  1.4420  0.1946
19774TIP3   OH280736   1.585   4.304  12.805 -0.5599 -0.1642 -0.0903
19774TIP3    H180737   1.542   4.351  12.877 -1.1076 -1.5698  0.5339
19774TIP3    H280738   1.552   4.347  12.726 -1.0572  0.4869  0.4567
19775TIP3   OH280739   4.962   1.801  11.705  0.3714  0.1100  0.1162
19775TIP3    H180740   4.945   1.847  11.788  1.1631 -1.1609  1.0236
19775TIP3    H280741   5.026   1.733  11.728  0.0909 -0.7150 -1.4045
19776TIP3   OH280742   3.564   3.869   1.019  0.4707 -0.8175 -0.6810
19776TIP3    H180743   3.570   3.915   1.102 -0.9981 -0.4280 -0.7528
19776TIP3    H280744   3.654   3.857   0.990  0.9317  1.5956 -0.4291
19777TIP3   OH280745   6.274   4.605   4.214  0.1199 -0.0187 -0.2317
19777TIP3    H180746   6.230   4.521   4.229 -1.7710  0.8370 -0.7355
19777TIP3    H280747   6.303   4.632   4.301  0.0450 -0.8217  0.0546
19778TIP3   OH280748   3.606   5.000  14.240  0.5385  0.1217  0.6407
19778TIP3    H180749   3.611   5.090  14.210  1.3123  0.1392  0.8014
19778TIP3    H280750   3.514   4.975  14.228 -0.2192  1.6611  2.7488
19779TIP3   OH280751   4.405   5.791  10.685  0.4726  0.0537  0.3591
19779TIP3    H180752   4.447   5.744  10.757  1.2671 -0.7099 -0.5900
19779TIP3    H280753   4.420   5.883  10.705  2.5351 -0.1879  0.1013
19780TIP3   OH280754   3.306   2.563   5.600 -0.3842 -0.1497 -0.1141
19780TIP3    H180755   3.315   2.612   5.682 -0.1567  0.0632 -0.2644
19780TIP3    H280756   3.215   2.578   5.574  0.1471  1.6617 -1.0686
19781TIP3   OH280757   2.075   6.772   0.861 -0.0477  0.1061  0.5217
19781TIP3    H180758   2.043   6.756   0.772  0.1465 -2.0462  0.7698
19781TIP3    H280759   2.161   6.811   0.850  1.2586 -2.7426 -0.3949
19782TIP3   OH280760   5.325   4.697   1.428  0.2425 -0.2310 -0.5612
19782TIP3    H180761   5.284   4.778   1.458  0.2474 -0.1681 -0.7281
19782TIP3    H280762   5.253   4.635   1.419  0.2723 -0.3280 -0.1614
19783TIP3   OH280763   1.089   3.779   0.358  0.0936  0.4211  0.0259
19783TIP3    H180764   1.070   3.838   0.431 -0.5022 -0.2702  0.4436
19783TIP3    H280765   1.181   3.793   0.339  0.6008 -0.2958  1.7484
19784TIP3   OH280766   5.000   0.571   1.960 -0.1630  0.3609 -1.0449
19784TIP3    H180767   4.915   0.600   1.994  0.6478  1.0248  0.5128
19784TIP3    H280768   5.019   0.490   2.008  0.4986  0.7046 -0.7220
19785TIP3   OH280769   2.383   2.404  13.453  0.1967  0.4544 -0.2442
19785TIP3    H180770   2.446   2.351  13.502 -1.8351 -0.6239  1.3714
19785TIP3    H280771   2.362   2.350  13.376 -1.7393 -1.1985  1.3113
19786TIP3   OH280772   5.814   2.518  15.458 -0.3552 -0.4334  0.0123
19786TIP3    H180773   5.742   2.495  15.516 -0.2287 -1.3586 -0.1770
19786TIP3    H280774   5.820   2.613  15.463  0.1956 -0.5474  2.1364
19787TIP3   OH280775   4.558   2.157  15.491  0.0869  0.5997 -0.7555
19787TIP3    H180776   4.462   2.156  15.501  0.0466  0.2909 -1.1239
19787TIP3    H280777   4.578   2.248  15.469  0.2364  1.4155  2.3266
19788TIP3   OH280778   4.214   0.889   2.461  0.3778 -0.1068 -0.1229
19788TIP3    H180779   4.131   0.924   2.493  1.2006  0.9056  0.9732
19788TIP3    H280780   4.189   0.812   2.410 -1.2391  0.2687  0.0477
19789TIP3   OH280781   1.937   4.810  12.099 -0.5043 -0.1544 -0.5043
19789TIP3    H180782   2.009   4.760  12.062 -0.3512 -0.7443  0.5704
19789TIP3    H280783   1.938   4.893  12.051  1.3648  0.1542  0.0042
19790TIP3   OH280784   3.722   3.926  13.317 -0.3106 -0.0863  0.1382
19790TIP3    H180785   3.784   3.864  13.355 -1.5809 -2.0705 -0.8234
19790TIP3    H280786   3.677   3.964  13.393  2.2841  1.7775  0.8768
19791TIP3   OH280787   1.689   1.859   3.009 -0.2166 -0.1604 -0.1070
19791TIP3    H180788   1.761   1.803   2.979 -1.0337 -0.8062 -0.9348
19791TIP3    H280789   1.614   1.831   2.957 -1.2144  0.0997  1.1404
19792TIP3   OH280790   3.843   2.296   4.722 -0.0925  0.2440 -0.3527
19792TIP3    H180791   3.771   2.284   4.660 -0.5901  1.0303  0.0562
19792TIP3    H280792   3.804   2.282   4.808  0.0193  1.5032 -0.0715
19793TIP3   OH280793   3.419   2.555  15.658 -0.7670 -0.5525  0.0457
19793TIP3    H180794   3.405   2.592  15.746  0.1593  0.0385 -0.0384
19793TIP3    H280795   3.334   2.563  15.615 -0.8080  0.7791  0.3151
19794TIP3   OH280796   2.471   4.214   2.658  0.2970  0.4700 -0.1796
19794TIP3    H180797   2.459   4.254   2.745 -0.6464  0.3287 -0.2272
19794TIP3    H280798   2.481   4.121   2.676  0.1607  0.4484 -0.2115
19795TIP3   OH280799   6.013   4.853   0.396 -0.1803  0.3216  0.1843
19795TIP3    H180800   6.063   4.826   0.319  0.5560  3.0848 -0.4021
19795TIP3    H280801   5.927   4.813   0.383  0.2401 -0.1176 -1.5679
19796TIP3   OH280802   5.876   6.058   3.705  0.1474  0.3359 -0.2897
19796TIP3    H180803   5.795   6.053   3.757 -1.4737  2.1963 -2.4147
19796TIP3    H280804   5.851   6.024   3.619  1.3860  1.7347 -1.2386
19797TIP3   OH280805   3.432   4.154  14.535  0.6389 -0.1303  0.0400
19797TIP3    H180806   3.511   4.162  14.587  1.5392 -1.3141 -1.0523
19797TIP3    H280807   3.428   4.235  14.484  0.8779  0.1467  0.4561
19798TIP3   OH280808   1.176   3.994  11.319 -0.5926 -0.2021  0.3636
19798TIP3    H180809   1.098   3.945  11.342 -0.2983 -0.3546  1.0460
19798TIP3    H280810   1.246   3.953  11.369 -0.4538  1.3212  1.4941
19799TIP3   OH280811   0.146   0.523   4.090 -0.5003  0.0726  0.2143
19799TIP3    H180812   0.134   0.489   4.179  0.8194  0.4358  0.5565
19799TIP3    H280813   0.081   0.592   4.081  1.0095  1.8628  1.9047
19800TIP3   OH280814   1.193   3.638   3.315 -0.4310 -0.2828 -0.4205
19800TIP3    H180815   1.167   3.548   3.294  1.7582 -0.3898 -3.3541
19800TIP3    H280816   1.282   3.630   3.350  1.5841  0.7559 -4.6133
19801TIP3   OH280817   1.989   2.880   5.509  0.0521 -0.2500 -0.3134
19801TIP3    H180818   1.942   2.943   5.564 -1.0386  0.8864 -2.4036
19801TIP3    H280819   1.930   2.804   5.504  0.3451 -0.5291  0.4062
19802TIP3   OH280820   4.915   2.566  13.075  0.0447 -0.6391  0.5716
19802TIP3    H180821   5.002   2.558  13.034  0.5124  1.7489  0.9741
19802TIP3    H280822   4.855   2.530  13.010  1.1068 -0.1598 -0.7190
19803TIP3   OH280823   3.377   4.317   5.740  0.0394  0.3032 -0.0165
19803TIP3    H180824   3.431   4.347   5.667 -0.7525 -0.5218 -0.9699
19803TIP3    H280825   3.321   4.392   5.761 -1.1003 -0.0648 -1.5845
19804TIP3   OH280826   6.287   6.611  12.092 -0.1807  0.7432 -0.5183
19804TIP3    H180827   6.312   6.519  12.091 -1.5893  0.3016 -3.1567
19804TIP3    H280828   6.222   6.618  12.162  1.9427  0.4224  1.6110
19805TIP3   OH280829   0.528   3.740  11.668  0.4683 -0.3177 -0.2487
19805TIP3    H180830   0.470   3.692  11.609  1.0535 -0.0533 -1.0497
19805TIP3    H280831   0.551   3.819  11.620 -0.6611  0.9219  1.1195
19806TIP3   OH280832   2.925   6.075  15.609 -0.2805 -0.1003  0.3763
19806TIP3    H180833   2.983   6.119  15.547 -1.9453  1.9178  0.1325
19806TIP3    H280834   2.941   5.982  15.595  3.6447  0.2634  1.1003
19807TIP3   OH280835   2.796   5.514  16.221 -0.3610 -0.4992 -0.2398
19807TIP3    H180836   2.836   5.431  16.245  1.3664  1.3867  4.6546
19807TIP3    H280837   2.705   5.506  16.248  0.2102 -0.3773  1.9076
19808TIP3   OH280838   2.970   1.241   6.440  0.1136 -0.0009 -0.1809
19808TIP3    H180839   3.016   1.190   6.374 -1.6810  0.6792 -2.0756
19808TIP3    H280840   2.886   1.196   6.452 -0.8472  1.5546 -0.7028
19809TIP3   OH280841   3.257   4.113  15.673 -0.6602  0.3766 -0.5130
19809TIP3    H180842   3.199   4.051  15.629 -0.1129 -0.6168  0.1495
19809TIP3    H280843   3.250   4.091  15.766  2.0053 -0.8564 -0.5279
19810TIP3   OH280844   5.697   0.274  16.819 -0.7567  0.0759  0.0506
19810TIP3    H180845   5.621   0.291  16.764  0.2535  2.2579 -0.8042
19810TIP3    H280846   5.771   0.309  16.769  0.3013  1.5894  2.4860
19811TIP3   OH280847   0.688   0.598  14.953 -0.6911 -0.2843 -0.0691
19811TIP3    H180848   0.782   0.587  14.936 -0.6918 -0.6104  0.1293
19811TIP3    H280849   0.662   0.517  14.998 -1.0435 -0.1469 -0.0222
19812TIP3   OH280850   4.144   0.142   2.580 -0.2850  0.3307  0.0010
19812TIP3    H180851   4.123   0.092   2.659  1.1335  1.7479  1.3668
19812TIP3    H280852   4.129   0.082   2.508 -0.1249 -1.5463  1.4581
19813TIP3   OH280853   5.065   6.312   2.041 -0.2567  0.3449 -0.1636
19813TIP3    H180854   5.094   6.221   2.033 -1.2784  0.1101 -1.5283
19813TIP3    H280855   5.112   6.345   2.118  0.6611 -1.1192 -0.0507
19814TIP3   OH280856   5.414   1.137  11.290  0.3682  0.0944 -0.1626
19814TIP3    H180857   5.324   1.132  11.322  1.0554 -1.1997  1.7302
19814TIP3    H280858   5.429   1.053  11.246  0.7284  0.2013 -0.2526
19815TIP3   OH280859   4.635   5.647   6.044 -0.5091  0.4368 -0.0338
19815TIP3    H180860   4.731   5.652   6.040 -0.4413  0.5731  1.4621
19815TIP3    H280861   4.609   5.721   6.098 -1.4331  0.0990  0.0024
19816TIP3   OH280862   3.895   1.282   6.561 -0.4721 -0.0757  0.0510
19816TIP3    H180863   3.851   1.365   6.584 -0.3714 -0.2116  0.7612
19816TIP3    H280864   3.841   1.245   6.492  1.7525  2.6196 -3.4610
19817TIP3   OH280865   0.335   1.739   4.157  0.2369 -0.0485 -0.4449
19817TIP3    H180866   0.370   1.663   4.111 -1.5086  0.4351 -2.7730
19817TIP3    H280867   0.280   1.783   4.092  0.2133  2.5493  1.1753
19818TIP3   OH280868   1.190   6.469   1.427 -0.1887 -0.0701 -0.1755
19818TIP3    H180869   1.250   6.533   1.464 -0.1172 -0.2392  0.0032
19818TIP3    H280870   1.114   6.471   1.486 -1.7604  2.3809 -2.0355
19819TIP3   OH280871   0.192   0.538  15.053 -0.2706  0.1063 -0.3907
19819TIP3    H180872   0.163   0.474  14.987 -1.1772  0.4616 -0.3527
19819TIP3    H280873   0.260   0.492  15.102 -1.5289 -1.1858  0.2267
19820TIP3   OH280874   1.774   5.767   0.128  0.1124 -0.2016 -0.0853
19820TIP3    H180875   1.836   5.724   0.188 -1.2963 -2.4747 -0.1356
19820TIP3    H280876   1.748   5.697   0.067 -0.3521  1.4267 -1.8522
19821TIP3   OH280877   1.623   5.129   3.753  0.1807  0.4872  0.5352
19821TIP3    H180878   1.560   5.150   3.684  0.7234  0.5588  0.0532
19821TIP3    H280879   1.569   5.112   3.830 -0.6063 -1.7750 -0.4206
19822TIP3   OH280880   5.249   0.153  16.903 -0.7227 -0.1171 -0.5089
19822TIP3    H180881   5.321   0.169  16.841 -0.0138  0.1045  0.3454
19822TIP3    H280882   5.238   0.236  16.949 -0.8920 -0.4212  0.0123
19823TIP3   OH280883   4.890   2.045   0.720  0.3599 -0.0418  0.3310
19823TIP3    H180884   4.847   2.120   0.760  1.6205 -0.5420  2.8361
19823TIP3    H280885   4.974   2.078   0.689  1.1556 -0.4690  1.9408
19824TIP3   OH280886   4.230   6.299  14.925 -0.8107 -0.5164  0.3588
19824TIP3    H180887   4.259   6.259  15.007 -0.0209  0.9773  0.8450
19824TIP3    H280888   4.178   6.375  14.953 -0.3249  0.1541 -0.5111
19825TIP3   OH280889   1.593   1.928  15.164  0.1609  0.1147 -0.2932
19825TIP3    H180890   1.667   1.947  15.222 -1.1452  1.6348  0.9701
19825TIP3    H280891   1.552   1.850  15.202 -1.4756  1.8526  1.7688
19826TIP3   OH280892   6.271   5.212  14.072  0.6190 -0.1768  0.3247
19826TIP3    H180893   6.241   5.200  14.162 -0.4774  0.6210  0.0895
19826TIP3    H280894   6.242   5.133  14.027  1.4645 -0.7322  0.7273
19827TIP3   OH280895   5.859   2.438   2.089 -0.0130  0.0082  0.1138
19827TIP3    H180896   5.897   2.353   2.110 -0.3652 -0.2308 -0.2120
19827TIP3    H280897   5.935   2.496   2.077  0.2182 -0.0301  1.2385
19828TIP3   OH280898   0.872   0.408  14.332 -0.1744 -0.0548 -0.2784
19828TIP3    H180899   0.873   0.314  14.315 -0.6211 -0.0654 -0.2506
19828TIP3    H280900   0.816   0.419  14.409 -0.8996  0.3156 -0.8374
19829TIP3   OH280901   3.096   3.321  15.615  0.5691  0.0946  0.1994
19829TIP3    H180902   3.034   3.385  15.648 -0.8987 -1.2085  0.0905
19829TIP3    H280903   3.102   3.255  15.684  0.5451 -0.6304 -0.4730
19830TIP3   OH280904   6.174   1.313  13.782 -0.5424 -0.2576 -0.7678
19830TIP3    H180905   6.189   1.374  13.710  0.1028  1.1369  0.4789
19830TIP3    H280906   6.240   1.337  13.847 -1.2963 -1.2672  0.4074
19831TIP3   OH280907   2.941   2.351   2.528 -0.1828 -0.3075  0.3131
19831TIP3    H180908   2.971   2.429   2.573 -0.7188 -0.0972  0.3039
19831TIP3    H280909   3.004   2.339   2.457 -1.4208  1.4770 -1.1576
19832TIP3   OH280910   0.184   2.786   4.583 -0.1884  0.2609 -0.3346
19832TIP3    H180911   0.276   2.762   4.587 -0.2243 -0.2266 -2.0187
19832TIP3    H280912   0.143   2.737   4.654  0.3881 -1.7436 -1.3303
19833TIP3   OH280913   6.427   1.207  15.732  0.0054  0.8567 -0.0909
19833TIP3    H180914   6.338   1.172  15.723  0.0693  1.0603 -1.8051
19833TIP3    H280915   6.423   1.293  15.692  1.5087 -0.1031 -2.5204
19834TIP3   OH280916   1.485   6.221   4.900  0.2232 -0.0253  0.3359
19834TIP3    H180917   1.493   6.172   4.818  2.7250  0.6962  0.0618
19834TIP3    H280918   1.487   6.153   4.968 -0.9387 -0.5646 -0.1382
19835TIP3   OH280919   4.242   1.929   2.484 -0.3498 -0.5153 -0.4505
19835TIP3    H180920   4.156   1.954   2.452 -0.4608 -1.6346 -1.0834
19835TIP3    H280921   4.225   1.858   2.547  0.0218  0.1966  0.4692
19836TIP3   OH280922   1.304   1.547   0.653 -0.4365 -0.1750  0.5398
19836TIP3    H180923   1.215   1.521   0.628 -0.7638  1.2880  0.0726
19836TIP3    H280924   1.324   1.622   0.597  1.5695 -1.1739 -0.1736
19837TIP3   OH280925   1.993   6.025  10.643 -0.1364 -0.1450 -0.1310
19837TIP3    H180926   1.928   5.966  10.681  0.6322 -0.3079  0.9614
19837TIP3    H280927   2.072   5.972  10.635  0.6586  0.7921  1.1418
19838TIP3   OH280928   0.972   2.507   0.165 -0.4526  0.2822 -0.3063
19838TIP3    H180929   0.979   2.553   0.249  1.2627 -0.3465 -0.0621
19838TIP3    H280930   0.907   2.438   0.181  0.9484 -0.8188  1.0344
19839TIP3   OH280931   4.470   4.274  13.496  0.4935  0.8861 -0.1075
19839TIP3    H180932   4.540   4.230  13.544  1.8552  2.4414 -0.5837
19839TIP3    H280933   4.475   4.365  13.523  0.5540  1.5848 -2.2951
19840TIP3   OH280934   6.750   1.459  16.177 -0.0085  0.2956  0.1005
19840TIP3    H180935   6.736   1.400  16.251 -0.1999  0.1878 -0.0220
19840TIP3    H280936   6.760   1.545  16.217  2.0180 -0.0425  0.4122
19841TIP3   OH280937   0.284   4.705  13.640 -0.1803  0.0093  0.0735
19841TIP3    H180938   0.211   4.662  13.685  1.3040 -1.8705  0.8059
19841TIP3    H280939   0.338   4.740  13.711  0.2176  0.4193 -0.4234
19842TIP3   OH280940   5.441   4.027   3.102 -0.0886  1.1251 -0.1161
19842TIP3    H180941   5.444   4.030   3.006  1.0328  1.1804 -0.0919
19842TIP3    H280942   5.443   4.118   3.129 -2.3751  1.2017 -0.0546
19843TIP3   OH280943   0.938   5.680  11.373  0.2146 -0.3392 -0.0002
19843TIP3    H180944   0.995   5.614  11.414 -0.4149 -0.9922 -0.1653
19843TIP3    H280945   0.872   5.629  11.326 -1.8453  0.3351  1.9524
19844TIP3   OH280946   6.234   3.493   4.100 -0.0014 -0.2622  0.2203
19844TIP3    H180947   6.177   3.503   4.177 -0.5724  0.1035 -0.2381
19844TIP3    H280948   6.174   3.499   4.026  0.6761  0.3703 -0.2886
19845TIP3   OH280949   5.076   3.647  15.446 -0.2817  0.2076 -0.1314
19845TIP3    H180950   5.131   3.694  15.383  2.4707  0.0372  1.9681
19845TIP3    H280951   5.096   3.555  15.431 -1.0190  0.0535 -0.2035
19846TIP3   OH280952   4.926   1.443   6.602 -0.0675  0.2248  0.1557
19846TIP3    H180953   4.992   1.395   6.552  1.5026  1.1942  1.1980
19846TIP3    H280954   4.906   1.385   6.676  0.0237  0.1588  0.1289
19847TIP3   OH280955   5.856   2.312  15.095  0.4323 -0.4528 -0.2453
19847TIP3    H180956   5.886   2.266  15.017  0.0113 -2.4700  0.7119
19847TIP3    H280957   5.766   2.338  15.075  0.5780 -0.2927 -0.6921
19848TIP3   OH280958   5.346   3.765  12.881  0.5887 -0.4844 -0.0012
19848TIP3    H180959   5.345   3.726  12.793  1.1817 -0.8105  0.1307
19848TIP3    H280960   5.393   3.848  12.869 -2.7252  1.4693 -0.7723
19849TIP3   OH280961   2.971   5.570  11.097 -0.3591  0.0980 -0.3241
19849TIP3    H180962   2.973   5.631  11.171  0.3395  1.7161 -1.6051
19849TIP3    H280963   2.885   5.529  11.102 -0.4567  0.4305  1.1647
19850TIP3   OH280964   1.554   3.626   1.066 -0.4009  0.4055  0.1007
19850TIP3    H180965   1.557   3.706   1.013  0.7581  2.1769  2.6079
19850TIP3    H280966   1.608   3.563   1.018 -0.8671  1.2938 -1.6711
19851TIP3   OH280967   2.882   2.670   5.508 -0.5393  0.3852  0.2993
19851TIP3    H180968   2.917   2.594   5.554  2.0581  1.7850  0.8417
19851TIP3    H280969   2.850   2.635   5.425  2.1203 -1.1473 -0.2026
19852TIP3   OH280970   6.223   0.145   2.128  0.4845  0.7144  0.4950
19852TIP3    H180971   6.178   0.219   2.168  1.1067  1.7322 -0.6473
19852TIP3    H280972   6.176   0.068   2.160 -2.3784  1.7242 -1.0058
19853TIP3   OH280973   2.121   6.641  14.334  0.2993  0.1993  0.1993
19853TIP3    H180974   2.139   6.703  14.264 -0.7707  0.2100 -0.0737
19853TIP3    H280975   2.033   6.609  14.317  0.3292 -0.4056  1.0872
19854TIP3   OH280976   2.759   6.060  16.628 -0.9727  0.1456  0.1318
19854TIP3    H180977   2.769   6.095  16.540  1.3626 -2.7743 -0.9213
19854TIP3    H280978   2.664   6.059  16.643 -1.6687 -1.5863 -3.4218
19855TIP3   OH280979   1.971   4.505  13.606  0.2800 -0.2045 -0.1454
19855TIP3    H180980   2.012   4.498  13.520  1.2448  1.7887  0.1002
19855TIP3    H280981   2.044   4.504  13.668 -0.3686 -1.1171  0.6457
19856TIP3   OH280982   1.437   3.546   1.570 -0.0327  0.3834  0.8779
19856TIP3    H180983   1.524   3.582   1.586  1.5691 -2.2803 -0.9350
19856TIP3    H280984   1.416   3.574   1.481 -0.7068  0.4616  1.0639
19857TIP3   OH280985   4.586   0.581   4.786  0.2192  0.3174 -0.1456
19857TIP3    H180986   4.615   0.599   4.697  0.0900 -0.0912 -0.2715
19857TIP3    H280987   4.574   0.486   4.789  2.4191  0.0210  0.9693
19858TIP3   OH280988   2.678   5.211   4.875  0.6755 -0.2121 -0.3514
19858TIP3    H180989   2.751   5.152   4.858  1.5987  0.2681  1.6655
19858TIP3    H280990   2.680   5.226   4.969 -2.1797 -0.3322 -0.1802
19859TIP3   OH280991   2.920   3.380  14.810  0.2622 -0.1042  0.0394
19859TIP3    H180992   2.958   3.453  14.857 -0.2860 -0.9316  1.8677
19859TIP3    H280993   2.848   3.350  14.866 -1.6826  0.0007 -2.2078
19860TIP3   OH280994   0.371   0.110   1.789 -0.2380 -0.4659  0.0465
19860TIP3    H180995   0.342   0.168   1.719 -0.8082 -3.5816 -2.5312
19860TIP3    H280996   0.459   0.141   1.810 -0.0228  0.5921 -2.0928
19861TIP3   OH280997   3.257   0.387   2.798  0.3588  0.0204 -0.5345
19861TIP3    H180998   3.309   0.467   2.790 -0.6304  0.6792 -0.5003
19861TIP3    H280999   3.179   0.413   2.847  0.6263 -1.2650  0.6149
19862TIP3   OH281000   0.658   5.410   0.912  0.1602  0.1178  0.0250
19862TIP3    H181001   0.668   5.449   0.999  1.0781  0.0123 -0.0177
19862TIP3    H281002   0.576   5.362   0.916 -0.3333  0.9875  0.4892
19863TIP3   OH281003   4.349   3.282  15.041  0.5842 -0.3054 -0.4671
19863TIP3    H181004   4.301   3.352  15.084 -1.3460 -2.4205  1.0990
19863TIP3    H281005   4.436   3.285  15.079 -0.0654  0.0649  1.0443
19864TIP3   OH281006   3.922   1.985   1.746 -0.1356 -0.2470 -0.3710
19864TIP3    H181007   3.885   2.071   1.768  0.4335 -0.0310 -0.2523
19864TIP3    H281008   3.862   1.922   1.786 -1.0882  0.0652 -1.2639
19865TIP3   OH281009   4.571   0.818   3.038  0.3159  0.0201  1.0362
19865TIP3    H181010   4.642   0.790   2.980  0.5933  1.7512  0.4816
19865TIP3    H281011   4.593   0.782   3.123  1.9262  0.5814  0.8811
19866TIP3   OH281012   4.730   5.872  10.868 -0.3979  0.7577  0.4662
19866TIP3    H181013   4.736   5.844  10.776 -1.6037  0.0416  0.5829
19866TIP3    H281014   4.818   5.905  10.888  0.4302 -0.7753 -0.3977
19867TIP3   OH281015   3.180   5.756  13.472 -0.1169  0.6778 -0.0869
19867TIP3    H181016   3.086   5.756  13.452 -0.1957  0.2496  0.2644
19867TIP3    H281017   3.184   5.742  13.567  0.3382 -0.5715 -0.2726
19868TIP3   OH281018   2.787   6.156   3.403  0.2840  0.3350 -0.0932
19868TIP3    H181019   2.815   6.193   3.319  0.0445  0.1522 -0.2586
19868TIP3    H281020   2.770   6.064   3.383  0.5788  0.2086  0.2415
19869TIP3   OH281021   0.575   4.387  17.064 -0.0487 -0.3627  0.0833
19869TIP3    H181022   0.637   4.394  17.137  1.3868 -0.0319 -1.1008
19869TIP3    H281023   0.501   4.441  17.090  1.5530  1.9070  0.2590
19870TIP3   OH281024   5.615   4.724   2.657  0.0170 -0.7361 -0.4012
19870TIP3    H181025   5.613   4.760   2.745 -2.2530 -0.5379 -0.4827
19870TIP3    H281026   5.577   4.637   2.666 -3.6600  0.5556 -1.6084
19871TIP3   OH281027   2.419   2.140   3.520 -0.3634 -0.2610  0.2725
19871TIP3    H181028   2.358   2.212   3.504  1.0974  1.4376  1.7695
19871TIP3    H281029   2.415   2.127   3.615  1.4227 -0.2374  0.3762
19872TIP3   OH281030   1.406   5.923   3.031 -0.3391  0.2043 -0.8483
19872TIP3    H181031   1.378   5.843   2.986  0.1858  0.4045 -1.5535
19872TIP3    H281032   1.502   5.919   3.027 -0.1156 -1.0024  2.4014
19873TIP3   OH281033   4.326   6.199   5.486 -0.0023  0.4251 -0.2632
19873TIP3    H181034   4.241   6.234   5.460  0.3725 -0.2362 -2.6683
19873TIP3    H281035   4.318   6.104   5.474  1.3389  0.4301 -1.5578
19874TIP3   OH281036   3.910   0.043  13.238  0.2194  0.3461 -0.2865
19874TIP3    H181037   3.988   0.001  13.201  0.0253  0.5018 -0.8851
19874TIP3    H281038   3.941   0.086  13.318  0.7261  0.3196 -0.4647
19875TIP3   OH281039   1.360   1.676   4.518 -0.2723 -0.8014  0.0431
19875TIP3    H181040   1.356   1.668   4.423 -0.5559 -1.1882  0.0853
19875TIP3    H281041   1.406   1.758   4.534  3.5698 -2.6472 -0.4261
19876TIP3   OH281042   6.163   4.144   5.305 -0.4222 -0.0233 -0.1562
19876TIP3    H181043   6.200   4.160   5.218 -0.2582  0.4542 -0.0040
19876TIP3    H281044   6.176   4.227   5.352 -0.7878 -0.1765  0.2234
19877TIP3   OH281045   1.785   0.573   4.247  0.2705  0.3105  0.1649
19877TIP3    H181046   1.848   0.502   4.237  1.8443  1.5644  0.6750
19877TIP3    H281047   1.827   0.649   4.206 -0.5563  1.3796  1.1818
19878TIP3   OH281048   4.066   4.462  15.272 -0.2483 -0.4218 -0.3325
19878TIP3    H181049   4.092   4.415  15.352 -1.0221 -0.0284  0.1578
19878TIP3    H281050   4.052   4.552  15.301 -0.4405 -0.2543 -0.9400
19879TIP3   OH281051   2.291   3.670   4.638 -0.0864  0.1837  0.3593
19879TIP3    H181052   2.339   3.588   4.651 -0.7150 -0.1289  0.8015
19879TIP3    H281053   2.351   3.726   4.589  0.8971 -0.0188  1.2920
19880TIP3   OH281054   3.248   3.362   4.276  0.1345 -0.1685 -0.0983
19880TIP3    H181055   3.293   3.292   4.228  0.4161 -0.7092  0.9198
19880TIP3    H281056   3.315   3.428   4.291  0.0063  0.0765 -0.5696
19881TIP3   OH281057   5.701   6.491  15.611  0.0531  0.6726 -0.6791
19881TIP3    H181058   5.790   6.489  15.647 -0.7984 -1.2460  1.5916
19881TIP3    H281059   5.663   6.571  15.647 -0.0515 -0.0739  0.9862
19882TIP3   OH281060   5.661   3.245  12.951 -0.3988 -0.1481 -0.0036
19882TIP3    H181061   5.619   3.217  12.869 -0.3841  1.4739 -0.6009
19882TIP3    H281062   5.588   3.262  13.011 -0.5398  0.8758 -0.4428
19883TIP3   OH281063   2.820   5.180  12.508 -0.5377  0.3215 -0.1988
19883TIP3    H181064   2.767   5.252  12.541 -2.3807 -0.8343 -0.4966
19883TIP3    H281065   2.904   5.189  12.552 -1.5461  1.2325  1.6230
19884TIP3   OH281066   0.131   4.093  14.193  0.2408 -0.2495 -0.5158
19884TIP3    H181067   0.089   4.014  14.158  0.8517  0.1094 -2.1723
19884TIP3    H281068   0.207   4.060  14.241 -0.7931 -0.7748  0.8316
19885TIP3   OH281069   0.559   5.879  13.137 -0.5055 -0.6278 -0.1510
19885TIP3    H181070   0.639   5.837  13.107 -0.2057 -0.7755  0.8185
19885TIP3    H281071   0.588   5.962  13.175 -0.8287 -0.5986  0.0409
19886TIP3   OH281072   5.206   6.547  16.342 -0.1348  0.3622 -0.4860
19886TIP3    H181073   5.134   6.610  16.350  1.1214  1.8723 -0.5877
19886TIP3    H281074   5.181   6.474  16.400 -1.3089  1.2711  0.1913
19887TIP3   OH281075   0.821   3.836  11.866  0.1762 -0.3814 -0.0121
19887TIP3    H181076   0.850   3.858  11.778  1.6580  0.4381  0.6410
19887TIP3    H281077   0.848   3.911  11.920 -0.6428 -0.8846  1.1417
19888TIP3   OH281078   5.089   2.978   5.607  0.2967 -0.0661  0.1302
19888TIP3    H181079   5.084   3.065   5.568 -1.1072  0.2796  0.9722
19888TIP3    H281080   5.175   2.975   5.648  0.4325  0.8637 -0.0603
19889TIP3   OH281081   4.453   2.992  11.886 -0.1329  0.1162 -0.4497
19889TIP3    H181082   4.534   3.024  11.847 -0.2524  0.1264 -0.6922
19889TIP3    H281083   4.476   2.907  11.923  0.2700  0.6229  0.5022
19890TIP3   OH281084   1.096   4.271  13.347  0.4525 -0.2472 -0.2112
19890TIP3    H181085   1.024   4.332  13.333  0.3603 -0.6865 -1.9992
19890TIP3    H281086   1.052   4.187  13.366  0.5654  0.0688  1.5446
19891TIP3   OH281087   2.285   2.821   3.817  0.2128  0.1421 -0.2256
19891TIP3    H181088   2.194   2.791   3.822 -0.4131  1.5225 -2.2168
19891TIP3    H281089   2.282   2.912   3.848  1.0742 -0.0664  0.4983
19892TIP3   OH281090   0.458   3.382   4.239  0.3295 -0.3778  0.7661
19892TIP3    H181091   0.442   3.352   4.329  0.4656  3.7081  2.3539
19892TIP3    H281092   0.405   3.462   4.231  1.2814  0.0602 -2.3859
19893TIP3   OH281093   3.379   2.866   0.324  0.7910 -0.2665  0.4354
19893TIP3    H181094   3.453   2.887   0.267  1.5640  2.1578  2.1644
19893TIP3    H281095   3.416   2.815   0.396  0.7389  0.6003  1.0949
19894TIP3   OH281096   0.101   3.139  11.157  0.2193  0.7680 -0.0245
19894TIP3    H181097   0.028   3.201  11.157 -0.6188 -0.1919  0.3814
19894TIP3    H281098   0.176   3.190  11.187 -0.6766  1.3451  1.3193
19895TIP3   OH281099   5.530   0.111  14.482 -0.2067  1.0356  0.0226
19895TIP3    H181100   5.625   0.123  14.476  0.0851 -0.7297  0.5940
19895TIP3    H281101   5.503   0.168  14.554  0.6294  0.5968  0.7031
19896TIP3   OH281102   2.867   6.055  10.986  0.2066  0.0792  0.4505
19896TIP3    H181103   2.933   6.041  10.917  0.6842 -2.1767  1.2789
19896TIP3    H281104   2.813   6.127  10.953  0.4851 -0.8264 -2.2545
19897TIP3   OH281105   5.688   6.158   6.565 -0.9848  0.2480  0.6211
19897TIP3    H181106   5.702   6.114   6.649  0.9223  2.5138  1.6121
19897TIP3    H281107   5.717   6.095   6.499  1.8536  0.0132  1.9698
19898TIP3   OH281108   3.933   0.312   0.776  0.1201  0.2613  0.3449
19898TIP3    H181109   3.938   0.284   0.868 -0.1856  0.1958  0.3441
19898TIP3    H281110   3.954   0.406   0.779 -0.4293  0.3803  0.5554
19899TIP3   OH281111   2.637   5.536   4.177  0.2984 -0.0393  0.1499
19899TIP3    H181112   2.685   5.618   4.166 -1.0054  0.6171 -0.8746
19899TIP3    H281113   2.559   5.546   4.123 -0.5946 -1.4050  1.1203
19900TIP3   OH281114   2.334   5.821   1.773  0.4304 -0.4972  0.5936
19900TIP3    H181115   2.273   5.760   1.814 -1.7186  0.2610 -1.3230
19900TIP3    H281116   2.401   5.765   1.733 -0.6637 -1.5362  0.1688
19901TIP3   OH281117   6.743   0.999  11.146  0.0207  0.1138 -0.7885
19901TIP3    H181118   6.707   1.034  11.064  0.7422  0.0756 -1.1280
19901TIP3    H281119   6.745   1.074  11.205  1.4638  0.6409 -1.4777
19902TIP3   OH281120   1.969   4.277  15.265  0.1605 -0.5050  0.2920
19902TIP3    H181121   2.061   4.303  15.264 -0.1532  0.7523 -1.3573
19902TIP3    H281122   1.968   4.193  15.310  2.5360 -1.9836 -2.1027
19903TIP3   OH281123   2.462   6.368  11.016 -0.3256  0.0651 -0.8556
19903TIP3    H181124   2.428   6.323  10.938 -1.9192 -3.1922  1.4325
19903TIP3    H281125   2.385   6.379  11.072  1.3944 -3.7660  2.8488
19904TIP3   OH281126   5.805   2.023  10.739 -0.0867  0.7508 -0.0320
19904TIP3    H181127   5.836   2.086  10.804 -0.3298  0.9174 -0.0724
19904TIP3    H281128   5.795   2.075  10.659  0.4949  0.4845 -0.2818
19905TIP3   OH281129   2.633   4.570   0.474 -0.0988 -0.2510  0.4694
19905TIP3    H181130   2.658   4.581   0.383  1.0100 -1.7588  0.5588
19905TIP3    H281131   2.575   4.494   0.474  0.1146 -0.4207  1.0458
19906TIP3   OH281132   4.094   3.552  15.860 -0.3514 -0.1251  0.1118
19906TIP3    H181133   4.116   3.643  15.842  1.0262 -0.3850  0.3775
19906TIP3    H281134   4.137   3.533  15.943 -1.6953 -0.6650  0.7251
19907TIP3   OH281135   4.146   1.549  11.584  0.1340  0.6801  0.4187
19907TIP3    H181136   4.094   1.538  11.505 -0.0166 -0.9705  0.7044
19907TIP3    H281137   4.166   1.643  11.587 -0.7598  0.9491 -0.9821
19908TIP3   OH281138   1.785   2.761   3.336 -0.0789 -0.5095  0.1262
19908TIP3    H181139   1.876   2.790   3.331 -0.1179 -0.5574 -1.1314
19908TIP3    H281140   1.738   2.816   3.273 -0.4327 -2.1731 -1.1453
19909TIP3   OH281141   4.028   6.734  12.094  0.0771  0.2158  0.3233
19909TIP3    H181142   3.999   6.816  12.135 -3.0741  0.2260 -1.5904
19909TIP3    H281143   4.016   6.668  12.162 -1.2691  0.7881  0.6784
19910TIP3   OH281144   4.117   0.778  14.123  0.8113 -0.3017  0.0102
19910TIP3    H181145   4.049   0.840  14.098  0.5476 -0.8496 -0.6691
19910TIP3    H281146   4.077   0.728  14.195 -0.1657 -1.7074 -1.4380
19911TIP3   OH281147   0.022   2.071  13.903 -0.7187 -0.0813  0.4577
19911TIP3    H181148  -0.061   2.037  13.869 -0.4245 -0.2986 -0.0731
19911TIP3    H281149   0.025   2.162  13.874 -0.2276 -0.4139 -0.5942
19912TIP3   OH281150   3.798   1.102   1.674  0.3324 -0.0112  0.1762
19912TIP3    H181151   3.841   1.019   1.655  0.6426  0.3876 -0.9535
19912TIP3    H281152   3.797   1.108   1.770 -2.2406 -2.6197  0.4577
19913TIP3   OH281153   3.843   2.090  15.234 -0.3638  0.2537  0.2294
19913TIP3    H181154   3.808   2.090  15.323 -3.0320  0.1180 -0.7234
19913TIP3    H281155   3.885   2.005  15.224 -3.8670 -1.6630  0.0968
19914TIP3   OH281156   1.981   5.281  16.544 -0.5021 -0.4738 -0.2088
19914TIP3    H181157   1.989   5.340  16.619  1.4056  0.2513 -0.9110
19914TIP3    H281158   1.940   5.335  16.476 -0.3479 -0.4921 -0.3157
19915TIP3   OH281159   4.760   5.491  16.110  0.1006 -0.6404  0.2906
19915TIP3    H181160   4.758   5.574  16.062 -2.8931 -0.2018  1.0247
19915TIP3    H281161   4.790   5.515  16.197 -2.4681  0.0904  1.0526
19916TIP3   OH281162   1.298   6.708  14.331  0.4681 -0.1022 -0.7600
19916TIP3    H181163   1.310   6.727  14.424 -0.5104 -1.8781 -0.2378
19916TIP3    H281164   1.386   6.714  14.294  0.6856  2.1745 -0.0850
19917TIP3   OH281165   0.272   5.654   4.049 -1.0365  0.0391 -0.4550
19917TIP3    H181166   0.363   5.626   4.057 -0.6673  1.0247 -0.9956
19917TIP3    H281167   0.268   5.698   3.963 -1.5284  1.7446  0.3934
19918TIP3   OH281168   0.642   6.168  14.473 -0.2130  0.7161 -0.1039
19918TIP3    H181169   0.698   6.204  14.404 -0.3035 -0.4654 -0.8268
19918TIP3    H281170   0.632   6.240  14.536  2.4851  0.8547  0.3062
19919TIP3   OH281171   4.412   2.865   2.479 -0.5695  0.5978 -0.4852
19919TIP3    H181172   4.358   2.786   2.471 -0.3326  0.2274  1.2031
19919TIP3    H281173   4.383   2.921   2.407 -0.2593 -1.2805 -2.1553
19920TIP3   OH281174   2.753   1.068  14.295  0.3678 -0.1612 -0.1785
19920TIP3    H181175   2.760   1.024  14.210 -0.4399  2.0114 -1.4578
19920TIP3    H281176   2.660   1.060  14.318  0.3158  0.4267 -0.1769
19921TIP3   OH281177   4.998   6.743  16.286 -0.1345  0.5683  0.1796
19921TIP3    H181178   5.073   6.778  16.238 -0.7474  0.8054 -0.6265
19921TIP3    H281179   4.991   6.798  16.364 -1.0682  2.2825 -1.0539
19922TIP3   OH281180   6.064   5.241  17.077 -0.0687  0.1004  0.0853
19922TIP3    H181181   5.996   5.309  17.084 -0.2049  0.0627 -0.7270
19922TIP3    H281182   6.141   5.281  17.117  0.1101  1.1183 -1.1981
19923TIP3   OH281183   4.794   2.189   2.651  0.2272  0.4015 -0.0325
19923TIP3    H181184   4.739   2.150   2.719 -0.2397 -3.3919 -2.3262
19923TIP3    H281185   4.740   2.258   2.613 -0.5345  0.7608  1.6011
19924TIP3   OH281186   5.341   4.530   3.236 -0.4154 -0.4152  0.5782
19924TIP3    H181187   5.274   4.485   3.288  1.5488 -1.7194  2.1216
19924TIP3    H281188   5.344   4.618   3.274  0.1665 -0.9936  1.9423
19925TIP3   OH281189   3.652   3.149  11.320  0.0401  0.0113  0.0951
19925TIP3    H181190   3.664   3.141  11.415  0.5616  0.6197  0.0875
19925TIP3    H281191   3.679   3.064  11.285  0.5635  0.0315  0.4344
19926TIP3   OH281192   3.229   2.050  13.655 -0.3873 -0.2907 -0.4004
19926TIP3    H181193   3.171   2.035  13.580 -2.2844  0.1466  0.8871
19926TIP3    H281194   3.184   2.007  13.728 -0.1549  1.7999  1.0646
19927TIP3   OH281195   1.548   6.309  15.656  0.3272  0.4685  0.6489
19927TIP3    H181196   1.540   6.254  15.735 -1.7039  0.3679  0.4284
19927TIP3    H281197   1.467   6.359  15.654  1.6061  2.6138  0.1494
19928TIP3   OH281198   0.921   0.983   2.439 -0.8868  0.0250  0.2737
19928TIP3    H181199   0.894   1.030   2.518 -1.3647  0.0766  0.0823
19928TIP3    H281200   0.843   0.984   2.382 -0.2609  0.8527 -0.6071
19929TIP3   OH281201   1.616   1.879  13.660 -0.2465  0.4066  0.0100
19929TIP3    H181202   1.521   1.883  13.659 -0.2526  0.4807 -1.4276
19929TIP3    H281203   1.642   1.896  13.569  1.0610 -1.3983 -0.0032
19930TIP3   OH281204   5.800   4.969   3.141  0.1369  0.0339  0.7345
19930TIP3    H181205   5.822   5.052   3.183 -1.3155 -0.1581  1.9747
19930TIP3    H281206   5.836   4.902   3.199  0.4074 -0.2270  0.2766
19931TIP3   OH281207   4.377   0.809   1.372  0.2161 -0.4626  0.2606
19931TIP3    H181208   4.381   0.861   1.291 -1.7012  2.1172  1.6558
19931TIP3    H281209   4.299   0.755   1.360  0.9515 -1.4273 -0.2952
19932TIP3   OH281210   1.750   1.834  13.239 -0.4372 -0.1732 -0.2038
19932TIP3    H181211   1.667   1.881  13.250 -0.6205 -0.4102 -0.5623
19932TIP3    H281212   1.815   1.892  13.278 -0.7013  0.2451 -0.3778
19933TIP3   OH281213   2.576   1.111   4.187  0.3111  0.3971  0.0208
19933TIP3    H181214   2.481   1.105   4.192  0.4080 -0.7029  1.0739
19933TIP3    H281215   2.607   1.054   4.258  1.7357  1.4813  0.3185
19934TIP3   OH281216   3.480   5.675  12.067  0.3282 -0.1947 -0.7995
19934TIP3    H181217   3.442   5.754  12.105  1.8744  0.1199  0.1462
19934TIP3    H281218   3.565   5.703  12.033  0.4424 -1.2278 -1.4112
19935TIP3   OH281219   2.893   5.591  11.534 -0.0184 -0.3913  0.6316
19935TIP3    H181220   2.824   5.548  11.484  1.3220 -0.0498 -1.6519
19935TIP3    H281221   2.972   5.540  11.514  1.0156  1.2399  0.3357
19936TIP3   OH281222   4.920   4.665   0.540  0.7622 -0.4602 -0.6126
19936TIP3    H181223   4.918   4.743   0.596 -1.2216 -1.5227  0.9276
19936TIP3    H281224   5.004   4.670   0.495  1.3934  1.7111  0.6542
19937TIP3   OH281225   2.412   5.427  14.563  0.8382  0.0923  0.5081
19937TIP3    H181226   2.365   5.449  14.482  2.4033  0.9412 -0.2143
19937TIP3    H281227   2.439   5.512  14.598 -0.7737 -0.1736  2.5700
19938TIP3   OH281228   5.723   2.437   2.328  0.1192  0.0043 -0.4387
19938TIP3    H181229   5.758   2.425   2.240  1.0913 -1.4380  0.1068
19938TIP3    H281230   5.791   2.488   2.373  0.5731 -0.9688  0.0156
19939TIP3   OH281231   2.911   1.820  12.747 -0.0600  0.0218 -0.8481
19939TIP3    H181232   2.862   1.762  12.688 -0.7051  0.2023 -0.4964
19939TIP3    H281233   2.861   1.819  12.829 -0.2773  1.3560 -0.9494
19940TIP3   OH281234   1.427   4.596   5.177  0.2246  0.2047 -0.0607
19940TIP3    H181235   1.390   4.665   5.122 -2.1568 -0.9424 -0.0313
19940TIP3    H281236   1.427   4.633   5.265 -0.3735  0.4329 -0.1500
19941TIP3   OH281237   3.966   5.548  13.175  0.4565  0.3838 -0.2459
19941TIP3    H181238   3.972   5.528  13.268  1.8809 -0.1137 -0.4136
19941TIP3    H281239   3.985   5.642  13.169  2.2038  0.0801 -0.1520
19942TIP3   OH281240   3.797   2.546  11.532 -0.5086  0.4246  0.2786
19942TIP3    H181241   3.702   2.545  11.516 -0.8013 -0.1395  1.8080
19942TIP3    H281242   3.831   2.474  11.479 -1.0214  0.3040  0.1044
19943TIP3   OH281243   2.782   4.664   1.050 -0.2650  0.2877  0.3439
19943TIP3    H181244   2.798   4.622   0.966  2.1650  1.0497  0.3380
19943TIP3    H281245   2.768   4.756   1.028 -2.3463  0.0794  0.6096
19944TIP3   OH281246   2.591   2.829   4.540  0.1037 -0.5743 -0.1917
19944TIP3    H181247   2.527   2.900   4.533  2.0935  1.3141 -0.1499
19944TIP3    H281248   2.581   2.780   4.459  0.3949  1.3055 -1.4321
19945TIP3   OH281249   3.726   0.260  16.324 -0.3789  0.3777 -0.1401
19945TIP3    H181250   3.633   0.267  16.302 -0.4266 -0.7490 -0.3475
19945TIP3    H281251   3.727   0.253  16.420 -0.7162 -2.0767 -0.2654
19946TIP3   OH281252   4.186   3.878  16.414  0.5457 -0.6454  0.4186
19946TIP3    H181253   4.126   3.907  16.483 -0.4786 -0.7519 -0.3906
19946TIP3    H281254   4.271   3.873  16.456 -0.0026 -0.4185  1.5954
19947TIP3   OH281255   0.659   6.401   4.921  0.0091 -0.1390  0.2579
19947TIP3    H181256   0.634   6.318   4.961  1.0547  0.0774  1.4570
19947TIP3    H281257   0.739   6.382   4.873  0.2735  0.1602  0.5671
19948TIP3   OH281258   0.650   5.707  11.797 -0.0868 -0.6086 -0.1862
19948TIP3    H181259   0.680   5.616  11.805  1.6225 -0.3157 -2.4590
19948TIP3    H281260   0.663   5.744  11.884 -1.2223 -2.5994  0.9146
19949TIP3   OH281261   2.400   5.793   2.709  0.3272 -0.3036 -0.0949
19949TIP3    H181262   2.315   5.827   2.684 -0.5857 -2.3571  0.0076
19949TIP3    H281263   2.438   5.860   2.767 -1.4593  0.3614  0.3508
19950TIP3   OH281264   2.824   1.712   5.755 -0.3156 -0.4288 -0.0460
19950TIP3    H181265   2.897   1.651   5.746  1.0433  1.0729  0.2646
19950TIP3    H281266   2.746   1.657   5.758  0.7769 -2.0718 -0.6531
19951TIP3   OH281267   0.716   6.246   6.452  0.3916  0.0491 -0.0898
19951TIP3    H181268   0.770   6.195   6.392  0.6877 -1.6385  1.5312
19951TIP3    H281269   0.654   6.183   6.489 -0.4515  1.2476  0.6310
19952TIP3   OH281270   1.700   3.121  11.498 -0.2989  0.2285  0.6448
19952TIP3    H181271   1.748   3.178  11.558 -0.3503  1.3644 -0.3579
19952TIP3    H281272   1.759   3.109  11.424 -0.6874 -0.2125  0.4030
19953TIP3   OH281273   1.396   4.307  14.622  0.0604  1.3237  0.1938
19953TIP3    H181274   1.311   4.264  14.621  0.0307  1.3452  1.0973
19953TIP3    H281275   1.447   4.259  14.688  1.1919  0.4884 -1.2193
19954TIP3   OH281276   2.943   5.263   2.483  0.8991 -0.0407 -0.0757
19954TIP3    H181277   3.019   5.207   2.469  1.4465  0.4797  0.7342
19954TIP3    H281278   2.940   5.277   2.577  0.5023  0.9247 -0.2175
19955TIP3   OH281279   0.471   1.830   5.563 -0.5284  0.4835  0.1945
19955TIP3    H181280   0.488   1.771   5.491 -0.1652 -0.0050  0.6721
19955TIP3    H281281   0.517   1.911   5.539  1.2826 -0.3168  0.7597
19956TIP3   OH281282   5.780   1.718   5.551 -0.5188  0.4133  0.5371
19956TIP3    H181283   5.697   1.757   5.579 -0.3671  1.2561 -0.1404
19956TIP3    H281284   5.819   1.685   5.632 -0.5331  1.9392  1.2061
19957TIP3   OH281285   4.620   0.321  12.907  0.2016  0.3081 -0.3951
19957TIP3    H181286   4.576   0.283  12.830  0.2318  0.9725 -0.7456
19957TIP3    H281287   4.652   0.406  12.877  1.0973  0.1468  0.0708
19958TIP3   OH281288   0.533   0.099  13.016 -0.3678  0.1590  0.0367
19958TIP3    H181289   0.444   0.114  12.983 -0.0913 -0.4466 -1.0229
19958TIP3    H281290   0.580   0.060  12.943  0.4901 -0.5263  0.9214
19959TIP3   OH281291   5.137   3.798   1.323  0.9265 -0.3790  0.4217
19959TIP3    H181292   5.168   3.884   1.351 -0.8101  0.4734 -0.1990
19959TIP3    H281293   5.045   3.810   1.302 -0.2491 -3.0406  3.2487
19960TIP3   OH281294   2.783   2.076   0.157 -0.4056  0.1214 -0.1808
19960TIP3    H181295   2.831   2.153   0.126  1.5242 -1.5627 -1.6581
19960TIP3    H281296   2.703   2.074   0.104 -0.1725  0.7687 -0.5625
19961TIP3   OH281297   6.817   3.094   5.185  0.1011  0.1982  0.4508
19961TIP3    H181298   6.776   3.023   5.234  1.5721  0.3197  1.9542
19961TIP3    H281299   6.780   3.088   5.097 -0.5085 -1.8237  0.8092
19962TIP3   OH281300   2.593   6.398   2.294 -0.2250 -0.5151 -0.0564
19962TIP3    H181301   2.683   6.382   2.321 -0.0708  1.3491  0.6652
19962TIP3    H281302   2.553   6.311   2.294  2.1265 -1.7605 -2.7312
19963TIP3   OH281303   6.141   6.513  11.245  0.4299  0.4094 -0.1348
19963TIP3    H181304   6.062   6.501  11.298 -0.9228  0.3995 -2.0406
19963TIP3    H281305   6.170   6.424  11.226 -0.3106  0.3597 -1.1024
19964TIP3   OH281306   0.927   1.858  13.106  0.5171 -0.4468 -0.3933
19964TIP3    H181307   0.995   1.812  13.056 -1.0295 -1.2787 -1.8595
19964TIP3    H281308   0.850   1.800  13.101 -0.7346  1.1008 -0.0461
19965TIP3   OH281309   6.042   3.566   0.633  0.4618  0.4576  0.2239
19965TIP3    H181310   5.973   3.502   0.621  1.4251 -1.1178  2.4728
19965TIP3    H281311   6.085   3.541   0.714  1.5156  3.4085  0.7255
19966TIP3   OH281312   6.454   2.379   1.206 -0.6370 -0.0696  0.7474
19966TIP3    H181313   6.471   2.340   1.120  0.3381  0.0708  0.8726
19966TIP3    H281314   6.358   2.379   1.213 -0.8825  1.8093 -1.2306
19967TIP3   OH281315   2.876   4.326   2.380 -0.4869  1.0163  0.7997
19967TIP3    H181316   2.877   4.336   2.285 -0.6442 -0.5481  0.6161
19967TIP3    H281317   2.959   4.284   2.401 -0.7411  0.7480  1.2826
19968TIP3   OH281318   1.769   3.979  12.307  0.3461  0.6210  0.3584
19968TIP3    H181319   1.851   3.994  12.354  1.3884 -0.5234 -1.0076
19968TIP3    H281320   1.764   3.884  12.296 -0.4693  0.7671 -0.7473
19969TIP3   OH281321   2.326   3.113   6.385  0.1419 -0.4614  0.1556
19969TIP3    H181322   2.371   3.037   6.350 -0.3849 -0.4834 -0.4973
19969TIP3    H281323   2.378   3.140   6.460  0.7632 -0.9931 -0.0805
19970TIP3   OH281324   2.695   4.775   3.780  0.6080 -0.3745 -0.3938
19970TIP3    H181325   2.604   4.776   3.808  0.8489  0.9168  0.4670
19970TIP3    H281326   2.697   4.718   3.703 -1.4767  1.7802 -2.1830
19971TIP3   OH281327   4.247   5.882  14.102 -0.6867  0.2064 -0.5501
19971TIP3    H181328   4.241   5.787  14.100  0.0362  0.1530 -2.2996
19971TIP3    H281329   4.333   5.900  14.140 -1.0733  0.1822  0.3401
19972TIP3   OH281330   1.243   2.009  13.483 -0.1078 -0.1511  0.4969
19972TIP3    H181331   1.224   2.007  13.389 -1.8792  0.0076  0.8196
19972TIP3    H281332   1.199   2.088  13.515  2.3252  1.0841  1.1451
19973TIP3   OH281333   1.219   4.529   2.518  0.0511 -0.2534 -0.1007
19973TIP3    H181334   1.294   4.496   2.469  1.2576  1.3641  0.5689
19973TIP3    H281335   1.254   4.602   2.569 -1.9201  0.3643  0.4539
19974TIP3   OH281336   5.631   5.147  14.298  0.1336  0.4939 -0.2258
19974TIP3    H181337   5.640   5.080  14.366  1.9467  0.3128 -0.6074
19974TIP3    H281338   5.704   5.206  14.313 -0.4153  1.3938 -1.0099
19975TIP3   OH281339   1.742   0.609  15.043 -0.1167 -0.4200  1.0891
19975TIP3    H181340   1.780   0.556  15.114  2.5520  0.8336  0.7233
19975TIP3    H281341   1.817   0.652  15.002 -1.9873  2.3567  0.2898
19976TIP3   OH281342   1.386   2.035  12.664 -0.2998 -0.2469 -0.2647
19976TIP3    H181343   1.372   1.985  12.744 -0.7444 -1.2834 -0.9785
19976TIP3    H281344   1.463   1.994  12.624  0.2211  0.5841 -0.1365
19977TIP3   OH281345   1.902   0.363   1.977  0.0377 -0.2670 -0.1088
19977TIP3    H181346   1.952   0.341   2.055 -0.5967 -0.1890  0.3269
19977TIP3    H281347   1.846   0.287   1.962 -0.5468  0.1190  0.0857
19978TIP3   OH281348   1.927   1.744   2.939  0.9261 -0.7476 -0.3584
19978TIP3    H181349   2.005   1.730   2.991  0.2494 -0.1524  0.8664
19978TIP3    H281350   1.917   1.664   2.888  2.8997 -0.4283 -1.3408
19979TIP3   OH281351   3.624   3.420  12.691 -0.2681  0.0682 -0.0068
19979TIP3    H181352   3.568   3.422  12.769  1.2242  0.5811  1.0967
19979TIP3    H281353   3.690   3.353  12.711  0.9953  1.2169 -0.1810
19980TIP3   OH281354   6.760   3.472   0.324 -0.0527  0.0890  0.2642
19980TIP3    H181355   6.746   3.506   0.412 -1.9508  1.7607 -0.5971
19980TIP3    H281356   6.788   3.549   0.273  0.8496 -0.8057 -0.6505
19981TIP3   OH281357   5.980   1.769   0.976 -0.0849  0.1517  0.0842
19981TIP3    H181358   5.928   1.702   0.931 -0.9949  0.5529  0.5104
19981TIP3    H281359   5.982   1.739   1.067 -0.0515  0.4322  0.1751
19982TIP3   OH281360   6.167   2.216  13.678 -0.4965 -0.2121 -0.1122
19982TIP3    H181361   6.074   2.233  13.692 -0.7875 -2.0699  0.5337
19982TIP3    H281362   6.179   2.227  13.583 -2.1319 -2.9374 -0.7644
19983TIP3   OH281363   4.909   2.634   3.204 -0.1606  0.2134  0.2565
19983TIP3    H181364   4.879   2.672   3.287 -0.3970 -0.7977  0.6526
19983TIP3    H281365   4.976   2.571   3.230 -0.5773 -0.4607 -0.2797
19984TIP3   OH281366   0.182   2.657   0.974  0.3568  0.5940 -0.0265
19984TIP3    H181367   0.225   2.723   1.029  1.6636 -0.2664  0.0114
19984TIP3    H281368   0.225   2.575   0.995 -0.8504 -0.2009 -0.5135
19985TIP3   OH281369   0.339   0.928  15.601  0.3790 -0.0036 -0.1366
19985TIP3    H181370   0.334   0.924  15.697 -0.4430  1.6461 -0.0728
19985TIP3    H281371   0.363   1.019  15.582 -1.7527  0.3619 -1.5152
19986TIP3   OH281372   3.089   5.499  12.499 -0.4917  0.2638  0.1113
19986TIP3    H181373   3.081   5.409  12.468  1.4895  0.5025 -1.2064
19986TIP3    H281374   3.032   5.550  12.440 -0.5212  0.0702 -0.0273
19987TIP3   OH281375   6.037   2.915  16.479 -0.6912 -0.0702 -0.2878
19987TIP3    H181376   6.019   3.004  16.509  1.5842  0.5147 -0.4829
19987TIP3    H281377   6.083   2.926  16.396  2.3597 -1.2448  1.1222
19988TIP3   OH281378   6.059   2.785  11.535 -0.3758 -0.1786 -0.6057
19988TIP3    H181379   5.963   2.776  11.537 -0.2837 -1.5708 -1.0863
19988TIP3    H281380   6.090   2.696  11.517  0.9937  0.3400 -0.8696
19989LIG      O81381   3.291   3.746  16.357 -0.0486 -0.5006  0.4707
19989LIG     C181382   3.269   3.783  16.495 -0.2882 -0.0146 -0.0582
19989LIG     C281383   3.173   3.688  16.556  0.5190  0.4008 -0.5850
19989LIG     C381384   3.400   3.791  16.565 -0.0332 -0.7181  0.2468
19989LIG     H181385   3.220   3.882  16.504  3.7689  2.2111  0.0936
19989LIG     H281386   3.076   3.712  16.508 -0.3532  0.1653  0.9958
19989LIG     H381387   3.166   3.709  16.665 -1.5404 -2.4954 -0.0606
19989LIG     H481388   3.198   3.582  16.532  2.4064  0.5431  0.5465
19989LIG     H581389   3.455   3.877  16.520  0.4259 -0.2492  1.6750
19989LIG     H681390   3.469   3.707  16.537 -2.3390 -1.9075 -2.4092
19989LIG     H781391   3.390   3.797  16.675 -0.2993 -1.2489  0.2554
19989LIG     H881392   3.211   3.700  16.329 -0.4102 -0.7356  1.8072
   6.82205   6.82205  17.08008
